ITEM: TIMESTEP
0
ITEM: NUMBER OF ATOMS
1350
ITEM: BOX BOUNDS xy xz yz pp pp pp
0.0 77.3072553429 0
0.0 82.0438289437 0
-10.0 10.0 0
ITEM: ATOMS id type x y z vx vy vz
1 1 2.86730544829 2.17797447187 0.0 0.0 0.0 0.0
2 1 7.57903544829 3.49259447187 0.0 0.0 0.0 0.0
3 1 12.8139654483 2.93708447187 0.0 0.0 0.0 0.0
4 1 17.4233654483 4.33692447187 0.0 0.0 0.0 0.0
5 1 22.0917654483 1.18441447187 0.0 0.0 0.0 0.0
6 1 27.8283654483 0.96396447187 0.0 0.0 0.0 0.0
7 1 33.4701654483 2.02516447187 0.0 0.0 0.0 0.0
8 1 38.8346654483 1.90420447187 0.0 0.0 0.0 0.0
9 1 43.9843654483 0.82280147187 0.0 0.0 0.0 0.0
10 1 50.5207654483 0.16569447187 0.0 0.0 0.0 0.0
11 1 53.5015654483 0.39016547187 0.0 0.0 0.0 0.0
12 1 60.9915654483 0.0142364718701 0.0 0.0 0.0 0.0
13 1 63.8873654483 0.88396447187 0.0 0.0 0.0 0.0
14 1 68.7488654483 1.33734447187 0.0 0.0 0.0 0.0
15 1 74.6192654483 1.16151447187 0.0 0.0 0.0 0.0
16 1 75.7644654483 8.32302447187 0.0 0.0 0.0 0.0
17 1 3.75387544829 7.43173447187 0.0 0.0 0.0 0.0
18 1 10.2416654483 7.65423447187 0.0 0.0 0.0 0.0
19 1 16.5407654483 7.19735447187 0.0 0.0 0.0 0.0
20 1 21.3530654483 6.42256447187 0.0 0.0 0.0 0.0
21 1 26.0184654483 4.92310447187 0.0 0.0 0.0 0.0
22 1 30.6341654483 7.63072447187 0.0 0.0 0.0 0.0
23 1 36.1485654483 6.45912447187 0.0 0.0 0.0 0.0
24 1 42.8167654483 5.69591447187 0.0 0.0 0.0 0.0
25 1 45.8250654483 5.92753447187 0.0 0.0 0.0 0.0
26 1 50.2493654483 5.68845447187 0.0 0.0 0.0 0.0
27 1 54.3152654483 3.26864447187 0.0 0.0 0.0 0.0
28 1 61.2379654483 5.73030447187 0.0 0.0 0.0 0.0
29 1 67.0364654483 5.81257447187 0.0 0.0 0.0 0.0
30 1 72.4676654483 4.89257447187 0.0 0.0 0.0 0.0
31 1 1.80059544829 12.2030144719 0.0 0.0 0.0 0.0
32 1 5.28322544829 10.0231144719 0.0 0.0 0.0 0.0
33 1 12.0836654483 9.99881447187 0.0 0.0 0.0 0.0
34 1 18.7740654483 11.4791144719 0.0 0.0 0.0 0.0
35 1 23.4962654483 10.2393144719 0.0 0.0 0.0 0.0
36 1 28.8122654483 10.0234144719 0.0 0.0 0.0 0.0
37 1 33.3895654483 11.1249144719 0.0 0.0 0.0 0.0
38 1 38.1593654483 11.3878144719 0.0 0.0 0.0 0.0
39 1 42.8210654483 11.1580144719 0.0 0.0 0.0 0.0
40 1 49.0884654483 10.7991144719 0.0 0.0 0.0 0.0
41 1 55.1399654483 8.44577447187 0.0 0.0 0.0 0.0
42 1 58.1113654483 8.90627447187 0.0 0.0 0.0 0.0
43 1 63.6111654483 10.4003144719 0.0 0.0 0.0 0.0
44 1 70.7747654483 9.44852447187 0.0 0.0 0.0 0.0
45 1 73.7467654483 13.4567144719 0.0 0.0 0.0 0.0
46 1 77.0748654483 16.9968144719 0.0 0.0 0.0 0.0
47 1 6.63422544829 15.3333144719 0.0 0.0 0.0 0.0
48 1 9.65996544829 15.1958144719 0.0 0.0 0.0 0.0
49 1 15.0862654483 15.4939144719 0.0 0.0 0.0 0.0
50 1 20.7434654483 15.4413144719 0.0 0.0 0.0 0.0
51 1 25.6898654483 14.4552144719 0.0 0.0 0.0 0.0
52 1 29.6122654483 17.4380144719 0.0 0.0 0.0 0.0
53 1 35.3593654483 16.0471144719 0.0 0.0 0.0 0.0
54 1 41.0065654483 16.1455144719 0.0 0.0 0.0 0.0
55 1 45.0675654483 13.1842144719 0.0 0.0 0.0 0.0
56 1 52.3514654483 14.9739144719 0.0 0.0 0.0 0.0
57 1 57.0565654483 13.3693144719 0.0 0.0 0.0 0.0
58 1 64.2909654483 13.3379144719 0.0 0.0 0.0 0.0
59 1 67.2735654483 13.7393144719 0.0 0.0 0.0 0.0
60 1 71.8530654483 15.8244144719 0.0 0.0 0.0 0.0
61 1 1.97541544829 21.3743144719 0.0 0.0 0.0 0.0
62 1 6.94457544829 20.7225144719 0.0 0.0 0.0 0.0
63 1 12.1988654483 19.7139144719 0.0 0.0 0.0 0.0
64 1 17.8622654483 19.5484144719 0.0 0.0 0.0 0.0
65 1 23.4850654483 19.5593144719 0.0 0.0 0.0 0.0
66 1 28.7040654483 20.2814144719 0.0 0.0 0.0 0.0
67 1 33.2630654483 20.0183144719 0.0 0.0 0.0 0.0
68 1 37.9803654483 21.2482144719 0.0 0.0 0.0 0.0
69 1 45.3915654483 18.6764144719 0.0 0.0 0.0 0.0
70 1 50.4591654483 19.2190144719 0.0 0.0 0.0 0.0
71 1 58.5355654483 20.2816144719 0.0 0.0 0.0 0.0
72 1 57.7481654483 17.3931144719 0.0 0.0 0.0 0.0
73 1 63.7552654483 18.5267144719 0.0 0.0 0.0 0.0
74 1 68.2620654483 21.2458144719 0.0 0.0 0.0 0.0
75 1 73.8818654483 20.7687144719 0.0 0.0 0.0 0.0
76 1 76.4545654483 25.3730144719 0.0 0.0 0.0 0.0
77 1 4.46309544829 25.7052144719 0.0 0.0 0.0 0.0
78 1 10.3289654483 24.6118144719 0.0 0.0 0.0 0.0
79 1 15.4006654483 23.6630144719 0.0 0.0 0.0 0.0
80 1 20.9645654483 23.6226144719 0.0 0.0 0.0 0.0
81 1 26.4554654483 24.2895144719 0.0 0.0 0.0 0.0
82 1 31.6071654483 25.0184144719 0.0 0.0 0.0 0.0
83 1 37.0528654483 24.1570144719 0.0 0.0 0.0 0.0
84 1 42.0759654483 22.9966144719 0.0 0.0 0.0 0.0
85 1 47.2864654483 23.5209144719 0.0 0.0 0.0 0.0
86 1 52.1520654483 24.2252144719 0.0 0.0 0.0 0.0
87 1 56.6916654483 24.4160144719 0.0 0.0 0.0 0.0
88 1 61.9011654483 23.6442144719 0.0 0.0 0.0 0.0
89 1 67.0122654483 23.9856144719 0.0 0.0 0.0 0.0
90 1 71.7124654483 25.0274144719 0.0 0.0 0.0 0.0
91 1 1.86909544829 29.9151144719 0.0 0.0 0.0 0.0
92 1 6.22176544829 28.1410144719 0.0 0.0 0.0 0.0
93 1 13.6147654483 28.6298144719 0.0 0.0 0.0 0.0
94 1 18.3052654483 27.7545144719 0.0 0.0 0.0 0.0
95 1 23.7386654483 28.1063144719 0.0 0.0 0.0 0.0
96 1 28.6836654483 29.1861144719 0.0 0.0 0.0 0.0
97 1 33.8482654483 28.8269144719 0.0 0.0 0.0 0.0
98 1 42.6003654483 29.7704144719 0.0 0.0 0.0 0.0
99 1 42.3977654483 26.7960144719 0.0 0.0 0.0 0.0
100 1 49.0405654483 28.5807144719 0.0 0.0 0.0 0.0
101 1 54.4540654483 29.3059144719 0.0 0.0 0.0 0.0
102 1 59.6312654483 28.4784144719 0.0 0.0 0.0 0.0
103 1 64.5416654483 28.4026144719 0.0 0.0 0.0 0.0
104 1 69.0701654483 29.2467144719 0.0 0.0 0.0 0.0
105 1 74.0204654483 30.0496144719 0.0 0.0 0.0 0.0
106 1 77.1167654483 34.5028144719 0.0 0.0 0.0 0.0
107 1 5.27144544829 33.7407144719 0.0 0.0 0.0 0.0
108 1 10.7177654483 32.8424144719 0.0 0.0 0.0 0.0
109 1 17.9520654483 32.4916144719 0.0 0.0 0.0 0.0
110 1 20.9356654483 32.1479144719 0.0 0.0 0.0 0.0
111 1 24.9392654483 35.3681144719 0.0 0.0 0.0 0.0
112 1 30.3896654483 33.5149144719 0.0 0.0 0.0 0.0
113 1 36.9118654483 32.6926144719 0.0 0.0 0.0 0.0
114 1 39.8173654483 33.3321144719 0.0 0.0 0.0 0.0
115 1 44.5229654483 32.0752144719 0.0 0.0 0.0 0.0
116 1 51.9405654483 33.1381144719 0.0 0.0 0.0 0.0
117 1 55.5930654483 32.1114144719 0.0 0.0 0.0 0.0
118 1 61.3422654483 35.8876144719 0.0 0.0 0.0 0.0
119 1 66.5729654483 33.7293144719 0.0 0.0 0.0 0.0
120 1 71.4644654483 36.1282144719 0.0 0.0 0.0 0.0
121 1 2.90476544829 38.3835144719 0.0 0.0 0.0 0.0
122 1 9.42946544829 37.2493144719 0.0 0.0 0.0 0.0
123 1 12.4269654483 37.4075144719 0.0 0.0 0.0 0.0
124 1 17.4462654483 37.6734144719 0.0 0.0 0.0 0.0
125 1 23.0175654483 37.7031144719 0.0 0.0 0.0 0.0
126 1 28.0140654483 38.3501144719 0.0 0.0 0.0 0.0
127 1 33.8852654483 38.3395144719 0.0 0.0 0.0 0.0
128 1 36.8328654483 37.8257144719 0.0 0.0 0.0 0.0
129 1 41.1873654483 36.0112144719 0.0 0.0 0.0 0.0
130 1 49.1910654483 36.5690144719 0.0 0.0 0.0 0.0
131 1 54.4861654483 37.9267144719 0.0 0.0 0.0 0.0
132 1 59.6753654483 38.4380144719 0.0 0.0 0.0 0.0
133 1 64.6771654483 38.8159144719 0.0 0.0 0.0 0.0
134 1 69.9526654483 38.7403144719 0.0 0.0 0.0 0.0
135 1 75.0195654483 38.9579144719 0.0 0.0 0.0 0.0
136 1 0.110745448289 43.1299144719 0.0 0.0 0.0 0.0
137 1 4.89334544829 43.2758144719 0.0 0.0 0.0 0.0
138 1 9.63946544829 42.6329144719 0.0 0.0 0.0 0.0
139 1 14.8166654483 42.1960144719 0.0 0.0 0.0 0.0
140 1 20.0277654483 41.9023144719 0.0 0.0 0.0 0.0
141 1 24.9314654483 42.6360144719 0.0 0.0 0.0 0.0
142 1 29.6309654483 43.5551144719 0.0 0.0 0.0 0.0
143 1 34.7244654483 43.5533144719 0.0 0.0 0.0 0.0
144 1 40.7989654483 41.4682144719 0.0 0.0 0.0 0.0
145 1 46.3857654483 40.0707144719 0.0 0.0 0.0 0.0
146 1 49.4257654483 43.6404144719 0.0 0.0 0.0 0.0
147 1 56.9483654483 42.8495144719 0.0 0.0 0.0 0.0
148 1 61.8667654483 43.3178144719 0.0 0.0 0.0 0.0
149 1 66.7927654483 43.2161144719 0.0 0.0 0.0 0.0
150 1 72.0921654483 43.4218144719 0.0 0.0 0.0 0.0
151 1 2.37651544829 48.0132144719 0.0 0.0 0.0 0.0
152 1 7.72175544829 47.7396144719 0.0 0.0 0.0 0.0
153 1 12.5961654483 46.9198144719 0.0 0.0 0.0 0.0
154 1 17.4552654483 46.5573144719 0.0 0.0 0.0 0.0
155 1 22.7299654483 46.9329144719 0.0 0.0 0.0 0.0
156 1 27.4959654483 47.7970144719 0.0 0.0 0.0 0.0
157 1 32.8531654483 48.0316144719 0.0 0.0 0.0 0.0
158 1 37.1404654483 45.3247144719 0.0 0.0 0.0 0.0
159 1 44.3764654483 44.5329144719 0.0 0.0 0.0 0.0
160 1 51.8048654483 45.4443144719 0.0 0.0 0.0 0.0
161 1 54.5315654483 47.9635144719 0.0 0.0 0.0 0.0
162 1 59.6362654483 47.8634144719 0.0 0.0 0.0 0.0
163 1 64.0860654483 48.0387144719 0.0 0.0 0.0 0.0
164 1 69.3681654483 47.7255144719 0.0 0.0 0.0 0.0
165 1 74.7285654483 47.6345144719 0.0 0.0 0.0 0.0
166 1 77.2467654483 54.8232144719 0.0 0.0 0.0 0.0
167 1 5.34912544829 52.2243144719 0.0 0.0 0.0 0.0
168 1 10.9585654483 51.9855144719 0.0 0.0 0.0 0.0
169 1 15.2671654483 51.5101144719 0.0 0.0 0.0 0.0
170 1 20.0990654483 51.1393144719 0.0 0.0 0.0 0.0
171 1 25.2851654483 52.1021144719 0.0 0.0 0.0 0.0
172 1 30.8314654483 52.1563144719 0.0 0.0 0.0 0.0
173 1 36.4267654483 50.9838144719 0.0 0.0 0.0 0.0
174 1 43.6495654483 49.1060144719 0.0 0.0 0.0 0.0
175 1 46.6147654483 48.5593144719 0.0 0.0 0.0 0.0
176 1 48.5315654483 53.2413144719 0.0 0.0 0.0 0.0
177 1 57.2115654483 52.5001144719 0.0 0.0 0.0 0.0
178 1 61.6587654483 53.0997144719 0.0 0.0 0.0 0.0
179 1 67.4439654483 52.2310144719 0.0 0.0 0.0 0.0
180 1 72.7861654483 51.9371144719 0.0 0.0 0.0 0.0
181 1 4.12943544829 56.4463144719 0.0 0.0 0.0 0.0
182 1 9.39076544829 55.9473144719 0.0 0.0 0.0 0.0
183 1 14.3981654483 56.7109144719 0.0 0.0 0.0 0.0
184 1 18.4885654483 56.0004144719 0.0 0.0 0.0 0.0
185 1 23.6295654483 57.8822144719 0.0 0.0 0.0 0.0
186 1 26.9585654483 54.6140144719 0.0 0.0 0.0 0.0
187 1 34.0624654483 55.3863144719 0.0 0.0 0.0 0.0
188 1 37.7414654483 53.6819144719 0.0 0.0 0.0 0.0
189 1 44.2484654483 54.8355144719 0.0 0.0 0.0 0.0
190 1 51.4543654483 53.8298144719 0.0 0.0 0.0 0.0
191 1 54.5145654483 56.5525144719 0.0 0.0 0.0 0.0
192 1 59.2095654483 57.8557144719 0.0 0.0 0.0 0.0
193 1 63.2107654483 55.7171144719 0.0 0.0 0.0 0.0
194 1 69.9295654483 58.8813144719 0.0 0.0 0.0 0.0
195 1 76.5053654483 57.7550144719 0.0 0.0 0.0 0.0
196 1 2.62902544829 61.5101144719 0.0 0.0 0.0 0.0
197 1 7.35598544829 60.4946144719 0.0 0.0 0.0 0.0
198 1 10.2173654483 63.6004144719 0.0 0.0 0.0 0.0
199 1 18.6781654483 60.9968144719 0.0 0.0 0.0 0.0
200 1 24.1737654483 60.8059144719 0.0 0.0 0.0 0.0
201 1 27.1577654483 60.5556144719 0.0 0.0 0.0 0.0
202 1 33.4104654483 59.8746144719 0.0 0.0 0.0 0.0
203 1 36.4108654483 59.5270144719 0.0 0.0 0.0 0.0
204 1 41.0201654483 59.5318144719 0.0 0.0 0.0 0.0
205 1 46.1852654483 58.8463144719 0.0 0.0 0.0 0.0
206 1 50.4623654483 59.5844144719 0.0 0.0 0.0 0.0
207 1 55.1822654483 59.4448144719 0.0 0.0 0.0 0.0
208 1 62.1629654483 61.6143144719 0.0 0.0 0.0 0.0
209 1 67.9310654483 61.1161144719 0.0 0.0 0.0 0.0
210 1 72.4592654483 60.4957144719 0.0 0.0 0.0 0.0
211 1 5.81879544829 65.6550144719 0.0 0.0 0.0 0.0
212 1 8.74117544829 66.2240144719 0.0 0.0 0.0 0.0
213 1 12.5484654483 67.7501144719 0.0 0.0 0.0 0.0
214 1 15.8251654483 65.4089144719 0.0 0.0 0.0 0.0
215 1 22.6290654483 64.9238144719 0.0 0.0 0.0 0.0
216 1 28.1514654483 65.8632144719 0.0 0.0 0.0 0.0
217 1 33.4218654483 65.1326144719 0.0 0.0 0.0 0.0
218 1 38.6859654483 64.5274144719 0.0 0.0 0.0 0.0
219 1 43.6550654483 63.7217144719 0.0 0.0 0.0 0.0
220 1 48.7856654483 64.1712144719 0.0 0.0 0.0 0.0
221 1 53.7441654483 64.1865144719 0.0 0.0 0.0 0.0
222 1 58.1097654483 66.0085144719 0.0 0.0 0.0 0.0
223 1 65.2310654483 65.1826144719 0.0 0.0 0.0 0.0
224 1 70.5419654483 65.7048144719 0.0 0.0 0.0 0.0
225 1 1.31260544829 65.7591144719 0.0 0.0 0.0 0.0
226 1 0.0294174482886 70.1711144719 0.0 0.0 0.0 0.0
227 1 5.16894544829 70.3823144719 0.0 0.0 0.0 0.0
228 1 10.2335654483 71.9849144719 0.0 0.0 0.0 0.0
229 1 15.6622654483 71.3313144719 0.0 0.0 0.0 0.0
230 1 20.4125654483 69.5324144719 0.0 0.0 0.0 0.0
231 1 24.6756654483 71.7390144719 0.0 0.0 0.0 0.0
232 1 32.8011654483 69.3682144719 0.0 0.0 0.0 0.0
233 1 35.8447654483 69.3040144719 0.0 0.0 0.0 0.0
234 1 42.6357654483 68.5730144719 0.0 0.0 0.0 0.0
235 1 45.6709654483 68.4658144719 0.0 0.0 0.0 0.0
236 1 51.2388654483 68.9332144719 0.0 0.0 0.0 0.0
237 1 56.6819654483 68.7397144719 0.0 0.0 0.0 0.0
238 1 61.7871654483 69.4903144719 0.0 0.0 0.0 0.0
239 1 66.8590654483 69.6606144719 0.0 0.0 0.0 0.0
240 1 72.2459654483 69.9724144719 0.0 0.0 0.0 0.0
241 1 2.61374544829 74.7845144719 0.0 0.0 0.0 0.0
242 1 7.44229544829 75.6371144719 0.0 0.0 0.0 0.0
243 1 14.7050654483 75.5113144719 0.0 0.0 0.0 0.0
244 1 17.7446654483 74.9148144719 0.0 0.0 0.0 0.0
245 1 23.0238654483 74.2694144719 0.0 0.0 0.0 0.0
246 1 28.0636654483 74.8125144719 0.0 0.0 0.0 0.0
247 1 32.7012654483 76.9476144719 0.0 0.0 0.0 0.0
248 1 37.8318654483 74.5229144719 0.0 0.0 0.0 0.0
249 1 42.5708654483 73.7266144719 0.0 0.0 0.0 0.0
250 1 48.0480654483 72.9145144719 0.0 0.0 0.0 0.0
251 1 53.5800654483 73.2975144719 0.0 0.0 0.0 0.0
252 1 58.8759654483 73.6931144719 0.0 0.0 0.0 0.0
253 1 64.4116654483 74.1967144719 0.0 0.0 0.0 0.0
254 1 69.4716654483 74.0835144719 0.0 0.0 0.0 0.0
255 1 74.7743654483 74.5949144719 0.0 0.0 0.0 0.0
256 1 77.1699654483 2.81064447187 0.0 0.0 0.0 0.0
257 1 4.73464544829 4.55780447187 0.0 0.0 0.0 0.0
258 1 10.3501654483 4.66855447187 0.0 0.0 0.0 0.0
259 1 15.6497654483 1.94307447187 0.0 0.0 0.0 0.0
260 1 20.3335654483 3.61757447187 0.0 0.0 0.0 0.0
261 1 25.0074654483 2.07652447187 0.0 0.0 0.0 0.0
262 1 30.4626654483 2.46480447187 0.0 0.0 0.0 0.0
263 1 36.1834654483 3.41966447187 0.0 0.0 0.0 0.0
264 1 41.7215654483 2.85635447187 0.0 0.0 0.0 0.0
265 1 46.1691654483 2.92283447187 0.0 0.0 0.0 0.0
266 1 49.1697654483 2.85735447187 0.0 0.0 0.0 0.0
267 1 57.2903654483 3.15320447187 0.0 0.0 0.0 0.0
268 1 60.2684654483 2.90176447187 0.0 0.0 0.0 0.0
269 1 66.1681654483 2.90950447187 0.0 0.0 0.0 0.0
270 1 71.7115654483 1.99370447187 0.0 0.0 0.0 0.0
271 1 1.32692544829 9.21642447187 0.0 0.0 0.0 0.0
272 1 8.25351544829 9.87611447187 0.0 0.0 0.0 0.0
273 1 15.0468654483 9.79236447187 0.0 0.0 0.0 0.0
274 1 19.2170654483 8.51813447187 0.0 0.0 0.0 0.0
275 1 24.1950654483 7.31481447187 0.0 0.0 0.0 0.0
276 1 29.0275654483 5.10002447187 0.0 0.0 0.0 0.0
277 1 33.6105654483 8.11597447187 0.0 0.0 0.0 0.0
278 1 38.4846654483 8.39318447187 0.0 0.0 0.0 0.0
279 1 41.5083654483 8.41688447187 0.0 0.0 0.0 0.0
280 1 48.1654654483 7.87953447187 0.0 0.0 0.0 0.0
281 1 53.2418654483 6.08315447187 0.0 0.0 0.0 0.0
282 1 58.2610654483 5.94751447187 0.0 0.0 0.0 0.0
283 1 66.0705654483 8.67125447187 0.0 0.0 0.0 0.0
284 1 69.9644654483 6.55564447187 0.0 0.0 0.0 0.0
285 1 75.4586654483 5.31938447187 0.0 0.0 0.0 0.0
286 1 76.7091654483 14.0213144719 0.0 0.0 0.0 0.0
287 1 4.70919544829 12.9821144719 0.0 0.0 0.0 0.0
288 1 10.1020654483 12.2291144719 0.0 0.0 0.0 0.0
289 1 16.0133654483 12.6314144719 0.0 0.0 0.0 0.0
290 1 21.5539654483 12.5459144719 0.0 0.0 0.0 0.0
291 1 26.1923654483 11.4960144719 0.0 0.0 0.0 0.0
292 1 30.6593654483 12.3740144719 0.0 0.0 0.0 0.0
293 1 35.6778654483 13.0618144719 0.0 0.0 0.0 0.0
294 1 40.5768654483 13.1654144719 0.0 0.0 0.0 0.0
295 1 48.0492654483 13.6585144719 0.0 0.0 0.0 0.0
296 1 51.8456654483 12.0135144719 0.0 0.0 0.0 0.0
297 1 54.7787654483 11.4000144719 0.0 0.0 0.0 0.0
298 1 61.1139654483 8.73472447187 0.0 0.0 0.0 0.0
299 1 68.1379654483 10.8611144719 0.0 0.0 0.0 0.0
300 1 73.6084654483 10.4429144719 0.0 0.0 0.0 0.0
301 1 2.43622544829 18.4082144719 0.0 0.0 0.0 0.0
302 1 5.43970544829 18.1011144719 0.0 0.0 0.0 0.0
303 1 12.2925654483 16.6945144719 0.0 0.0 0.0 0.0
304 1 17.9236654483 16.5478144719 0.0 0.0 0.0 0.0
305 1 23.5295654483 16.5594144719 0.0 0.0 0.0 0.0
306 1 28.6726654483 14.6235144719 0.0 0.0 0.0 0.0
307 1 32.5692654483 17.1149144719 0.0 0.0 0.0 0.0
308 1 39.9886654483 18.9794144719 0.0 0.0 0.0 0.0
309 1 44.0172654483 16.0039144719 0.0 0.0 0.0 0.0
310 1 49.6580654483 16.2721144719 0.0 0.0 0.0 0.0
311 1 55.2473654483 15.7644144719 0.0 0.0 0.0 0.0
312 1 59.5774654483 15.0136144719 0.0 0.0 0.0 0.0
313 1 62.5055654483 15.7624144719 0.0 0.0 0.0 0.0
314 1 68.8422654483 16.3177144719 0.0 0.0 0.0 0.0
315 1 74.1581654483 17.7803144719 0.0 0.0 0.0 0.0
316 1 76.4387654483 22.3682144719 0.0 0.0 0.0 0.0
317 1 4.67641544829 22.7067144719 0.0 0.0 0.0 0.0
318 1 9.83556544829 21.6188144719 0.0 0.0 0.0 0.0
319 1 15.0613654483 20.6825144719 0.0 0.0 0.0 0.0
320 1 20.6766654483 20.6386144719 0.0 0.0 0.0 0.0
321 1 25.9124654483 21.3349144719 0.0 0.0 0.0 0.0
322 1 31.1003654483 22.0730144719 0.0 0.0 0.0 0.0
323 1 36.0466654483 18.9687144719 0.0 0.0 0.0 0.0
324 1 42.7559654483 20.0943144719 0.0 0.0 0.0 0.0
325 1 47.7564654483 20.5425144719 0.0 0.0 0.0 0.0
326 1 52.7534654483 21.2468144719 0.0 0.0 0.0 0.0
327 1 55.7814654483 21.5504144719 0.0 0.0 0.0 0.0
328 1 61.5552654483 20.6424144719 0.0 0.0 0.0 0.0
329 1 66.8122654483 18.5899144719 0.0 0.0 0.0 0.0
330 1 71.1694654483 22.0660144719 0.0 0.0 0.0 0.0
331 1 1.71896544829 26.9150144719 0.0 0.0 0.0 0.0
332 1 9.12416544829 27.3816144719 0.0 0.0 0.0 0.0
333 1 13.1538654483 25.6531144719 0.0 0.0 0.0 0.0
334 1 18.1900654483 24.7664144719 0.0 0.0 0.0 0.0
335 1 23.5741654483 25.1210144719 0.0 0.0 0.0 0.0
336 1 28.8222654483 26.1740144719 0.0 0.0 0.0 0.0
337 1 34.5029654483 25.8589144719 0.0 0.0 0.0 0.0
338 1 39.9237654483 25.0799144719 0.0 0.0 0.0 0.0
339 1 44.5280654483 24.7043144719 0.0 0.0 0.0 0.0
340 1 49.4645654483 25.5912144719 0.0 0.0 0.0 0.0
341 1 54.3581654483 26.2911144719 0.0 0.0 0.0 0.0
342 1 59.5041654483 25.4688144719 0.0 0.0 0.0 0.0
343 1 64.3581654483 25.3850144719 0.0 0.0 0.0 0.0
344 1 68.9843654483 26.2491144719 0.0 0.0 0.0 0.0
345 1 73.9552654483 27.0331144719 0.0 0.0 0.0 0.0
346 1 76.6430654483 31.5321144719 0.0 0.0 0.0 0.0
347 1 4.75203544829 30.7713144719 0.0 0.0 0.0 0.0
348 1 10.8717654483 29.8357144719 0.0 0.0 0.0 0.0
349 1 16.2995654483 29.9753144719 0.0 0.0 0.0 0.0
350 1 20.9427654483 29.1584144719 0.0 0.0 0.0 0.0
351 1 25.8517654483 30.2344144719 0.0 0.0 0.0 0.0
352 1 31.3486654483 30.6145144719 0.0 0.0 0.0 0.0
353 1 36.7257654483 29.7254144719 0.0 0.0 0.0 0.0
354 1 39.6701654483 30.3315144719 0.0 0.0 0.0 0.0
355 1 47.3477654483 31.0679144719 0.0 0.0 0.0 0.0
356 1 51.5980654483 30.1557144719 0.0 0.0 0.0 0.0
357 1 58.4367654483 31.2233144719 0.0 0.0 0.0 0.0
358 1 62.1152654483 30.1547144719 0.0 0.0 0.0 0.0
359 1 66.4609654483 30.7160144719 0.0 0.0 0.0 0.0
360 1 71.2716654483 31.2741144719 0.0 0.0 0.0 0.0
361 1 2.71652544829 35.3736144719 0.0 0.0 0.0 0.0
362 1 8.19846544829 34.5028144719 0.0 0.0 0.0 0.0
363 1 13.2287654483 34.5189144719 0.0 0.0 0.0 0.0
364 1 16.2123654483 34.9259144719 0.0 0.0 0.0 0.0
365 1 23.9190654483 32.5527144719 0.0 0.0 0.0 0.0
366 1 27.9625654483 35.3402144719 0.0 0.0 0.0 0.0
367 1 32.4494654483 35.7101144719 0.0 0.0 0.0 0.0
368 1 35.3874654483 35.2124144719 0.0 0.0 0.0 0.0
369 1 44.0332654483 35.0500144719 0.0 0.0 0.0 0.0
370 1 48.9952654483 33.5837144719 0.0 0.0 0.0 0.0
371 1 54.3878654483 34.8840144719 0.0 0.0 0.0 0.0
372 1 60.9111654483 32.9050144719 0.0 0.0 0.0 0.0
373 1 64.3709654483 35.8252144719 0.0 0.0 0.0 0.0
374 1 69.5973654483 33.7796144719 0.0 0.0 0.0 0.0
375 1 74.4895654483 36.0076144719 0.0 0.0 0.0 0.0
376 1 0.465555448289 40.1457144719 0.0 0.0 0.0 0.0
377 1 5.22750544829 40.2904144719 0.0 0.0 0.0 0.0
378 1 8.21209544829 39.9865144719 0.0 0.0 0.0 0.0
379 1 14.8472654483 39.1945144719 0.0 0.0 0.0 0.0
380 1 20.2235654483 38.8780144719 0.0 0.0 0.0 0.0
381 1 25.3001654483 39.6560144719 0.0 0.0 0.0 0.0
382 1 30.0066654483 40.5959144719 0.0 0.0 0.0 0.0
383 1 32.9518654483 41.1495144719 0.0 0.0 0.0 0.0
384 1 39.7229654483 38.6505144719 0.0 0.0 0.0 0.0
385 1 46.2380654483 37.0902144719 0.0 0.0 0.0 0.0
386 1 51.4989654483 38.5164144719 0.0 0.0 0.0 0.0
387 1 56.9276654483 39.7769144719 0.0 0.0 0.0 0.0
388 1 62.0493654483 40.3036144719 0.0 0.0 0.0 0.0
389 1 67.3249654483 40.2390144719 0.0 0.0 0.0 0.0
390 1 72.4151654483 40.4476144719 0.0 0.0 0.0 0.0
391 1 2.44563544829 45.0078144719 0.0 0.0 0.0 0.0
392 1 7.50852544829 44.7435144719 0.0 0.0 0.0 0.0
393 1 12.3555654483 43.9168144719 0.0 0.0 0.0 0.0
394 1 17.4996654483 43.5438144719 0.0 0.0 0.0 0.0
395 1 22.2443654483 43.9509144719 0.0 0.0 0.0 0.0
396 1 26.9494654483 44.8519144719 0.0 0.0 0.0 0.0
397 1 32.1817654483 45.1262144719 0.0 0.0 0.0 0.0
398 1 39.9908654483 44.3833144719 0.0 0.0 0.0 0.0
399 1 43.7988654483 41.5983144719 0.0 0.0 0.0 0.0
400 1 49.3514654483 40.6424144719 0.0 0.0 0.0 0.0
401 1 54.7609654483 44.9509144719 0.0 0.0 0.0 0.0
402 1 59.2609654483 44.8337144719 0.0 0.0 0.0 0.0
403 1 64.3557654483 45.0155144719 0.0 0.0 0.0 0.0
404 1 69.3894654483 44.7261144719 0.0 0.0 0.0 0.0
405 1 74.8277654483 44.6420144719 0.0 0.0 0.0 0.0
406 1 77.0724654483 49.5053144719 0.0 0.0 0.0 0.0
407 1 5.11893544829 49.2355144719 0.0 0.0 0.0 0.0
408 1 10.4458654483 49.0151144719 0.0 0.0 0.0 0.0
409 1 15.1537654483 48.4950144719 0.0 0.0 0.0 0.0
410 1 19.9952654483 48.1478144719 0.0 0.0 0.0 0.0
411 1 24.8176654483 49.1219144719 0.0 0.0 0.0 0.0
412 1 30.1155654483 49.2625144719 0.0 0.0 0.0 0.0
413 1 35.8634654483 48.0474144719 0.0 0.0 0.0 0.0
414 1 42.1259654483 46.5078144719 0.0 0.0 0.0 0.0
415 1 47.1627654483 45.6099144719 0.0 0.0 0.0 0.0
416 1 51.5507654483 48.4494144719 0.0 0.0 0.0 0.0
417 1 57.1149654483 49.4970144719 0.0 0.0 0.0 0.0
418 1 61.7886654483 50.0180144719 0.0 0.0 0.0 0.0
419 1 66.8125654483 49.3004144719 0.0 0.0 0.0 0.0
420 1 72.0734654483 49.0259144719 0.0 0.0 0.0 0.0
421 1 2.78000544829 53.7928144719 0.0 0.0 0.0 0.0
422 1 8.21175544829 53.1896144719 0.0 0.0 0.0 0.0
423 1 13.3625654483 53.8337144719 0.0 0.0 0.0 0.0
424 1 17.8175654483 53.0745144719 0.0 0.0 0.0 0.0
425 1 22.4364654483 52.9986144719 0.0 0.0 0.0 0.0
426 1 29.9166654483 55.0066144719 0.0 0.0 0.0 0.0
427 1 33.8008654483 52.4043144719 0.0 0.0 0.0 0.0
428 1 40.7032654483 53.8436144719 0.0 0.0 0.0 0.0
429 1 43.0988654483 52.0636144719 0.0 0.0 0.0 0.0
430 1 49.0945654483 50.2599144719 0.0 0.0 0.0 0.0
431 1 54.4268654483 53.5712144719 0.0 0.0 0.0 0.0
432 1 59.1564654483 54.8017144719 0.0 0.0 0.0 0.0
433 1 66.1007654483 54.9097144719 0.0 0.0 0.0 0.0
434 1 70.1930654483 53.4292144719 0.0 0.0 0.0 0.0
435 1 75.7712654483 52.2166144719 0.0 0.0 0.0 0.0
436 1 2.06466544829 58.5887144719 0.0 0.0 0.0 0.0
437 1 6.88501544829 57.5585144719 0.0 0.0 0.0 0.0
438 1 11.6558654483 57.9173144719 0.0 0.0 0.0 0.0
439 1 16.8621654483 58.5193144719 0.0 0.0 0.0 0.0
440 1 21.4686654483 55.8264144719 0.0 0.0 0.0 0.0
441 1 26.5998654483 57.5968144719 0.0 0.0 0.0 0.0
442 1 31.8003654483 57.3369144719 0.0 0.0 0.0 0.0
443 1 36.8129654483 56.5432144719 0.0 0.0 0.0 0.0
444 1 41.8286654483 56.6189144719 0.0 0.0 0.0 0.0
445 1 47.0353654483 55.9060144719 0.0 0.0 0.0 0.0
446 1 51.5403654483 56.8079144719 0.0 0.0 0.0 0.0
447 1 57.9146654483 60.6125144719 0.0 0.0 0.0 0.0
448 1 62.1202654483 58.5609144719 0.0 0.0 0.0 0.0
449 1 68.8501654483 56.0955144719 0.0 0.0 0.0 0.0
450 1 75.4679654483 60.6011144719 0.0 0.0 0.0 0.0
451 1 5.35693544829 62.7093144719 0.0 0.0 0.0 0.0
452 1 10.3384654483 60.6120144719 0.0 0.0 0.0 0.0
453 1 12.9300654483 64.7911144719 0.0 0.0 0.0 0.0
454 1 18.4287654483 64.0024144719 0.0 0.0 0.0 0.0
455 1 21.4982654483 62.1185144719 0.0 0.0 0.0 0.0
456 1 28.9850654483 62.9549144719 0.0 0.0 0.0 0.0
457 1 31.9677654483 62.5083144719 0.0 0.0 0.0 0.0
458 1 38.7047654483 61.4865144719 0.0 0.0 0.0 0.0
459 1 43.7878654483 60.6960144719 0.0 0.0 0.0 0.0
460 1 47.9983654483 61.2533144719 0.0 0.0 0.0 0.0
461 1 52.8712654483 61.3352144719 0.0 0.0 0.0 0.0
462 1 60.6383654483 64.2878144719 0.0 0.0 0.0 0.0
463 1 65.1203654483 62.1865144719 0.0 0.0 0.0 0.0
464 1 70.4599654483 62.7216144719 0.0 0.0 0.0 0.0
465 1 0.0426054482886 62.9950144719 0.0 0.0 0.0 0.0
466 1 76.1484654483 67.4247144719 0.0 0.0 0.0 0.0
467 1 3.66675544829 67.7167144719 0.0 0.0 0.0 0.0
468 1 9.85386544829 69.0093144719 0.0 0.0 0.0 0.0
469 1 15.4591654483 68.3634144719 0.0 0.0 0.0 0.0
470 1 20.0924654483 66.5267144719 0.0 0.0 0.0 0.0
471 1 25.1722654483 66.5569144719 0.0 0.0 0.0 0.0
472 1 31.0045654483 66.9362144719 0.0 0.0 0.0 0.0
473 1 36.2177654483 66.2933144719 0.0 0.0 0.0 0.0
474 1 41.4434654483 65.7797144719 0.0 0.0 0.0 0.0
475 1 46.0895654483 65.4883144719 0.0 0.0 0.0 0.0
476 1 51.2691654483 65.9065144719 0.0 0.0 0.0 0.0
477 1 56.6580654483 63.3837144719 0.0 0.0 0.0 0.0
478 1 62.5772654483 66.5804144719 0.0 0.0 0.0 0.0
479 1 67.7472654483 66.7996144719 0.0 0.0 0.0 0.0
480 1 73.1693654483 67.1312144719 0.0 0.0 0.0 0.0
481 1 2.54246544829 71.7999144719 0.0 0.0 0.0 0.0
482 1 7.28115544829 72.6035144719 0.0 0.0 0.0 0.0
483 1 13.1176654483 72.9418144719 0.0 0.0 0.0 0.0
484 1 18.5885654483 71.9926144719 0.0 0.0 0.0 0.0
485 1 23.4042654483 69.0254144719 0.0 0.0 0.0 0.0
486 1 27.6877654483 71.8423144719 0.0 0.0 0.0 0.0
487 1 30.6768654483 71.4973144719 0.0 0.0 0.0 0.0
488 1 37.9891654483 71.4847144719 0.0 0.0 0.0 0.0
489 1 41.0071654483 71.1287144719 0.0 0.0 0.0 0.0
490 1 48.3478654483 69.9115144719 0.0 0.0 0.0 0.0
491 1 53.9945654483 70.2580144719 0.0 0.0 0.0 0.0
492 1 59.0091654483 70.6722144719 0.0 0.0 0.0 0.0
493 1 64.2737654483 71.1883144719 0.0 0.0 0.0 0.0
494 1 69.4785654483 71.1000144719 0.0 0.0 0.0 0.0
495 1 74.7348654483 71.6219144719 0.0 0.0 0.0 0.0
496 1 77.2877654483 76.1897144719 0.0 0.0 0.0 0.0
497 1 4.71619544829 76.9040144719 0.0 0.0 0.0 0.0
498 1 9.39366544829 77.9514144719 0.0 0.0 0.0 0.0
499 1 12.4654654483 77.6000144719 0.0 0.0 0.0 0.0
500 1 20.5728654483 76.0423144719 0.0 0.0 0.0 0.0
501 1 25.3806654483 76.1261144719 0.0 0.0 0.0 0.0
502 1 31.0258654483 74.4733144719 0.0 0.0 0.0 0.0
503 1 35.7078654483 76.6854144719 0.0 0.0 0.0 0.0
504 1 40.5125654483 75.9406144719 0.0 0.0 0.0 0.0
505 1 45.4887654483 74.5572144719 0.0 0.0 0.0 0.0
506 1 50.6993654483 74.3720144719 0.0 0.0 0.0 0.0
507 1 56.1337654483 74.9911144719 0.0 0.0 0.0 0.0
508 1 61.5479654483 75.1378144719 0.0 0.0 0.0 0.0
509 1 67.0008654483 75.7658144719 0.0 0.0 0.0 0.0
510 1 72.0046654483 75.6825144719 0.0 0.0 0.0 0.0
511 1 4.68934544829 81.7612144719 0.0 0.0 0.0 0.0
512 1 8.90496544829 0.78250747187 0.0 0.0 0.0 0.0
513 1 14.0915654483 80.1453144719 0.0 0.0 0.0 0.0
514 1 21.9616654483 78.7480144719 0.0 0.0 0.0 0.0
515 1 24.9992654483 79.0880144719 0.0 0.0 0.0 0.0
516 1 30.9124654483 79.3876144719 0.0 0.0 0.0 0.0
517 1 36.1375654483 79.6677144719 0.0 0.0 0.0 0.0
518 1 41.1827654483 78.9074144719 0.0 0.0 0.0 0.0
519 1 46.1369654483 77.5182144719 0.0 0.0 0.0 0.0
520 1 51.0961654483 79.2642144719 0.0 0.0 0.0 0.0
521 1 56.7214654483 77.9798144719 0.0 0.0 0.0 0.0
522 1 62.0609654483 78.1048144719 0.0 0.0 0.0 0.0
523 1 68.8621654483 78.1497144719 0.0 0.0 0.0 0.0
524 1 71.8347654483 78.6630144719 0.0 0.0 0.0 0.0
525 1 77.2521654483 79.1744144719 0.0 0.0 0.0 0.0
526 1 2.94355544829 79.3390144719 0.0 0.0 0.0 0.0
527 1 7.36622544829 80.2679144719 0.0 0.0 0.0 0.0
528 1 11.8376654483 0.11451047187 0.0 0.0 0.0 0.0
529 1 16.9250654483 81.2504144719 0.0 0.0 0.0 0.0
530 1 19.9853654483 81.0382144719 0.0 0.0 0.0 0.0
531 1 27.9155654483 80.0067144719 0.0 0.0 0.0 0.0
532 1 33.4433654483 81.0543144719 0.0 0.0 0.0 0.0
533 1 38.8935654483 80.9115144719 0.0 0.0 0.0 0.0
534 1 44.0872654483 79.8065144719 0.0 0.0 0.0 0.0
535 1 49.1391654483 76.9828144719 0.0 0.0 0.0 0.0
536 1 54.1052654483 79.4990144719 0.0 0.0 0.0 0.0
537 1 59.3845654483 79.4832144719 0.0 0.0 0.0 0.0
538 1 64.4462654483 79.9797144719 0.0 0.0 0.0 0.0
539 1 67.3539654483 80.7134144719 0.0 0.0 0.0 0.0
540 1 74.4294654483 80.2132144719 0.0 0.0 0.0 0.0
541 2 3.80194544829 0.96853447187 0.0 0.0 0.0 0.0
542 2 3.75330544829 3.41134447187 0.0 0.0 0.0 0.0
543 2 1.34919544829 2.45490447187 0.0 0.0 0.0 0.0
544 2 8.14604544829 2.08508447187 0.0 0.0 0.0 0.0
545 2 6.17829544829 4.06246447187 0.0 0.0 0.0 0.0
546 2 8.93567544829 4.16236447187 0.0 0.0 0.0 0.0
547 2 11.6446654483 3.89447447187 0.0 0.0 0.0 0.0
548 2 14.2652654483 2.54009447187 0.0 0.0 0.0 0.0
549 2 12.3094654483 1.53103447187 0.0 0.0 0.0 0.0
550 2 16.5406654483 3.14272447187 0.0 0.0 0.0 0.0
551 2 18.8628654483 3.91742447187 0.0 0.0 0.0 0.0
552 2 16.8464654483 5.72802447187 0.0 0.0 0.0 0.0
553 2 21.0470654483 0.0894974718701 0.0 0.0 0.0 0.0
554 2 23.5823654483 1.53222447187 0.0 0.0 0.0 0.0
555 2 21.2148654483 2.41573447187 0.0 0.0 0.0 0.0
556 2 27.8888654483 81.5099144719 0.0 0.0 0.0 0.0
557 2 29.1810654483 1.64219447187 0.0 0.0 0.0 0.0
558 2 26.3919654483 1.45517447187 0.0 0.0 0.0 0.0
559 2 33.4916654483 0.51515747187 0.0 0.0 0.0 0.0
560 2 34.8076654483 2.75299447187 0.0 0.0 0.0 0.0
561 2 31.9696654483 2.31797447187 0.0 0.0 0.0 0.0
562 2 38.8714654483 0.38376547187 0.0 0.0 0.0 0.0
563 2 40.2563654483 2.45169447187 0.0 0.0 0.0 0.0
564 2 37.5157654483 2.67357447187 0.0 0.0 0.0 0.0
565 2 44.0972654483 81.3447144719 0.0 0.0 0.0 0.0
566 2 45.1456654483 1.81186447187 0.0 0.0 0.0 0.0
567 2 42.7897654483 1.77226447187 0.0 0.0 0.0 0.0
568 2 49.7990654483 1.48469447187 0.0 0.0 0.0 0.0
569 2 50.5931654483 80.6967144719 0.0 0.0 0.0 0.0
570 2 52.0067654483 0.37036747187 0.0 0.0 0.0 0.0
571 2 54.0127654483 81.0167144719 0.0 0.0 0.0 0.0
572 2 53.9017654483 1.82975447187 0.0 0.0 0.0 0.0
573 2 60.0800654483 80.8499144719 0.0 0.0 0.0 0.0
574 2 60.5701654483 1.44995447187 0.0 0.0 0.0 0.0
575 2 62.4316654483 0.49066747187 0.0 0.0 0.0 0.0
576 2 64.2074654483 81.4607144719 0.0 0.0 0.0 0.0
577 2 64.9481654483 1.98879447187 0.0 0.0 0.0 0.0
578 2 68.0972654483 82.0178144719 0.0 0.0 0.0 0.0
579 2 70.2414654483 1.60927447187 0.0 0.0 0.0 0.0
580 2 67.5044654483 2.19860447187 0.0 0.0 0.0 0.0
581 2 74.5477654483 81.7042144719 0.0 0.0 0.0 0.0
582 2 73.1461654483 1.51629447187 0.0 0.0 0.0 0.0
583 2 75.9347654483 1.91094447187 0.0 0.0 0.0 0.0
584 2 75.6449654483 6.81957447187 0.0 0.0 0.0 0.0
585 2 77.1984654483 8.77721447187 0.0 0.0 0.0 0.0
586 2 74.6916654483 9.38930447187 0.0 0.0 0.0 0.0
587 2 4.23764544829 5.99780447187 0.0 0.0 0.0 0.0
588 2 4.58267544829 8.69782447187 0.0 0.0 0.0 0.0
589 2 2.44512544829 8.20299447187 0.0 0.0 0.0 0.0
590 2 10.3386654483 6.17051447187 0.0 0.0 0.0 0.0
591 2 11.2994654483 8.71967447187 0.0 0.0 0.0 0.0
592 2 9.09836544829 8.63502447187 0.0 0.0 0.0 0.0
593 2 17.8943654483 7.83560447187 0.0 0.0 0.0 0.0
594 2 15.6817654483 8.43271447187 0.0 0.0 0.0 0.0
595 2 20.9149654483 4.99980447187 0.0 0.0 0.0 0.0
596 2 22.7872654483 6.79737447187 0.0 0.0 0.0 0.0
597 2 20.3435654483 7.53484447187 0.0 0.0 0.0 0.0
598 2 25.4185654483 3.53976447187 0.0 0.0 0.0 0.0