ITEM: TIMESTEP
0
ITEM: NUMBER OF ATOMS
1350
ITEM: BOX BOUNDS xy xz yz pp pp pp
0.0 77.5211241665 0
0.0 82.1174633837 0
-10.0 10.0 0
ITEM: ATOMS id type x y z vx vy vz
1 1 5.1289598601 1.22514169186 0.0 0.0 0.0 0.0
2 1 8.1495398601 1.35479169186 0.0 0.0 0.0 0.0
3 1 13.2359998601 2.20383169186 0.0 0.0 0.0 0.0
4 1 18.4351998601 2.48097169186 0.0 0.0 0.0 0.0
5 1 24.1842998601 1.81525169186 0.0 0.0 0.0 0.0
6 1 29.9131998601 1.32368169186 0.0 0.0 0.0 0.0
7 1 36.6913998601 0.906101691862 0.0 0.0 0.0 0.0
8 1 39.6910998601 1.03806169186 0.0 0.0 0.0 0.0
9 1 44.1106998601 0.982781691862 0.0 0.0 0.0 0.0
10 1 49.7701998601 0.378788691862 0.0 0.0 0.0 0.0
11 1 54.7978998601 1.85386169186 0.0 0.0 0.0 0.0
12 1 62.5844998601 1.15087169186 0.0 0.0 0.0 0.0
13 1 65.5562998601 1.58892169186 0.0 0.0 0.0 0.0
14 1 70.6585998601 1.78511169186 0.0 0.0 0.0 0.0
15 1 76.0134998601 1.54452169186 0.0 0.0 0.0 0.0
16 1 0.909849860102 6.34076169186 0.0 0.0 0.0 0.0
17 1 5.6958798601 6.52422169186 0.0 0.0 0.0 0.0
18 1 10.6548998601 6.34204169186 0.0 0.0 0.0 0.0
19 1 14.5709998601 9.09147169186 0.0 0.0 0.0 0.0
20 1 21.7454998601 6.06208169186 0.0 0.0 0.0 0.0
21 1 28.6586998601 5.13604169186 0.0 0.0 0.0 0.0
22 1 31.5922998601 5.71961169186 0.0 0.0 0.0 0.0
23 1 36.7140998601 6.37463169186 0.0 0.0 0.0 0.0
24 1 42.1083998601 6.07897169186 0.0 0.0 0.0 0.0
25 1 47.3542998601 4.61924169186 0.0 0.0 0.0 0.0
26 1 51.9438998601 5.54673169186 0.0 0.0 0.0 0.0
27 1 55.6296998601 4.75168169186 0.0 0.0 0.0 0.0
28 1 62.4058998601 6.41545169186 0.0 0.0 0.0 0.0
29 1 67.7503998601 6.27048169186 0.0 0.0 0.0 0.0
30 1 73.3656998601 6.15312169186 0.0 0.0 0.0 0.0
31 1 3.0320098601 11.2426316919 0.0 0.0 0.0 0.0
32 1 7.9899798601 11.3118316919 0.0 0.0 0.0 0.0
33 1 13.2601998601 11.7845316919 0.0 0.0 0.0 0.0
34 1 17.0683998601 10.7415316919 0.0 0.0 0.0 0.0
35 1 23.5878998601 10.0978316919 0.0 0.0 0.0 0.0
36 1 29.7187998601 12.7593316919 0.0 0.0 0.0 0.0
37 1 34.9174998601 10.3848316919 0.0 0.0 0.0 0.0
38 1 38.5787998601 8.78472169186 0.0 0.0 0.0 0.0
39 1 45.6252998601 9.45593169186 0.0 0.0 0.0 0.0
40 1 49.4316998601 12.6807316919 0.0 0.0 0.0 0.0
41 1 54.4703998601 10.4766316919 0.0 0.0 0.0 0.0
42 1 59.5417998601 10.9098316919 0.0 0.0 0.0 0.0
43 1 64.8074998601 10.6374316919 0.0 0.0 0.0 0.0
44 1 69.1030998601 8.94192169186 0.0 0.0 0.0 0.0
45 1 75.9844998601 10.8319316919 0.0 0.0 0.0 0.0
46 1 0.377539860102 15.9617316919 0.0 0.0 0.0 0.0
47 1 5.3741398601 15.9971316919 0.0 0.0 0.0 0.0
48 1 8.9757298601 14.2038316919 0.0 0.0 0.0 0.0
49 1 16.4076998601 16.3315316919 0.0 0.0 0.0 0.0
50 1 21.1310998601 14.4951316919 0.0 0.0 0.0 0.0
51 1 25.1372998601 12.6411316919 0.0 0.0 0.0 0.0
52 1 33.1298998601 15.2110316919 0.0 0.0 0.0 0.0
53 1 37.9919998601 14.6572316919 0.0 0.0 0.0 0.0
54 1 44.7764998601 14.2392316919 0.0 0.0 0.0 0.0
55 1 47.6912998601 15.1432316919 0.0 0.0 0.0 0.0
56 1 52.4085998601 15.7050316919 0.0 0.0 0.0 0.0
57 1 57.5267998601 15.2324316919 0.0 0.0 0.0 0.0
58 1 62.5036998601 15.1718316919 0.0 0.0 0.0 0.0
59 1 67.9260998601 14.5522316919 0.0 0.0 0.0 0.0
60 1 73.1895998601 14.7536316919 0.0 0.0 0.0 0.0
61 1 2.6597698601 20.6599316919 0.0 0.0 0.0 0.0
62 1 9.3132998601 19.9777316919 0.0 0.0 0.0 0.0
63 1 12.3150998601 19.7681316919 0.0 0.0 0.0 0.0
64 1 19.8619998601 19.8560316919 0.0 0.0 0.0 0.0
65 1 25.9003998601 17.7491316919 0.0 0.0 0.0 0.0
66 1 28.8446998601 18.3505316919 0.0 0.0 0.0 0.0
67 1 34.2363998601 19.2638316919 0.0 0.0 0.0 0.0
68 1 39.0638998601 19.6290316919 0.0 0.0 0.0 0.0
69 1 43.5622998601 19.7293316919 0.0 0.0 0.0 0.0
70 1 50.7771998601 20.1942316919 0.0 0.0 0.0 0.0
71 1 55.6036998601 19.9627316919 0.0 0.0 0.0 0.0
72 1 60.7127998601 19.8341316919 0.0 0.0 0.0 0.0
73 1 65.3071998601 19.0936316919 0.0 0.0 0.0 0.0
74 1 70.5755998601 19.0797316919 0.0 0.0 0.0 0.0
75 1 75.0051998601 20.1220316919 0.0 0.0 0.0 0.0
76 1 1.0964098601 24.6526316919 0.0 0.0 0.0 0.0
77 1 3.8352098601 23.4231316919 0.0 0.0 0.0 0.0
78 1 10.4260998601 25.7366316919 0.0 0.0 0.0 0.0
79 1 14.9864998601 24.5878316919 0.0 0.0 0.0 0.0
80 1 17.6679998601 21.8833316919 0.0 0.0 0.0 0.0
81 1 26.0559998601 23.3797316919 0.0 0.0 0.0 0.0
82 1 30.9552998601 23.0308316919 0.0 0.0 0.0 0.0
83 1 35.9676998601 24.1539316919 0.0 0.0 0.0 0.0
84 1 40.4584998601 24.5841316919 0.0 0.0 0.0 0.0
85 1 45.2865998601 24.6594316919 0.0 0.0 0.0 0.0
86 1 48.7169998601 22.3752316919 0.0 0.0 0.0 0.0
87 1 57.8746998601 24.4333316919 0.0 0.0 0.0 0.0
88 1 64.8202998601 23.9522316919 0.0 0.0 0.0 0.0
89 1 67.7916998601 23.4790316919 0.0 0.0 0.0 0.0
90 1 71.6465998601 26.9414316919 0.0 0.0 0.0 0.0
91 1 1.8963798601 29.9990316919 0.0 0.0 0.0 0.0
92 1 7.7379398601 30.4128316919 0.0 0.0 0.0 0.0
93 1 15.3781998601 29.0803316919 0.0 0.0 0.0 0.0
94 1 19.5925998601 27.4093316919 0.0 0.0 0.0 0.0
95 1 22.5940998601 27.4082316919 0.0 0.0 0.0 0.0
96 1 29.1993998601 27.8480316919 0.0 0.0 0.0 0.0
97 1 32.1869998601 27.9331316919 0.0 0.0 0.0 0.0
98 1 37.0205998601 29.1910316919 0.0 0.0 0.0 0.0
99 1 43.2766998601 29.3455316919 0.0 0.0 0.0 0.0
100 1 48.8590998601 28.2709316919 0.0 0.0 0.0 0.0
101 1 54.2990998601 27.4372316919 0.0 0.0 0.0 0.0
102 1 59.6142998601 29.1717316919 0.0 0.0 0.0 0.0
103 1 64.3327998601 29.3781316919 0.0 0.0 0.0 0.0
104 1 69.5159998601 29.1099316919 0.0 0.0 0.0 0.0
105 1 74.4536998601 30.4744316919 0.0 0.0 0.0 0.0
106 1 77.2534998601 34.8291316919 0.0 0.0 0.0 0.0
107 1 3.3874898601 32.6440316919 0.0 0.0 0.0 0.0
108 1 9.8168998601 34.6746316919 0.0 0.0 0.0 0.0
109 1 14.7264998601 33.9458316919 0.0 0.0 0.0 0.0
110 1 20.3230998601 32.3578316919 0.0 0.0 0.0 0.0
111 1 23.3404998601 32.4720316919 0.0 0.0 0.0 0.0
112 1 28.3120998601 33.1788316919 0.0 0.0 0.0 0.0
113 1 33.5737998601 33.1130316919 0.0 0.0 0.0 0.0
114 1 38.3373998601 31.8918316919 0.0 0.0 0.0 0.0
115 1 45.5308998601 32.7264316919 0.0 0.0 0.0 0.0
116 1 53.0752998601 31.7879316919 0.0 0.0 0.0 0.0
117 1 56.0545998601 32.3097316919 0.0 0.0 0.0 0.0
118 1 61.6356998601 34.1453316919 0.0 0.0 0.0 0.0
119 1 68.0212998601 33.6737316919 0.0 0.0 0.0 0.0
120 1 70.4413998601 31.9446316919 0.0 0.0 0.0 0.0
121 1 2.3034798601 38.5973316919 0.0 0.0 0.0 0.0
122 1 7.0375698601 39.0875316919 0.0 0.0 0.0 0.0
123 1 13.5523998601 38.7163316919 0.0 0.0 0.0 0.0
124 1 16.5180998601 38.4865316919 0.0 0.0 0.0 0.0
125 1 20.9647998601 38.2940316919 0.0 0.0 0.0 0.0
126 1 26.0068998601 37.4766316919 0.0 0.0 0.0 0.0
127 1 31.1791998601 37.6417316919 0.0 0.0 0.0 0.0
128 1 36.5945998601 37.1982316919 0.0 0.0 0.0 0.0
129 1 42.0005998601 37.0820316919 0.0 0.0 0.0 0.0
130 1 46.5565998601 37.2429316919 0.0 0.0 0.0 0.0
131 1 51.4821998601 36.5849316919 0.0 0.0 0.0 0.0
132 1 57.8351998601 36.8818316919 0.0 0.0 0.0 0.0
133 1 62.8009998601 39.1596316919 0.0 0.0 0.0 0.0
134 1 66.3520998601 37.9882316919 0.0 0.0 0.0 0.0
135 1 74.0866998601 38.7658316919 0.0 0.0 0.0 0.0
136 1 76.6523998601 42.6267316919 0.0 0.0 0.0 0.0
137 1 4.2522198601 43.7407316919 0.0 0.0 0.0 0.0
138 1 9.3226998601 44.2616316919 0.0 0.0 0.0 0.0
139 1 14.4083998601 43.3546316919 0.0 0.0 0.0 0.0
140 1 19.6315998601 45.1234316919 0.0 0.0 0.0 0.0
141 1 24.5799998601 42.3316316919 0.0 0.0 0.0 0.0
142 1 29.5170998601 44.3022316919 0.0 0.0 0.0 0.0
143 1 34.5565998601 41.7111316919 0.0 0.0 0.0 0.0
144 1 39.8179998601 41.4472316919 0.0 0.0 0.0 0.0
145 1 44.7381998601 42.0879316919 0.0 0.0 0.0 0.0
146 1 50.9923998601 40.9277316919 0.0 0.0 0.0 0.0
147 1 53.2293998601 38.9793316919 0.0 0.0 0.0 0.0
148 1 59.5709998601 44.1805316919 0.0 0.0 0.0 0.0
149 1 64.0175998601 41.8985316919 0.0 0.0 0.0 0.0
150 1 71.2569998601 41.8437316919 0.0 0.0 0.0 0.0
151 1 0.590909860102 49.8923316919 0.0 0.0 0.0 0.0
152 1 7.4904698601 48.5335316919 0.0 0.0 0.0 0.0
153 1 13.0136998601 48.2294316919 0.0 0.0 0.0 0.0
154 1 18.5048998601 47.9201316919 0.0 0.0 0.0 0.0
155 1 23.5583998601 47.4956316919 0.0 0.0 0.0 0.0
156 1 29.0707998601 47.2870316919 0.0 0.0 0.0 0.0
157 1 33.8682998601 46.5699316919 0.0 0.0 0.0 0.0
158 1 38.4749998601 45.7919316919 0.0 0.0 0.0 0.0
159 1 42.6539998601 49.1889316919 0.0 0.0 0.0 0.0
160 1 47.4380998601 46.8065316919 0.0 0.0 0.0 0.0
161 1 52.5120998601 45.7368316919 0.0 0.0 0.0 0.0
162 1 58.1778998601 46.8186316919 0.0 0.0 0.0 0.0
163 1 63.3664998601 47.4028316919 0.0 0.0 0.0 0.0
164 1 68.9538998601 46.4583316919 0.0 0.0 0.0 0.0
165 1 74.0954998601 46.5152316919 0.0 0.0 0.0 0.0
166 1 76.5954998601 52.4825316919 0.0 0.0 0.0 0.0
167 1 3.1258998601 51.5034316919 0.0 0.0 0.0 0.0
168 1 10.6479998601 52.5673316919 0.0 0.0 0.0 0.0
169 1 15.9452998601 52.3543316919 0.0 0.0 0.0 0.0
170 1 21.1509998601 52.3341316919 0.0 0.0 0.0 0.0
171 1 26.2195998601 51.6077316919 0.0 0.0 0.0 0.0
172 1 33.6983998601 50.9846316919 0.0 0.0 0.0 0.0
173 1 36.7195998601 51.0277316919 0.0 0.0 0.0 0.0
174 1 42.0199998601 52.1528316919 0.0 0.0 0.0 0.0
175 1 47.2810998601 51.7432316919 0.0 0.0 0.0 0.0
176 1 51.8263998601 50.3073316919 0.0 0.0 0.0 0.0
177 1 56.6246998601 52.5048316919 0.0 0.0 0.0 0.0
178 1 61.6494998601 53.4215316919 0.0 0.0 0.0 0.0
179 1 66.7082998601 50.9735316919 0.0 0.0 0.0 0.0
180 1 72.0018998601 51.1207316919 0.0 0.0 0.0 0.0
181 1 1.8836998601 57.0817316919 0.0 0.0 0.0 0.0
182 1 7.5638198601 56.6736316919 0.0 0.0 0.0 0.0
183 1 13.1406998601 56.8991316919 0.0 0.0 0.0 0.0
184 1 18.6416998601 56.8905316919 0.0 0.0 0.0 0.0
185 1 23.5190998601 56.5589316919 0.0 0.0 0.0 0.0
186 1 28.2629998601 55.6621316919 0.0 0.0 0.0 0.0
187 1 33.2443998601 56.0987316919 0.0 0.0 0.0 0.0
188 1 38.1302998601 55.8345316919 0.0 0.0 0.0 0.0
189 1 46.8889998601 55.6216316919 0.0 0.0 0.0 0.0
190 1 52.2608998601 54.9362316919 0.0 0.0 0.0 0.0
191 1 55.2980998601 55.2298316919 0.0 0.0 0.0 0.0
192 1 60.3071998601 56.1031316919 0.0 0.0 0.0 0.0
193 1 66.4420998601 55.5624316919 0.0 0.0 0.0 0.0
194 1 69.4356998601 55.4682316919 0.0 0.0 0.0 0.0
195 1 73.9206998601 56.6328316919 0.0 0.0 0.0 0.0
196 1 76.7001998601 61.1958316919 0.0 0.0 0.0 0.0
197 1 5.0378598601 60.9336316919 0.0 0.0 0.0 0.0
198 1 10.4174998601 60.9920316919 0.0 0.0 0.0 0.0
199 1 16.0985998601 61.1473316919 0.0 0.0 0.0 0.0
200 1 21.6168998601 61.4945316919 0.0 0.0 0.0 0.0
201 1 29.7305998601 62.4379316919 0.0 0.0 0.0 0.0
202 1 28.5800998601 59.6813316919 0.0 0.0 0.0 0.0
203 1 34.9336998601 60.6816316919 0.0 0.0 0.0 0.0
204 1 39.6509998601 60.6336316919 0.0 0.0 0.0 0.0
205 1 43.3151998601 58.6017316919 0.0 0.0 0.0 0.0
206 1 51.0926998601 61.8169316919 0.0 0.0 0.0 0.0
207 1 58.6620998601 60.1120316919 0.0 0.0 0.0 0.0
208 1 61.5387998601 61.0687316919 0.0 0.0 0.0 0.0
209 1 66.6751998601 61.0887316919 0.0 0.0 0.0 0.0
210 1 71.1763998601 63.2405316919 0.0 0.0 0.0 0.0
211 1 2.9519298601 64.7800316919 0.0 0.0 0.0 0.0
212 1 8.2206298601 65.3774316919 0.0 0.0 0.0 0.0
213 1 13.4512998601 65.1184316919 0.0 0.0 0.0 0.0
214 1 18.6156998601 65.5829316919 0.0 0.0 0.0 0.0
215 1 23.4153998601 66.2818316919 0.0 0.0 0.0 0.0
216 1 28.2481998601 66.5805316919 0.0 0.0 0.0 0.0
217 1 33.4356998601 65.7335316919 0.0 0.0 0.0 0.0
218 1 38.3782998601 65.3332316919 0.0 0.0 0.0 0.0
219 1 43.7498998601 64.1832316919 0.0 0.0 0.0 0.0
220 1 49.4724998601 64.3537316919 0.0 0.0 0.0 0.0
221 1 53.9112998601 65.5280316919 0.0 0.0 0.0 0.0
222 1 58.6485998601 65.1893316919 0.0 0.0 0.0 0.0
223 1 63.8704998601 65.7339316919 0.0 0.0 0.0 0.0
224 1 69.5183998601 65.8104316919 0.0 0.0 0.0 0.0
225 1 75.0340998601 65.8723316919 0.0 0.0 0.0 0.0
226 1 0.969629860102 69.3661316919 0.0 0.0 0.0 0.0
227 1 4.8345698601 71.9899316919 0.0 0.0 0.0 0.0
228 1 12.6359998601 69.2576316919 0.0 0.0 0.0 0.0
229 1 15.6067998601 69.8727316919 0.0 0.0 0.0 0.0
230 1 20.6507998601 70.7147316919 0.0 0.0 0.0 0.0
231 1 26.0037998601 71.1858316919 0.0 0.0 0.0 0.0
232 1 31.4097998601 70.6143316919 0.0 0.0 0.0 0.0
233 1 36.7489998601 70.1912316919 0.0 0.0 0.0 0.0
234 1 43.2331998601 68.2867316919 0.0 0.0 0.0 0.0
235 1 46.2398998601 68.1351316919 0.0 0.0 0.0 0.0
236 1 51.4554998601 69.7870316919 0.0 0.0 0.0 0.0
237 1 56.7722998601 70.1550316919 0.0 0.0 0.0 0.0
238 1 61.6215998601 72.1499316919 0.0 0.0 0.0 0.0
239 1 66.7773998601 69.9336316919 0.0 0.0 0.0 0.0
240 1 71.0352998601 68.4282316919 0.0 0.0 0.0 0.0
241 1 3.3888498601 74.6296316919 0.0 0.0 0.0 0.0
242 1 8.4428398601 75.0207316919 0.0 0.0 0.0 0.0
243 1 13.2415998601 76.8410316919 0.0 0.0 0.0 0.0
244 1 18.4714998601 74.9000316919 0.0 0.0 0.0 0.0
245 1 23.6163998601 75.3186316919 0.0 0.0 0.0 0.0
246 1 29.1311998601 75.2068316919 0.0 0.0 0.0 0.0
247 1 34.5877998601 74.7733316919 0.0 0.0 0.0 0.0
248 1 40.1207998601 74.6974316919 0.0 0.0 0.0 0.0
249 1 44.5382998601 73.0695316919 0.0 0.0 0.0 0.0
250 1 49.8642998601 74.9563316919 0.0 0.0 0.0 0.0
251 1 54.9395998601 76.3954316919 0.0 0.0 0.0 0.0
252 1 60.5662998601 74.9854316919 0.0 0.0 0.0 0.0
253 1 65.9432998601 74.8086316919 0.0 0.0 0.0 0.0
254 1 70.8513998601 73.8124316919 0.0 0.0 0.0 0.0
255 1 76.1042998601 74.0468316919 0.0 0.0 0.0 0.0
256 1 0.986839860102 3.34215169186 0.0 0.0 0.0 0.0
257 1 3.9722498601 3.98979169186 0.0 0.0 0.0 0.0
258 1 10.4299998601 3.33418169186 0.0 0.0 0.0 0.0
259 1 15.7136998601 3.91597169186 0.0 0.0 0.0 0.0
260 1 21.4136998601 3.08465169186 0.0 0.0 0.0 0.0
261 1 27.1419998601 2.54471169186 0.0 0.0 0.0 0.0
262 1 32.5198998601 2.87911169186 0.0 0.0 0.0 0.0
263 1 35.4515998601 3.62445169186 0.0 0.0 0.0 0.0
264 1 41.9138998601 3.06166169186 0.0 0.0 0.0 0.0
265 1 47.0448998601 1.63774169186 0.0 0.0 0.0 0.0
266 1 51.8777998601 2.53001169186 0.0 0.0 0.0 0.0
267 1 58.5548998601 5.25337169186 0.0 0.0 0.0 0.0
268 1 61.1097998601 3.73397169186 0.0 0.0 0.0 0.0
269 1 68.0447998601 3.28519169186 0.0 0.0 0.0 0.0
270 1 73.3932998601 3.10856169186 0.0 0.0 0.0 0.0
271 1 3.2373198601 8.24383169186 0.0 0.0 0.0 0.0
272 1 8.2424198601 8.22946169186 0.0 0.0 0.0 0.0
273 1 13.7036998601 6.21575169186 0.0 0.0 0.0 0.0
274 1 20.8573998601 8.91538169186 0.0 0.0 0.0 0.0
275 1 24.4814998601 7.25488169186 0.0 0.0 0.0 0.0
276 1 27.3941998601 7.82262169186 0.0 0.0 0.0 0.0
277 1 33.9605998601 7.55678169186 0.0 0.0 0.0 0.0
278 1 41.5684998601 9.06637169186 0.0 0.0 0.0 0.0
279 1 45.0534998601 6.51488169186 0.0 0.0 0.0 0.0
280 1 49.2953998601 6.89989169186 0.0 0.0 0.0 0.0
281 1 54.2695998601 7.44282169186 0.0 0.0 0.0 0.0
282 1 59.8407998601 7.94078169186 0.0 0.0 0.0 0.0
283 1 65.1068998601 7.65812169186 0.0 0.0 0.0 0.0
284 1 72.0824998601 8.89363169186 0.0 0.0 0.0 0.0
285 1 75.8527998601 7.83139169186 0.0 0.0 0.0 0.0
286 1 0.575049860102 12.9572316919 0.0 0.0 0.0 0.0
287 1 5.4740998601 12.9689316919 0.0 0.0 0.0 0.0
288 1 11.9398998601 14.4508316919 0.0 0.0 0.0 0.0
289 1 15.7664998601 13.4123316919 0.0 0.0 0.0 0.0
290 1 19.8802998601 11.7375316919 0.0 0.0 0.0 0.0
291 1 27.4919998601 10.8051316919 0.0 0.0 0.0 0.0
292 1 32.6416998601 12.2794316919 0.0 0.0 0.0 0.0
293 1 37.6293998601 11.6498316919 0.0 0.0 0.0 0.0
294 1 43.4318998601 11.4896316919 0.0 0.0 0.0 0.0
295 1 48.5862998601 9.80887169186 0.0 0.0 0.0 0.0
296 1 52.4274998601 12.6984316919 0.0 0.0 0.0 0.0
297 1 56.8851998601 12.2858316919 0.0 0.0 0.0 0.0
298 1 62.2461998601 12.1920316919 0.0 0.0 0.0 0.0
299 1 67.6489998601 11.5668316919 0.0 0.0 0.0 0.0
300 1 73.1385998601 11.7300316919 0.0 0.0 0.0 0.0
301 1 2.8648698601 17.6558316919 0.0 0.0 0.0 0.0
302 1 8.1503698601 17.1404316919 0.0 0.0 0.0 0.0
303 1 13.4996998601 17.0197316919 0.0 0.0 0.0 0.0
304 1 19.3441998601 16.9077316919 0.0 0.0 0.0 0.0
305 1 24.0063998601 15.4062316919 0.0 0.0 0.0 0.0
306 1 30.1927998601 15.6972316919 0.0 0.0 0.0 0.0
307 1 35.7314998601 16.6518316919 0.0 0.0 0.0 0.0
308 1 40.0955998601 16.7972316919 0.0 0.0 0.0 0.0
309 1 43.0992998601 16.7506316919 0.0 0.0 0.0 0.0
310 1 49.8443998601 17.2949316919 0.0 0.0 0.0 0.0
311 1 55.1107998601 17.0059316919 0.0 0.0 0.0 0.0
312 1 60.0479998601 16.8927316919 0.0 0.0 0.0 0.0
313 1 65.3515998601 16.0994316919 0.0 0.0 0.0 0.0
314 1 70.5057998601 16.0813316919 0.0 0.0 0.0 0.0
315 1 75.1123998601 17.0929316919 0.0 0.0 0.0 0.0
316 1 77.4417998601 21.8895316919 0.0 0.0 0.0 0.0
317 1 6.5562798601 24.7007316919 0.0 0.0 0.0 0.0
318 1 9.0540098601 23.0216316919 0.0 0.0 0.0 0.0
319 1 14.6820998601 21.6188316919 0.0 0.0 0.0 0.0
320 1 22.2158998601 21.6979316919 0.0 0.0 0.0 0.0
321 1 24.9884998601 20.5924316919 0.0 0.0 0.0 0.0
322 1 31.3239998601 20.0531316919 0.0 0.0 0.0 0.0
323 1 36.5088998601 21.2043316919 0.0 0.0 0.0 0.0
324 1 41.2547998601 21.6696316919 0.0 0.0 0.0 0.0
325 1 45.8003998601 21.7104316919 0.0 0.0 0.0 0.0
326 1 53.2993998601 21.8768316919 0.0 0.0 0.0 0.0
327 1 58.2016998601 21.4564316919 0.0 0.0 0.0 0.0
328 1 63.3186998601 21.3356316919 0.0 0.0 0.0 0.0
329 1 67.9433998601 20.4884316919 0.0 0.0 0.0 0.0
330 1 72.3386998601 21.5059316919 0.0 0.0 0.0 0.0
331 1 0.146049860102 27.5082316919 0.0 0.0 0.0 0.0
332 1 7.9027098601 27.3900316919 0.0 0.0 0.0 0.0
333 1 13.1965998601 26.9671316919 0.0 0.0 0.0 0.0
334 1 17.9673998601 24.8697316919 0.0 0.0 0.0 0.0
335 1 23.2822998601 24.4927316919 0.0 0.0 0.0 0.0
336 1 28.6211998601 24.9069316919 0.0 0.0 0.0 0.0
337 1 33.1274998601 25.0870316919 0.0 0.0 0.0 0.0
338 1 38.0131998601 26.3396316919 0.0 0.0 0.0 0.0
339 1 42.8425998601 26.3863316919 0.0 0.0 0.0 0.0
340 1 48.2055998601 25.3335316919 0.0 0.0 0.0 0.0
341 1 54.8504998601 24.4817316919 0.0 0.0 0.0 0.0
342 1 60.2923998601 26.2503316919 0.0 0.0 0.0 0.0
343 1 63.2927998601 26.5396316919 0.0 0.0 0.0 0.0
344 1 70.7417998601 24.0711316919 0.0 0.0 0.0 0.0
345 1 74.6245998601 27.4967316919 0.0 0.0 0.0 0.0
346 1 77.0871998601 31.8486316919 0.0 0.0 0.0 0.0
347 1 6.3375198601 33.1053316919 0.0 0.0 0.0 0.0
348 1 10.4176998601 31.7332316919 0.0 0.0 0.0 0.0
349 1 13.3762998601 31.2908316919 0.0 0.0 0.0 0.0
350 1 18.2520998601 30.1022316919 0.0 0.0 0.0 0.0
351 1 24.5244998601 29.7167316919 0.0 0.0 0.0 0.0
352 1 27.4712998601 30.2906316919 0.0 0.0 0.0 0.0
353 1 34.1756998601 30.1678316919 0.0 0.0 0.0 0.0
354 1 41.3308998601 31.6521316919 0.0 0.0 0.0 0.0
355 1 46.2511998601 29.8114316919 0.0 0.0 0.0 0.0
356 1 51.7754998601 29.0675316919 0.0 0.0 0.0 0.0
357 1 56.6193998601 29.3653316919 0.0 0.0 0.0 0.0
358 1 61.8973998601 31.1405316919 0.0 0.0 0.0 0.0
359 1 66.9958998601 30.8013316919 0.0 0.0 0.0 0.0
360 1 73.1385998601 33.1481316919 0.0 0.0 0.0 0.0
361 1 2.6081398601 35.5850316919 0.0 0.0 0.0 0.0
362 1 7.1583598601 36.0380316919 0.0 0.0 0.0 0.0
363 1 12.5045998601 35.9381316919 0.0 0.0 0.0 0.0
364 1 17.2089998601 35.5849316919 0.0 0.0 0.0 0.0
365 1 20.1802998601 35.3742316919 0.0 0.0 0.0 0.0
366 1 25.5980998601 34.4890316919 0.0 0.0 0.0 0.0
367 1 30.9634998601 34.6268316919 0.0 0.0 0.0 0.0
368 1 36.3830998601 34.1919316919 0.0 0.0 0.0 0.0
369 1 42.9048998601 34.2010316919 0.0 0.0 0.0 0.0
370 1 47.8857998601 34.5470316919 0.0 0.0 0.0 0.0
371 1 50.7652998601 33.6983316919 0.0 0.0 0.0 0.0
372 1 58.5880998601 33.9888316919 0.0 0.0 0.0 0.0
373 1 63.7914998601 36.3324316919 0.0 0.0 0.0 0.0
374 1 68.9942998601 36.5716316919 0.0 0.0 0.0 0.0
375 1 74.4499998601 35.8165316919 0.0 0.0 0.0 0.0
376 1 76.9799998601 39.6459316919 0.0 0.0 0.0 0.0
377 1 4.4790398601 40.7041316919 0.0 0.0 0.0 0.0
378 1 9.1661998601 41.2509316919 0.0 0.0 0.0 0.0
379 1 12.1698998601 41.3413316919 0.0 0.0 0.0 0.0
380 1 18.8067998601 40.3975316919 0.0 0.0 0.0 0.0
381 1 23.7360998601 39.4443316919 0.0 0.0 0.0 0.0
382 1 28.5369998601 39.1186316919 0.0 0.0 0.0 0.0
383 1 33.9982998601 38.7475316919 0.0 0.0 0.0 0.0
384 1 39.3333998601 38.4697316919 0.0 0.0 0.0 0.0
385 1 44.2164998601 39.1140316919 0.0 0.0 0.0 0.0
386 1 49.2215998601 38.5454316919 0.0 0.0 0.0 0.0
387 1 56.1623998601 39.3522316919 0.0 0.0 0.0 0.0
388 1 59.8380998601 39.0866316919 0.0 0.0 0.0 0.0
389 1 66.8655998601 40.9993316919 0.0 0.0 0.0 0.0
390 1 71.0696998601 38.8251316919 0.0 0.0 0.0 0.0
391 1 1.3596798601 44.6497316919 0.0 0.0 0.0 0.0
392 1 6.6357598601 45.6299316919 0.0 0.0 0.0 0.0
393 1 12.1588998601 45.3498316919 0.0 0.0 0.0 0.0
394 1 17.4300998601 43.0745316919 0.0 0.0 0.0 0.0
395 1 22.6201998601 44.6395316919 0.0 0.0 0.0 0.0
396 1 27.5821998601 41.9899316919 0.0 0.0 0.0 0.0
397 1 32.4991998601 43.8967316919 0.0 0.0 0.0 0.0
398 1 37.2701998601 43.0301316919 0.0 0.0 0.0 0.0
399 1 42.0672998601 43.4706316919 0.0 0.0 0.0 0.0
400 1 47.2107998601 43.8230316919 0.0 0.0 0.0 0.0
401 1 50.2257998601 43.7925316919 0.0 0.0 0.0 0.0
402 1 58.1571998601 41.5527316919 0.0 0.0 0.0 0.0
403 1 62.5518998601 44.5129316919 0.0 0.0 0.0 0.0
404 1 68.7025998601 43.4202316919 0.0 0.0 0.0 0.0
405 1 73.7748998601 43.5206316919 0.0 0.0 0.0 0.0
406 1 77.0720998601 47.0678316919 0.0 0.0 0.0 0.0
407 1 6.1141198601 51.2129316919 0.0 0.0 0.0 0.0
408 1 10.3236998601 49.5785316919 0.0 0.0 0.0 0.0
409 1 15.8285998601 49.3353316919 0.0 0.0 0.0 0.0
410 1 21.1631998601 49.3283316919 0.0 0.0 0.0 0.0
411 1 26.3552998601 48.6011316919 0.0 0.0 0.0 0.0
412 1 31.7486998601 48.6795316919 0.0 0.0 0.0 0.0
413 1 36.4995998601 48.0308316919 0.0 0.0 0.0 0.0
414 1 41.4144998601 46.4192316919 0.0 0.0 0.0 0.0
415 1 45.6639998601 49.2097316919 0.0 0.0 0.0 0.0
416 1 50.2935998601 47.7455316919 0.0 0.0 0.0 0.0
417 1 55.1886998601 47.1201316919 0.0 0.0 0.0 0.0
418 1 60.5926998601 48.6197316919 0.0 0.0 0.0 0.0
419 1 66.3355998601 47.9882316919 0.0 0.0 0.0 0.0
420 1 71.5275998601 48.1129316919 0.0 0.0 0.0 0.0
421 1 1.6056098601 54.0883316919 0.0 0.0 0.0 0.0
422 1 7.8554598601 53.6745316919 0.0 0.0 0.0 0.0
423 1 13.3501998601 53.8950316919 0.0 0.0 0.0 0.0
424 1 18.5577998601 53.8722316919 0.0 0.0 0.0 0.0
425 1 23.8992998601 53.5589316919 0.0 0.0 0.0 0.0
426 1 28.9874998601 52.7722316919 0.0 0.0 0.0 0.0
427 1 31.9337998601 53.3911316919 0.0 0.0 0.0 0.0
428 1 39.0715998601 52.9500316919 0.0 0.0 0.0 0.0
429 1 44.7937998601 53.4393316919 0.0 0.0 0.0 0.0
430 1 50.1420998601 52.7667316919 0.0 0.0 0.0 0.0
431 1 54.8127998601 50.1020316919 0.0 0.0 0.0 0.0
432 1 59.4377998601 51.4006316919 0.0 0.0 0.0 0.0
433 1 64.6450998601 53.1531316919 0.0 0.0 0.0 0.0
434 1 69.3256998601 52.4633316919 0.0 0.0 0.0 0.0
435 1 73.7985998601 53.5798316919 0.0 0.0 0.0 0.0
436 1 76.5612998601 58.1685316919 0.0 0.0 0.0 0.0
437 1 4.8040098601 57.9306316919 0.0 0.0 0.0 0.0
438 1 10.3061998601 57.9783316919 0.0 0.0 0.0 0.0
439 1 15.8983998601 58.1458316919 0.0 0.0 0.0 0.0
440 1 21.2079998601 58.4917316919 0.0 0.0 0.0 0.0
441 1 26.2221998601 57.8413316919 0.0 0.0 0.0 0.0
442 1 30.6143998601 57.5023316919 0.0 0.0 0.0 0.0
443 1 35.7592998601 57.7410316919 0.0 0.0 0.0 0.0
444 1 40.4441998601 57.7431316919 0.0 0.0 0.0 0.0
445 1 46.3088998601 58.5555316919 0.0 0.0 0.0 0.0
446 1 49.7537998601 56.5787316919 0.0 0.0 0.0 0.0
447 1 57.5415998601 57.2872316919 0.0 0.0 0.0 0.0
448 1 62.4318998601 58.2183316919 0.0 0.0 0.0 0.0
449 1 65.4154998601 58.3661316919 0.0 0.0 0.0 0.0
450 1 71.1720998601 57.9400316919 0.0 0.0 0.0 0.0
451 1 2.1551398601 61.8860316919 0.0 0.0 0.0 0.0
452 1 7.7236098601 62.3852316919 0.0 0.0 0.0 0.0
453 1 13.2338998601 62.1211316919 0.0 0.0 0.0 0.0
454 1 18.7812998601 62.5709316919 0.0 0.0 0.0 0.0
455 1 24.0504998601 63.3334316919 0.0 0.0 0.0 0.0
456 1 27.0521998601 63.8187316919 0.0 0.0 0.0 0.0
457 1 32.7395998601 62.7822316919 0.0 0.0 0.0 0.0
458 1 37.3236998601 62.5112316919 0.0 0.0 0.0 0.0
459 1 42.5103998601 61.4745316919 0.0 0.0 0.0 0.0
460 1 49.1504998601 59.5148316919 0.0 0.0 0.0 0.0
461 1 54.0209998601 62.5360316919 0.0 0.0 0.0 0.0
462 1 57.0345998601 62.6261316919 0.0 0.0 0.0 0.0
463 1 64.0951998601 62.7124316919 0.0 0.0 0.0 0.0
464 1 69.6827998601 60.6090316919 0.0 0.0 0.0 0.0
465 1 74.2115998601 62.9762316919 0.0 0.0 0.0 0.0
466 1 0.448389860102 66.4221316919 0.0 0.0 0.0 0.0
467 1 5.4205498601 66.4993316919 0.0 0.0 0.0 0.0
468 1 10.9334998601 66.7486316919 0.0 0.0 0.0 0.0
469 1 15.9068998601 66.8738316919 0.0 0.0 0.0 0.0
470 1 20.7636998601 67.6948316919 0.0 0.0 0.0 0.0
471 1 25.7320998601 68.1984316919 0.0 0.0 0.0 0.0
472 1 31.0788998601 67.6159316919 0.0 0.0 0.0 0.0
473 1 36.0583998601 67.2462316919 0.0 0.0 0.0 0.0
474 1 41.3320998601 65.9666316919 0.0 0.0 0.0 0.0
475 1 46.5875998601 65.1579316919 0.0 0.0 0.0 0.0
476 1 51.2125998601 66.7965316919 0.0 0.0 0.0 0.0
477 1 56.4044998601 67.1785316919 0.0 0.0 0.0 0.0
478 1 61.0854998601 66.9770316919 0.0 0.0 0.0 0.0
479 1 66.6743998601 66.9057316919 0.0 0.0 0.0 0.0
480 1 74.0276998601 68.7139316919 0.0 0.0 0.0 0.0
481 1 3.9594698601 69.1320316919 0.0 0.0 0.0 0.0
482 1 7.8262298601 72.0951316919 0.0 0.0 0.0 0.0
483 1 10.7667998601 71.5870316919 0.0 0.0 0.0 0.0
484 1 17.8753998601 71.9181316919 0.0 0.0 0.0 0.0
485 1 23.2163998601 72.3321316919 0.0 0.0 0.0 0.0
486 1 28.8454998601 72.2105316919 0.0 0.0 0.0 0.0
487 1 34.1929998601 71.7887316919 0.0 0.0 0.0 0.0
488 1 39.3351998601 71.7803316919 0.0 0.0 0.0 0.0
489 1 42.2599998601 71.1047316919 0.0 0.0 0.0 0.0
490 1 48.4679998601 70.1670316919 0.0 0.0 0.0 0.0
491 1 54.0000998601 71.4329316919 0.0 0.0 0.0 0.0
492 1 59.7918998601 69.7426316919 0.0 0.0 0.0 0.0
493 1 64.6542998601 72.0771316919 0.0 0.0 0.0 0.0
494 1 69.5793998601 71.0611316919 0.0 0.0 0.0 0.0
495 1 75.9855998601 71.0225316919 0.0 0.0 0.0 0.0
496 1 0.777479860102 76.1339316919 0.0 0.0 0.0 0.0
497 1 5.8001598601 76.4093316919 0.0 0.0 0.0 0.0
498 1 11.3794998601 74.5123316919 0.0 0.0 0.0 0.0
499 1 16.2399998601 76.9200316919 0.0 0.0 0.0 0.0
500 1 20.9285998601 76.6889316919 0.0 0.0 0.0 0.0
501 1 26.4019998601 76.5063316919 0.0 0.0 0.0 0.0
502 1 31.9656998601 76.2694316919 0.0 0.0 0.0 0.0
503 1 37.3775998601 75.9389316919 0.0 0.0 0.0 0.0
504 1 43.0124998601 75.6482316919 0.0 0.0 0.0 0.0
505 1 47.5524998601 73.0173316919 0.0 0.0 0.0 0.0
506 1 52.8278998601 74.2312316919 0.0 0.0 0.0 0.0
507 1 57.9709998601 76.5762316919 0.0 0.0 0.0 0.0
508 1 63.3062998601 76.2617316919 0.0 0.0 0.0 0.0
509 1 68.7516998601 75.9651316919 0.0 0.0 0.0 0.0
510 1 73.4285998601 75.4128316919 0.0 0.0 0.0 0.0
511 1 6.1049398601 79.3756316919 0.0 0.0 0.0 0.0
512 1 11.6350998601 79.3808316919 0.0 0.0 0.0 0.0
513 1 16.4793998601 79.9143316919 0.0 0.0 0.0 0.0
514 1 21.2951998601 79.6995316919 0.0 0.0 0.0 0.0
515 1 26.7292998601 79.4987316919 0.0 0.0 0.0 0.0
516 1 32.3687998601 79.2522316919 0.0 0.0 0.0 0.0
517 1 37.7587998601 78.9113316919 0.0 0.0 0.0 0.0
518 1 45.2335998601 77.7161316919 0.0 0.0 0.0 0.0
519 1 48.2819998601 77.5371316919 0.0 0.0 0.0 0.0
520 1 53.5028998601 79.0544316919 0.0 0.0 0.0 0.0
521 1 58.3363998601 79.5771316919 0.0 0.0 0.0 0.0
522 1 63.8266998601 79.2128316919 0.0 0.0 0.0 0.0
523 1 70.5495998601 78.4101316919 0.0 0.0 0.0 0.0
524 1 73.5736998601 78.4424316919 0.0 0.0 0.0 0.0
525 1 0.900089860102 79.1773316919 0.0 0.0 0.0 0.0
526 1 3.4697498601 80.8117316919 0.0 0.0 0.0 0.0
527 1 8.8677098601 80.5573316919 0.0 0.0 0.0 0.0
528 1 13.8596998601 81.3864316919 0.0 0.0 0.0 0.0
529 1 18.9506998601 81.6127316919 0.0 0.0 0.0 0.0
530 1 24.0628998601 80.9205316919 0.0 0.0 0.0 0.0
531 1 29.6008998601 80.4561316919 0.0 0.0 0.0 0.0
532 1 35.1599998601 80.4326316919 0.0 0.0 0.0 0.0
533 1 40.4585998601 80.2528316919 0.0 0.0 0.0 0.0
534 1 43.4639998601 80.1568316919 0.0 0.0 0.0 0.0
535 1 50.5160998601 79.5772316919 0.0 0.0 0.0 0.0
536 1 55.7237998601 81.0989316919 0.0 0.0 0.0 0.0
537 1 61.1701998601 80.6242316919 0.0 0.0 0.0 0.0
538 1 66.3771998601 80.8261316919 0.0 0.0 0.0 0.0
539 1 69.3701998601 81.1681316919 0.0 0.0 0.0 0.0
540 1 75.7460998601 80.6051316919 0.0 0.0 0.0 0.0
541 2 4.5912698601 2.62027169186 0.0 0.0 0.0 0.0
542 2 4.1775398601 0.0449916918625 0.0 0.0 0.0 0.0
543 2 6.6416698601 1.31354169186 0.0 0.0 0.0 0.0
544 2 8.6137998601 82.0380316919 0.0 0.0 0.0 0.0
545 2 9.2366998601 2.40574169186 0.0 0.0 0.0 0.0
546 2 13.5445998601 0.732330691862 0.0 0.0 0.0 0.0
547 2 14.5072998601 3.00389169186 0.0 0.0 0.0 0.0
548 2 11.8333998601 2.75660169186 0.0 0.0 0.0 0.0
549 2 19.9222998601 2.82506169186 0.0 0.0 0.0 0.0
550 2 18.6539998601 0.972751691862 0.0 0.0 0.0 0.0
551 2 17.1174998601 3.27775169186 0.0 0.0 0.0 0.0
552 2 24.1142998601 0.308321691862 0.0 0.0 0.0 0.0
553 2 25.6566998601 2.23812169186 0.0 0.0 0.0 0.0
554 2 22.7966998601 2.44309169186 0.0 0.0 0.0 0.0
555 2 29.7874998601 81.9463316919 0.0 0.0 0.0 0.0
556 2 31.2672998601 2.01369169186 0.0 0.0 0.0 0.0
557 2 28.4985998601 1.85982169186 0.0 0.0 0.0 0.0
558 2 36.1193998601 2.28404169186 0.0 0.0 0.0 0.0
559 2 35.8177998601 81.7970316919 0.0 0.0 0.0 0.0
560 2 38.1905998601 1.00748169186 0.0 0.0 0.0 0.0
561 2 40.1301998601 81.7208316919 0.0 0.0 0.0 0.0
562 2 40.7123998601 2.14093169186 0.0 0.0 0.0 0.0
563 2 43.8221998601 81.6200316919 0.0 0.0 0.0 0.0
564 2 45.5923998601 1.26956169186 0.0 0.0 0.0 0.0
565 2 43.0722998601 2.07710169186 0.0 0.0 0.0 0.0
566 2 50.1314998601 81.0396316919 0.0 0.0 0.0 0.0
567 2 50.8107998601 1.47288169186 0.0 0.0 0.0 0.0
568 2 48.3618998601 0.916651691862 0.0 0.0 0.0 0.0
569 2 55.3497998601 0.449866691862 0.0 0.0 0.0 0.0
570 2 53.3110998601 2.08543169186 0.0 0.0 0.0 0.0
571 2 55.2699998601 3.29059169186 0.0 0.0 0.0 0.0
572 2 61.7804998601 2.41454169186 0.0 0.0 0.0 0.0
573 2 61.7866998601 82.0028316919 0.0 0.0 0.0 0.0
574 2 64.0558998601 1.45970169186 0.0 0.0 0.0 0.0
575 2 65.9671998601 0.149421691862 0.0 0.0 0.0 0.0
576 2 66.7461998601 2.51290169186 0.0 0.0 0.0 0.0
577 2 70.1076998601 0.369950691862 0.0 0.0 0.0 0.0
578 2 72.0388998601 2.40444169186 0.0 0.0 0.0 0.0
579 2 69.3852998601 2.60762169186 0.0 0.0 0.0 0.0
580 2 75.8574998601 0.0166716918625 0.0 0.0 0.0 0.0
581 2 77.3131998601 2.37851169186 0.0 0.0 0.0 0.0
582 2 74.6977998601 2.32747169186 0.0 0.0 0.0 0.0
583 2 0.822119860102 4.85001169186 0.0 0.0 0.0 0.0
584 2 2.0804498601 7.28288169186 0.0 0.0 0.0 0.0
585 2 77.1451998601 7.09353169186 0.0 0.0 0.0 0.0
586 2 4.9105998601 5.19875169186 0.0 0.0 0.0 0.0
587 2 6.9986698601 7.32581169186 0.0 0.0 0.0 0.0
588 2 4.5184198601 7.47058169186 0.0 0.0 0.0 0.0
589 2 10.4129998601 4.83978169186 0.0 0.0 0.0 0.0
590 2 12.1810998601 6.32544169186 0.0 0.0 0.0 0.0
591 2 9.5079998601 7.35052169186 0.0 0.0 0.0 0.0
592 2 14.1813998601 7.65399169186 0.0 0.0 0.0 0.0
593 2 15.9533998601 9.72303169186 0.0 0.0 0.0 0.0
594 2 13.6976998601 10.3414316919 0.0 0.0 0.0 0.0
595 2 21.5274998601 4.59155169186 0.0 0.0 0.0 0.0
596 2 23.1991998601 6.48602169186 0.0 0.0 0.0 0.0
597 2 21.0419998601 7.41186169186 0.0 0.0 0.0 0.0
598 2 28.0898998601 6.51682169186 0.0 0.0 0.0 0.0
599 2 27.8032998601 3.91058169186 0.0 0.0 0.0 0.0