# input file

1350 atoms
2 atom types

0.0 78.0505717271 xlo xhi
0.0 81.7612287307 ylo yhi
-10.0 10.0 zlo zhi
0.0 0.0 0.0 xy xz yz

Masses

1 28.0855 #Si
2 15.9994 #O

Atoms

1 1 3.55717364041 2.16167436535 0.0
2 1 8.85768364041 1.21881436535 0.0
3 1 14.2451236404 1.81140436535 0.0
4 1 19.1843236404 2.73185436535 0.0
5 1 24.2157236404 2.32615436535 0.0
6 1 29.3944236404 1.77716436535 0.0
7 1 34.2332236404 1.10325436535 0.0
8 1 39.0276236404 0.422812365354 0.0
9 1 44.2256236404 0.100118365354 0.0
10 1 49.6443236404 0.153429365354 0.0
11 1 54.8642236404 0.702551365354 0.0
12 1 58.6029236404 3.68332436535 0.0
13 1 66.0353236404 1.62436436535 0.0
14 1 73.5450236404 0.989964365354 0.0
15 1 76.5791236404 1.37447436535 0.0
16 1 0.746923640412 6.42836436535 0.0
17 1 7.89927364041 5.66250436535 0.0
18 1 10.9051236404 5.77892436535 0.0
19 1 15.7136236404 6.80206436535 0.0
20 1 21.1068236404 7.11090436535 0.0
21 1 27.0858236404 6.61403436535 0.0
22 1 34.0496236404 5.47479436535 0.0
23 1 37.0716236404 5.49811436535 0.0
24 1 42.2358236404 4.72889436535 0.0
25 1 47.4052236404 4.37936436535 0.0
26 1 51.9198236404 6.97895436535 0.0
27 1 57.8126236404 6.56240436535 0.0
28 1 61.3568236404 4.79429436535 0.0
29 1 67.7144236404 4.13090436535 0.0
30 1 73.9920236404 6.80614436535 0.0
31 1 2.53274364041 10.9104143654 0.0
32 1 7.76296364041 10.8321143654 0.0
33 1 13.0651236404 11.0166143654 0.0
34 1 18.4229236404 11.2581143654 0.0
35 1 22.4252236404 9.82181436535 0.0
36 1 29.0828236404 10.8150143654 0.0
37 1 34.0978236404 10.8929143654 0.0
38 1 41.7162236404 9.01573436535 0.0
39 1 44.7386236404 9.09347436535 0.0
40 1 51.7118236404 9.96611436535 0.0
41 1 54.6986236404 10.1866143654 0.0
42 1 62.6304236404 9.90631436535 0.0
43 1 65.6374236404 9.56984436535 0.0
44 1 70.3763236404 11.1025143654 0.0
45 1 75.6787236404 11.3374143654 0.0
46 1 1.69539364041 15.4810143654 0.0
47 1 4.71133364041 15.2850143654 0.0
48 1 10.2962236404 15.3888143654 0.0
49 1 16.1995236404 15.4914143654 0.0
50 1 21.4396236404 15.6015143654 0.0
51 1 26.2387236404 14.9471143654 0.0
52 1 31.4719236404 15.4388143654 0.0
53 1 35.5750236404 13.5049143654 0.0
54 1 42.5182236404 14.3151143654 0.0
55 1 46.5889236404 17.0027143654 0.0
56 1 51.2159236404 14.6727143654 0.0
57 1 56.8901236404 14.4581143654 0.0
58 1 61.8274236404 17.0825143654 0.0
59 1 67.1301236404 15.0610143654 0.0
60 1 72.4281236404 15.6616143654 0.0
61 1 0.773963640412 20.6833143654 0.0
62 1 6.33628364041 19.3473143654 0.0
63 1 14.1202236404 19.0517143654 0.0
64 1 19.5156236404 20.0910143654 0.0
65 1 25.9182236404 19.5302143654 0.0
66 1 28.9498236404 19.6203143654 0.0
67 1 34.3586236404 19.2528143654 0.0
68 1 39.8705236404 19.2372143654 0.0
69 1 45.4827236404 19.7987143654 0.0
70 1 50.2006236404 20.1300143654 0.0
71 1 54.8308236404 18.4703143654 0.0
72 1 60.1824236404 19.6068143654 0.0
73 1 64.5120236404 20.0933143654 0.0
74 1 69.3231236404 19.8425143654 0.0
75 1 74.0648236404 20.3548143654 0.0
76 1 76.8610236404 25.2598143654 0.0
77 1 2.50361364041 23.1517143654 0.0
78 1 8.75201364041 21.0668143654 0.0
79 1 15.1559236404 21.8560143654 0.0
80 1 21.1478236404 24.9983143654 0.0
81 1 25.6247236404 25.2132143654 0.0
82 1 33.3149236404 23.4054143654 0.0
83 1 36.3205236404 23.3536143654 0.0
84 1 42.5780236404 23.5451143654 0.0
85 1 47.9004236404 24.8184143654 0.0
86 1 55.4964236404 22.6765143654 0.0
87 1 55.8578236404 25.6555143654 0.0
88 1 61.3150236404 24.8336143654 0.0
89 1 66.6888236404 24.7652143654 0.0
90 1 71.9154236404 24.9030143654 0.0
91 1 2.47137364041 28.9858143654 0.0
92 1 11.3891236404 28.2569143654 0.0
93 1 10.3858236404 25.4326143654 0.0
94 1 17.2151236404 28.5604143654 0.0
95 1 22.5464236404 30.0175143654 0.0
96 1 27.5218236404 30.2542143654 0.0
97 1 30.7477236404 27.7721143654 0.0
98 1 37.5535236404 26.1039143654 0.0
99 1 43.1125236404 30.5375143654 0.0
100 1 48.8847236404 29.5477143654 0.0
101 1 53.8291236404 30.0137143654 0.0
102 1 58.8839236404 29.5180143654 0.0
103 1 63.9571236404 29.1934143654 0.0
104 1 69.6742236404 29.3043143654 0.0
105 1 75.1137236404 29.6747143654 0.0
106 1 77.7764236404 33.7360143654 0.0
107 1 6.25084364041 32.3124143654 0.0
108 1 9.22650364041 32.2069143654 0.0
109 1 14.2932236404 32.3100143654 0.0
110 1 19.4809236404 33.5321143654 0.0
111 1 25.7047236404 34.7545143654 0.0
112 1 32.8025236404 32.6823143654 0.0
113 1 35.5896236404 31.4800143654 0.0
114 1 40.9138236404 32.6138143654 0.0
115 1 46.2543236404 33.7718143654 0.0
116 1 51.2987236404 34.4732143654 0.0
117 1 56.4330236404 34.4114143654 0.0
118 1 61.3788236404 34.0098143654 0.0
119 1 66.5809236404 33.1822143654 0.0
120 1 72.0521236404 33.7930143654 0.0
121 1 2.30103364041 38.3794143654 0.0
122 1 6.95338364041 37.4856143654 0.0
123 1 12.0024236404 36.8646143654 0.0
124 1 16.7484236404 37.2781143654 0.0
125 1 21.0352236404 36.1324143654 0.0
126 1 27.9046236404 38.8680143654 0.0
127 1 32.4264236404 38.2368143654 0.0
128 1 37.3902236404 36.3636143654 0.0
129 1 43.0700236404 37.3912143654 0.0
130 1 48.1238236404 38.6771143654 0.0
131 1 53.4327236404 39.0122143654 0.0
132 1 58.8106236404 38.9431143654 0.0
133 1 65.8821236404 37.5101143654 0.0
134 1 68.8820236404 37.6263143654 0.0
135 1 73.3225236404 36.5155143654 0.0
136 1 77.7438236404 42.1933143654 0.0
137 1 6.75756364041 42.1157143654 0.0
138 1 9.72462364041 41.7312143654 0.0
139 1 14.3986236404 41.8796143654 0.0
140 1 19.7245236404 41.6644143654 0.0
141 1 24.7697236404 42.9406143654 0.0
142 1 29.8226236404 43.4636143654 0.0
143 1 35.6175236404 41.6934143654 0.0
144 1 40.6899236404 40.6194143654 0.0
145 1 42.5828236404 44.7695143654 0.0
146 1 49.8826236404 43.1978143654 0.0
147 1 55.2842236404 43.2823143654 0.0
148 1 61.7931236404 43.2138143654 0.0
149 1 66.8035236404 42.2221143654 0.0
150 1 72.1534236404 41.9280143654 0.0
151 1 2.00469364041 47.0140143654 0.0
152 1 6.96520364041 47.0015143654 0.0
153 1 12.1442236404 46.6970143654 0.0
154 1 17.2987236404 46.1578143654 0.0
155 1 20.9536236404 49.3113143654 0.0
156 1 27.8446236404 47.8116143654 0.0
157 1 31.9706236404 45.5763143654 0.0
158 1 39.6335236404 45.3558143654 0.0
159 1 44.4786236404 49.5211143654 0.0
160 1 49.0191236404 48.0642143654 0.0
161 1 53.7004236404 49.9377143654 0.0
162 1 56.8849236404 45.8225143654 0.0
163 1 64.6378236404 47.2223143654 0.0
164 1 70.0201236404 46.4683143654 0.0
165 1 75.1997236404 46.1897143654 0.0
166 1 77.7552236404 51.2564143654 0.0
167 1 5.05425364041 51.6374143654 0.0
168 1 10.3894236404 51.3579143654 0.0
169 1 15.2937236404 50.9646143654 0.0
170 1 19.2338236404 53.7643143654 0.0
171 1 23.7644236404 50.4826143654 0.0
172 1 31.8094236404 51.2136143654 0.0
173 1 37.0851236404 49.7474143654 0.0
174 1 42.4736236404 51.7730143654 0.0
175 1 47.5733236404 53.5277143654 0.0
176 1 52.7862236404 52.7975143654 0.0
177 1 58.6043236404 50.9179143654 0.0
178 1 61.5859236404 50.7925143654 0.0
179 1 65.9779236404 49.8884143654 0.0
180 1 73.1582236404 50.8006143654 0.0
181 1 2.13467364041 55.7681143654 0.0
182 1 7.41181364041 55.8787143654 0.0
183 1 12.6044236404 56.0219143654 0.0
184 1 18.4204236404 56.6663143654 0.0
185 1 23.6201236404 55.5830143654 0.0
186 1 29.1556236404 55.7801143654 0.0
187 1 37.1723236404 53.6410143654 0.0
188 1 37.9281236404 56.5603143654 0.0
189 1 43.6711236404 56.8392143654 0.0
190 1 52.1558236404 57.0969143654 0.0
191 1 55.1491236404 57.4815143654 0.0
192 1 59.8452236404 56.3602143654 0.0
193 1 65.0048236404 55.1651143654 0.0
194 1 70.1376236404 54.8642143654 0.0
195 1 75.1898236404 55.9383143654 0.0
196 1 0.806773640412 60.3156143654 0.0
197 1 6.63711364041 61.3455143654 0.0
198 1 9.56022364041 60.4763143654 0.0
199 1 13.8238236404 58.8125143654 0.0
200 1 23.0782236404 59.8611143654 0.0
201 1 26.0504236404 59.7561143654 0.0
202 1 29.7270236404 58.8094143654 0.0
203 1 35.8362236404 61.4498143654 0.0
204 1 41.1390236404 60.6364143654 0.0
205 1 45.7740236404 59.0113143654 0.0
206 1 53.6289236404 62.0189143654 0.0
207 1 60.1896236404 60.6719143654 0.0
208 1 63.1504236404 60.0991143654 0.0
209 1 68.2356236404 59.5086143654 0.0
210 1 73.2431236404 61.9381143654 0.0
211 1 3.77872364041 66.1868143654 0.0
212 1 8.46087364041 66.1699143654 0.0
213 1 13.6032236404 64.3431143654 0.0
214 1 18.7379236404 64.8703143654 0.0
215 1 24.7445236404 65.7982143654 0.0
216 1 27.5988236404 64.6220143654 0.0
217 1 32.2533236404 65.1629143654 0.0
218 1 37.1749236404 64.1084143654 0.0
219 1 44.5383236404 64.3982143654 0.0
220 1 48.8065236404 63.4151143654 0.0
221 1 55.8341236404 66.3357143654 0.0
222 1 61.0955236404 65.9667143654 0.0
223 1 66.4384236404 64.3557143654 0.0
224 1 71.6551236404 64.5078143654 0.0
225 1 76.4679236404 64.9096143654 0.0
226 1 0.478353640412 69.6572143654 0.0
227 1 4.45757364041 69.1131143654 0.0
228 1 11.4567236404 69.4531143654 0.0
229 1 16.5124236404 69.2098143654 0.0
230 1 21.3688236404 70.2472143654 0.0
231 1 25.5252236404 71.2978143654 0.0
232 1 30.7277236404 69.7471143654 0.0
233 1 36.0720236404 69.0546143654 0.0
234 1 41.7881236404 68.7941143654 0.0
235 1 47.3351236404 68.8865143654 0.0
236 1 52.6426236404 69.9656143654 0.0
237 1 57.2498236404 68.9722143654 0.0
238 1 64.3861236404 69.2207143654 0.0
239 1 68.9073236404 68.9758143654 0.0
240 1 73.4360236404 69.4452143654 0.0
241 1 3.00811364041 74.5869143654 0.0
242 1 8.16350364041 74.2426143654 0.0
243 1 13.4538236404 73.8658143654 0.0
244 1 18.4605236404 74.4795143654 0.0
245 1 23.1940236404 75.7595143654 0.0
246 1 27.3153236404 73.7062143654 0.0
247 1 34.2359236404 73.6976143654 0.0
248 1 39.3808236404 72.8195143654 0.0
249 1 44.7973236404 73.0005143654 0.0
250 1 50.1619236404 73.6676143654 0.0
251 1 55.9235236404 74.2238143654 0.0
252 1 63.1683236404 74.0108143654 0.0
253 1 66.1833236404 74.0350143654 0.0
254 1 70.5161236404 74.1422143654 0.0
255 1 75.8299236404 74.0889143654 0.0
256 1 0.785623640412 3.40413436535 0.0
257 1 6.45145364041 3.02613436535 0.0
258 1 11.4129236404 2.81210436535 0.0
259 1 16.4110236404 3.88618436535 0.0
260 1 21.8244236404 4.17668436535 0.0
261 1 26.9608236404 3.58735436535 0.0
262 1 32.0777236404 3.17538436535 0.0
263 1 36.8906236404 2.50797436535 0.0
264 1 41.7251236404 1.75849436535 0.0
265 1 46.9210236404 1.42276436535 0.0
266 1 52.0911236404 1.89848436535 0.0
267 1 57.8843236404 0.790614365354 0.0
268 1 64.2164236404 4.01260436535 0.0
269 1 70.4068236404 5.40281436535 0.0
270 1 73.0262236404 3.96112436535 0.0
271 1 3.29807364041 8.01607436535 0.0
272 1 6.30722364041 8.19668436535 0.0
273 1 12.9555236404 7.99717436535 0.0
274 1 18.3363236404 8.25502436535 0.0
275 1 25.3342236404 9.09346436535 0.0
276 1 29.7954236404 7.91201436535 0.0
277 1 32.7918236404 8.18536436535 0.0
278 1 39.8871236404 6.61542436535 0.0
279 1 44.9356236404 6.09261436535 0.0
280 1 50.4126236404 4.39835436535 0.0
281 1 54.8953236404 7.20605436535 0.0
282 1 60.5979236404 7.68535436535 0.0
283 1 65.8791236404 6.52393436535 0.0
284 1 71.3497236404 8.24477436535 0.0
285 1 76.5184236404 8.42115436535 0.0
286 1 0.237388640412 12.8411143654 0.0
287 1 5.16889364041 12.3326143654 0.0
288 1 10.3638236404 12.3655143654 0.0
289 1 15.6979236404 12.5187143654 0.0
290 1 21.1362236404 12.5680143654 0.0
291 1 26.3233236404 11.9374143654 0.0
292 1 31.5586236404 12.4611143654 0.0
293 1 38.5392236404 13.8067143654 0.0
294 1 40.8004236404 11.8637143654 0.0
295 1 46.6738236404 11.4299143654 0.0
296 1 49.6170236404 12.1087143654 0.0
297 1 57.3898236404 11.5097143654 0.0
298 1 60.3686236404 11.8769143654 0.0
299 1 67.4788236404 12.0147143654 0.0
300 1 72.9549236404 12.6824143654 0.0
301 1 77.8626236404 17.8243143654 0.0
302 1 7.45765364041 16.5446143654 0.0
303 1 13.2484236404 16.1906143654 0.0
304 1 18.8042236404 17.1172143654 0.0
305 1 24.1101236404 17.0678143654 0.0
306 1 28.7364236404 16.6263143654 0.0
307 1 34.3420236404 16.2511143654 0.0
308 1 40.2465236404 16.2624143654 0.0
309 1 45.5049236404 14.2023143654 0.0
310 1 49.5796236404 17.1930143654 0.0
311 1 54.0977236404 15.5607143654 0.0
312 1 59.8598236404 14.8276143654 0.0
313 1 64.8390236404 17.0782143654 0.0
314 1 69.6147236404 16.8159143654 0.0
315 1 74.8598236404 17.4618143654 0.0
316 1 76.3228236404 22.3129143654 0.0
317 1 5.32799364041 22.1860143654 0.0
318 1 11.6714236404 20.7136143654 0.0
319 1 17.9985236404 22.7072143654 0.0
320 1 21.8017236404 22.0522143654 0.0
321 1 24.7916236404 22.3158143654 0.0
322 1 31.7586236404 20.8121143654 0.0
323 1 37.1199236404 20.4654143654 0.0
324 1 42.5736236404 20.5512143654 0.0
325 1 47.7224236404 21.8150143654 0.0
326 1 53.0880236404 20.9029143654 0.0
327 1 57.2474236404 20.2371143654 0.0
328 1 62.0922236404 21.9094143654 0.0
329 1 66.9993236404 21.7600143654 0.0
330 1 71.5130236404 21.9098143654 0.0
331 1 1.69893364041 26.0613143654 0.0
332 1 7.80039364041 23.8934143654 0.0
333 1 12.6861236404 23.5190143654 0.0
334 1 18.2451236404 25.7135143654 0.0
335 1 23.2848236404 27.0977143654 0.0
336 1 27.8093236404 27.2611143654 0.0
337 1 33.4055236404 26.4159143654 0.0
338 1 40.5276236404 25.7269143654 0.0
339 1 44.9474236404 25.3895143654 0.0
340 1 50.1655236404 26.8155143654 0.0
341 1 53.1856236404 27.0747143654 0.0
342 1 58.7684236404 26.4954143654 0.0
343 1 64.0146236404 26.1810143654 0.0
344 1 69.2719236404 26.3229143654 0.0
345 1 74.2857236404 26.7780143654 0.0
346 1 77.9788236404 30.7016143654 0.0
347 1 5.49420364041 29.4210143654 0.0
348 1 8.54078364041 29.2848143654 0.0
349 1 14.2601236404 29.2946143654 0.0
350 1 19.5619236404 30.5103143654 0.0
351 1 24.9606236404 31.8332143654 0.0
352 1 30.4843236404 30.7561143654 0.0
353 1 35.6522236404 28.4386143654 0.0
354 1 42.8868236404 27.5607143654 0.0
355 1 46.1299236404 30.7822143654 0.0
356 1 51.2026236404 31.4702143654 0.0
357 1 56.5099236404 31.3880143654 0.0
358 1 61.5176236404 30.9861143654 0.0
359 1 66.7950236404 30.2022143654 0.0
360 1 72.3123236404 30.8008143654 0.0
361 1 2.22341364041 35.3858143654 0.0
362 1 5.18476364041 35.0808143654 0.0
363 1 11.7278236404 33.8712143654 0.0
364 1 16.5739236404 34.2770143654 0.0
365 1 23.8690236404 37.1454143654 0.0
366 1 28.4783236404 35.9110143654 0.0
367 1 31.4446236404 35.3842143654 0.0
368 1 37.9617236404 33.3777143654 0.0
369 1 43.3212236404 34.4209143654 0.0
370 1 48.5573236404 35.7038143654 0.0
371 1 53.8768236404 36.0239143654 0.0
372 1 59.0382236404 35.9256143654 0.0
373 1 64.2137236404 35.0141143654 0.0
374 1 69.1905236404 34.6494143654 0.0
375 1 76.3156236404 36.3940143654 0.0
376 1 77.4833236404 39.1867143654 0.0
377 1 4.97194364041 39.7205143654 0.0
378 1 9.67162364041 38.7313143654 0.0
379 1 14.2240236404 38.8795143654 0.0
380 1 19.4099236404 38.6642143654 0.0
381 1 25.0856236404 39.9186143654 0.0
382 1 30.4232236404 40.4996143654 0.0
383 1 35.4021236404 38.6668143654 0.0
384 1 40.0856236404 37.6986143654 0.0
385 1 45.2247236404 39.4965143654 0.0
386 1 50.6719236404 40.2835143654 0.0
387 1 56.1294236404 40.3815143654 0.0
388 1 61.5455236404 40.2375143654 0.0
389 1 64.5682236404 40.1849143654 0.0
390 1 71.5716236404 38.9678143654 0.0
391 1 2.13997364041 44.0155143654 0.0
392 1 5.11749364041 44.6010143654 0.0
393 1 12.0013236404 43.6888143654 0.0
394 1 17.1127236404 43.1597143654 0.0
395 1 21.8669236404 43.7842143654 0.0
396 1 27.1351236404 44.8512143654 0.0
397 1 34.8181236404 44.6096143654 0.0
398 1 38.4673236404 42.6003143654 0.0
399 1 43.4083236404 41.8800143654 0.0
400 1 47.7489236404 45.3422143654 0.0
401 1 52.5590236404 44.5616143654 0.0
402 1 59.8501236404 45.4776143654 0.0
403 1 64.6132236404 44.2470143654 0.0
404 1 69.5576236404 43.4760143654 0.0
405 1 74.9006236404 43.2002143654 0.0
406 1 77.3529236404 48.2826143654 0.0
407 1 4.49945364041 48.6952143654 0.0
408 1 9.65972364041 48.4055143654 0.0
409 1 14.8782236404 47.9731143654 0.0
410 1 20.3064236404 46.3737143654 0.0
411 1 26.8250236404 50.6686143654 0.0
412 1 30.8140236404 48.3549143654 0.0
413 1 36.9719236404 46.7382143654 0.0
414 1 44.9875236404 46.5507143654 0.0
415 1 47.3097236404 50.5352143654 0.0
416 1 51.9587236404 47.5054143654 0.0
417 1 56.4755236404 48.8016143654 0.0
418 1 61.7152236404 47.8099143654 0.0
419 1 68.8885236404 49.2564143654 0.0
420 1 72.7020236404 47.8256143654 0.0
421 1 2.28495364041 52.7819143654 0.0
422 1 7.78842364041 52.8925143654 0.0
423 1 12.9779236404 52.9695143654 0.0
424 1 18.3367236404 50.9040143654 0.0
425 1 22.1489236404 53.0075143654 0.0
426 1 29.1508236404 52.7064143654 0.0
427 1 34.8180236404 51.7379143654 0.0
428 1 39.4323236404 51.6453143654 0.0
429 1 44.5726236404 53.9667143654 0.0
430 1 50.3995236404 54.6284143654 0.0
431 1 55.2693236404 54.4917143654 0.0
432 1 58.1880236404 53.8715143654 0.0
433 1 64.1846236404 52.2825143654 0.0
434 1 70.3694236404 51.8697143654 0.0
435 1 75.2751236404 52.9306143654 0.0
436 1 77.7517236404 57.5151143654 0.0
437 1 4.73305364041 57.2576143654 0.0
438 1 9.95442364041 57.4766143654 0.0
439 1 16.8075236404 59.2185143654 0.0
440 1 21.3043236404 57.4671143654 0.0
441 1 26.3500236404 56.7743143654 0.0
442 1 32.6845236404 59.2491143654 0.0
443 1 35.5916236404 58.4697143654 0.0
444 1 40.7540236404 57.6535143654 0.0
445 1 48.4283236404 60.4365143654 0.0
446 1 51.4025236404 59.9849143654 0.0
447 1 57.9290236404 58.6701143654 0.0
448 1 62.7463236404 57.1261143654 0.0
449 1 67.6621236404 56.5548143654 0.0
450 1 72.3459236404 56.8991143654 0.0
451 1 3.85323364041 60.1347143654 0.0
452 1 6.11968364041 64.3035143654 0.0
453 1 12.4181236404 61.5139143654 0.0
454 1 18.2348236404 61.8898143654 0.0
455 1 21.2073236404 62.1553143654 0.0
456 1 28.3829236404 61.6141143654 0.0
457 1 32.9496236404 62.2354143654 0.0
458 1 40.0753236404 63.4385143654 0.0
459 1 44.0275236404 61.4427143654 0.0
460 1 51.6694236404 64.2836143654 0.0
461 1 56.3166236404 63.3788143654 0.0
462 1 59.3168236404 63.5319143654 0.0
463 1 65.8818236404 61.3928143654 0.0
464 1 71.2426236404 59.6935143654 0.0
465 1 76.2765236404 61.9157143654 0.0
466 1 0.834243640412 66.6721143654 0.0
467 1 7.42716364041 68.9819143654 0.0
468 1 11.4378236404 66.4383143654 0.0
469 1 16.0330236404 66.2023143654 0.0
470 1 21.7759236404 65.0818143654 0.0
471 1 23.9822236404 68.7236143654 0.0
472 1 29.7366236404 66.8311143654 0.0
473 1 35.0652236404 66.2325143654 0.0
474 1 41.9053236404 65.8036143654 0.0
475 1 47.1281236404 65.8920143654 0.0
476 1 52.9214236404 66.9913143654 0.0
477 1 60.2322236404 68.8550143654 0.0
478 1 64.0867236404 66.2280143654 0.0
479 1 69.0010236404 65.9465143654 0.0
480 1 73.9080236404 66.4804143654 0.0
481 1 2.77337364041 71.5864143654 0.0
482 1 9.16311364041 71.4027143654 0.0
483 1 14.0532236404 70.9253143654 0.0
484 1 18.5940236404 71.4183143654 0.0
485 1 22.9383236404 72.7846143654 0.0
486 1 30.1474236404 72.7388143654 0.0
487 1 33.5857236404 70.7438143654 0.0
488 1 38.9742236404 69.8541143654 0.0
489 1 44.5452236404 70.0127143654 0.0
490 1 49.7407236404 70.6989143654 0.0
491 1 55.3446236404 71.2806143654 0.0
492 1 62.1203236404 71.1825143654 0.0
493 1 66.7443236404 71.0632143654 0.0
494 1 70.9714236404 71.1533143654 0.0
495 1 75.9180236404 71.1015143654 0.0
496 1 0.246860640412 75.7895143654 0.0
497 1 5.68444364041 75.9679143654 0.0
498 1 10.9033236404 75.4585143654 0.0
499 1 15.7455236404 75.7949143654 0.0
500 1 20.3988236404 76.8234143654 0.0
501 1 26.1077236404 76.4740143654 0.0
502 1 31.7195236404 75.3345143654 0.0
503 1 37.0652236404 74.7186143654 0.0
504 1 42.0483236404 74.1972143654 0.0
505 1 47.3153236404 74.6448143654 0.0
506 1 52.9538236404 74.8392143654 0.0
507 1 58.5692236404 75.7200143654 0.0
508 1 61.5077236404 76.5217143654 0.0
509 1 68.3018236404 76.1995143654 0.0
510 1 73.1863236404 75.5072143654 0.0
511 1 5.79389364041 78.9878143654 0.0
512 1 11.2494236404 78.4379143654 0.0
513 1 15.7866236404 81.0000143654 0.0
514 1 21.1732236404 79.7462143654 0.0
515 1 26.4874236404 79.4669143654 0.0
516 1 31.5212236404 78.3737143654 0.0
517 1 38.6797236404 77.2488143654 0.0
518 1 41.6809236404 77.1697143654 0.0
519 1 46.8977236404 77.6127143654 0.0
520 1 52.3775236404 77.7790143654 0.0
521 1 57.7300236404 78.5873143654 0.0
522 1 62.8672236404 79.2592143654 0.0
523 1 68.6284236404 79.2398143654 0.0
524 1 73.7264236404 78.4548143654 0.0
525 1 0.433093640412 80.8016143654 0.0
526 1 3.44658364041 80.9099143654 0.0
527 1 8.65109364041 79.9807143654 0.0
528 1 14.2645236404 78.4193143654 0.0
529 1 18.7474236404 81.5226143654 0.0
530 1 23.9104236404 81.0690143654 0.0
531 1 29.3330236404 80.4938143654 0.0
532 1 34.1515236404 79.8660143654 0.0
533 1 37.1632236404 79.8194143654 0.0
534 1 44.1642236404 78.8621143654 0.0
535 1 49.6014236404 78.9208143654 0.0
536 1 54.8547236404 79.4704143654 0.0
537 1 60.0773236404 80.4726143654 0.0
538 1 65.7600236404 80.3552143654 0.0
539 1 71.4773236404 80.4727143654 0.0
540 1 76.7450236404 78.3645143654 0.0
541 2 3.57330364041 0.652399365354 0.0
542 2 4.98605364041 2.67571436535 0.0
543 2 2.19498364041 2.82089436535 0.0
544 2 8.77181364041 81.4820143654 0.0
545 2 10.1661236404 1.96917436535 0.0
546 2 7.60648364041 2.05305436535 0.0
547 2 14.9369236404 0.480111365354 0.0
548 2 15.3007236404 2.87978436535 0.0
549 2 12.8087236404 2.24734436535 0.0
550 2 19.0229236404 1.23769436535 0.0
551 2 17.8243236404 3.37758436535 0.0
552 2 20.5048236404 3.44059436535 0.0
553 2 24.0481236404 0.821554365354 0.0
554 2 25.5913236404 2.95077436535 0.0
555 2 23.0425236404 3.28701436535 0.0
556 2 29.3942236404 0.255153365354 0.0
557 2 30.6998236404 2.55428436535 0.0
558 2 28.1710236404 2.67713436535 0.0
559 2 34.0993236404 81.3758143654 0.0
560 2 35.5582236404 1.81421436535 0.0
561 2 33.1028236404 2.07503436535 0.0
562 2 38.1566236404 80.9559143654 0.0
563 2 40.4093236404 1.02206436535 0.0
564 2 38.0104236404 1.52578436535 0.0
565 2 44.1656236404 80.3619143654 0.0
566 2 45.5765236404 0.758144365354 0.0
567 2 42.9711236404 0.917644365354 0.0
568 2 49.6344236404 80.4186143654 0.0
569 2 50.9114236404 0.953744365354 0.0
570 2 48.2690236404 0.761074365354 0.0
571 2 54.7577236404 80.9624143654 0.0
572 2 56.3703236404 0.806974365354 0.0
573 2 53.5255236404 1.41688436535 0.0
574 2 58.2280236404 2.25177436535 0.0
575 2 60.0560236404 4.06888436535 0.0
576 2 58.0412236404 5.07212436535 0.0
577 2 65.8903236404 0.124190365354 0.0
578 2 64.9625236404 2.70579436535 0.0
579 2 67.0729236404 2.75926436535 0.0
580 2 72.4429236404 81.6945143654 0.0
581 2 73.2470236404 2.48095436535 0.0
582 2 75.0812236404 1.12562436535 0.0
583 2 77.5298236404 0.202151365354 0.0
584 2 77.6165236404 2.50387436535 0.0
585 2 0.716893640412 4.91869436535 0.0
586 2 2.09361364041 7.11743436535 0.0
587 2 77.6820236404 7.45228436535 0.0
588 2 7.10138364041 6.92784436535 0.0
589 2 7.11706364041 4.37890436535 0.0
590 2 9.39719364041 5.79404436535 0.0
591 2 11.2413236404 4.30709436535 0.0
592 2 11.8759236404 6.93530436535 0.0
593 2 16.0322236404 5.33469436535 0.0
594 2 17.0072236404 7.56409436535 0.0
595 2 14.3405236404 7.39745436535 0.0
596 2 21.5625236404 5.67008436535 0.0
597 2 21.7780236404 8.45748436535 0.0
598 2 19.6664236404 7.56353436535 0.0
599 2 26.9880236404 5.10605436535 0.0
600 2 28.5097236404 7.13266436535 0.0
601 2 26.1295236404 7.80152436535 0.0
602 2 33.4575236404 6.85091436535 0.0
603 2 32.9943236404 4.38528436535 0.0
604 2 35.5597236404 5.59617436535 0.0
605 2 37.0767236404 3.98862436535 0.0
606 2 38.4321236404 6.17588436535 0.0
607 2 41.9754236404 3.24361436535 0.0
608 2 41.0180236404 5.61288436535 0.0
609 2 43.5981236404 5.38652436535 0.0
610 2 47.0842236404 2.91186436535 0.0
611 2 48.9096236404 4.46658436535 0.0
612 2 46.2143236404 5.29398436535 0.0
613 2 51.1231236404 5.72089436535 0.0
614 2 53.4304236404 6.87644436535 0.0
615 2 51.6240236404 8.45688436535 0.0
616 2 59.1118236404 7.33793436535 0.0
617 2 56.3404236404 6.82639436535 0.0
618 2 62.7484236404 4.27513436535 0.0
619 2 61.1054236404 6.27122436535 0.0
620 2 69.1055236404 4.67648436535 0.0
621 2 66.9229236404 5.42307436535 0.0
622 2 73.7228236404 5.31510436535 0.0
623 2 75.2736236404 7.57206436535 0.0
624 2 72.7458236404 7.66186436535 0.0
625 2 1.33778364041 11.8072143654 0.0
626 2 3.86071364041 11.6099143654 0.0
627 2 2.81458364041 9.44338436535 0.0
628 2 7.13036364041 9.46005436535 0.0
629 2 9.09173364041 11.5406143654 0.0
630 2 6.50301364041 11.6597143654 0.0
631 2 12.9751236404 9.50466436535 0.0
632 2 14.3719236404 11.7830143654 0.0
633 2 11.7205236404 11.7030143654 0.0
634 2 18.3873236404 9.75581436535 0.0
635 2 19.7319236404 11.9956143654 0.0
636 2 17.0484236404 11.8581143654 0.0
637 2 23.8680236404 9.40879436535 0.0
638 2 21.8989236404 11.2446143654 0.0
639 2 29.3840236404 9.35700436535 0.0
640 2 30.3018236404 11.6690143654 0.0
641 2 27.7486236404 11.4623143654 0.0
642 2 34.9861236404 12.1169143654 0.0
643 2 33.5854236404 9.47345436535 0.0
644 2 32.8177236404 11.6787143654 0.0
645 2 41.1760236404 10.4227143654 0.0
646 2 40.7182236404 7.88465436535 0.0
647 2 43.2238236404 9.09655436535 0.0
648 2 44.9638236404 7.59716436535 0.0
649 2 45.7456236404 10.2293143654 0.0
650 2 50.6298236404 10.9933143654 0.0
651 2 53.1911236404 10.2952143654 0.0
652 2 56.0515236404 10.8302143654 0.0
653 2 54.8804236404 8.70253436535 0.0
654 2 61.5850236404 11.0027143654 0.0
655 2 61.6280236404 8.76945436535 0.0
656 2 64.1292236404 9.80471436535 0.0
657 2 65.8306236404 8.04603436535 0.0
658 2 66.5394236404 10.8010143654 0.0
659 2 70.8069236404 9.64483436535 0.0
660 2 71.6512236404 11.9158143654 0.0
661 2 68.9391236404 11.5722143654 0.0
662 2 76.1199236404 9.88341436535 0.0
663 2 76.9288236404 12.1963143654 0.0
664 2 74.3131236404 11.9987143654 0.0
665 2 0.788633640412 16.6806143654 0.0
666 2 0.898663640412 14.1946143654 0.0
667 2 3.20920364041 15.5130143654 0.0
668 2 4.96562364041 13.8090143654 0.0
669 2 6.08241364041 15.8973143654 0.0
670 2 10.3019236404 13.8710143654 0.0
671 2 11.7711236404 15.8184143654 0.0
672 2 8.89380364041 16.0158143654 0.0
673 2 16.0042236404 13.9918143654 0.0
674 2 17.4740236404 16.3505143654 0.0
675 2 14.7136236404 15.7866143654 0.0
676 2 21.3564236404 14.0706143654 0.0
677 2 22.7337236404 16.4088143654 0.0
678 2 20.1147236404 16.3445143654 0.0
679 2 26.1757236404 13.4383143654 0.0
680 2 27.5133236404 15.7590143654 0.0
681 2 25.1182236404 15.9411143654 0.0
682 2 31.4998236404 13.9441143654 0.0
683 2 32.8732236404 15.9330143654 0.0
684 2 30.1124236404 16.0373143654 0.0
685 2 37.0665236404 13.6165143654 0.0
686 2 35.0158236404 14.9067143654 0.0
687 2 41.7814236404 13.0054143654 0.0
688 2 44.0071236404 14.2867143654 0.0
689 2 41.5144236404 15.4396143654 0.0
690 2 46.0572236404 15.5992143654 0.0
691 2 48.0862236404 17.0560143654 0.0
692 2 45.9564236404 18.3681143654 0.0
693 2 50.4006236404 13.4052143654 0.0
694 2 52.6920236404 15.0229143654 0.0
695 2 50.4081236404 15.9454143654 0.0
696 2 57.0440236404 12.9705143654 0.0
697 2 58.3483236404 14.8656143654 0.0
698 2 55.4839236404 14.9720143654 0.0
699 2 60.8641236404 15.9301143654 0.0
700 2 63.3218236404 16.9411143654 0.0
701 2 60.9979236404 18.3443143654 0.0
702 2 67.2335236404 13.5306143654 0.0
703 2 68.3928236404 15.9137143654 0.0
704 2 65.9345236404 16.0266143654 0.0
705 2 73.6828236404 16.5164143654 0.0
706 2 72.7121236404 14.1761143654 0.0
707 2 71.0213236404 16.2354143654 0.0
708 2 0.407103640412 19.2174143654 0.0
709 2 1.71565364041 21.8616143654 0.0
710 2 77.5571236404 21.4790143654 0.0
711 2 6.85252364041 17.9399143654 0.0
712 2 7.62746364041 20.1137143654 0.0
713 2 5.59753364041 20.6842143654 0.0
714 2 13.7082236404 17.6291143654 0.0
715 2 14.8498236404 20.3723143654 0.0
716 2 12.7908236404 19.7590143654 0.0
717 2 19.1119236404 18.6248143654 0.0
718 2 20.8051236404 20.9225143654 0.0
719 2 18.7224236404 21.3839143654 0.0
720 2 25.3899236404 20.9430143654 0.0
721 2 24.9494236404 18.3466143654 0.0
722 2 27.4293236404 19.6921143654 0.0
723 2 28.8997236404 18.1130143654 0.0
724 2 30.3186236404 20.3053143654 0.0
725 2 34.4381236404 17.7458143654 0.0
726 2 35.7567236404 19.8216143654 0.0
727 2 33.0266236404 19.9692143654 0.0
728 2 40.0279236404 17.7397143654 0.0
729 2 41.2265236404 19.8905143654 0.0
730 2 38.4995236404 19.8569143654 0.0
731 2 46.5463236404 20.8706143654 0.0
732 2 44.0097236404 20.1036143654 0.0
733 2 49.9600236404 18.6460143654 0.0
734 2 51.6149236404 20.6341143654 0.0
735 2 49.0024236404 21.0241143654 0.0
736 2 53.8587236404 19.6109143654 0.0
737 2 56.1563236404 19.1957143654 0.0
738 2 54.4279236404 17.0329143654 0.0
739 2 61.0514236404 20.8246143654 0.0
740 2 58.7058236404 19.8941143654 0.0
741 2 64.7583236404 18.6009143654 0.0
742 2 65.7461236404 20.9426143654 0.0
743 2 63.3302236404 21.0371143654 0.0
744 2 69.4514236404 18.3330143654 0.0
745 2 70.4210236404 20.8800143654 0.0
746 2 68.1435236404 20.7850143654 0.0
747 2 72.7752236404 21.1013143654 0.0
748 2 75.1590236404 21.3805143654 0.0
749 2 74.4000236404 18.8995143654 0.0
750 2 76.5671236404 23.7863143654 0.0
751 2 0.220265640412 25.7559143654 0.0
752 2 75.5888236404 26.0331143654 0.0
753 2 3.93396364041 22.7086143654 0.0
754 2 2.20576364041 24.6319143654 0.0
755 2 10.1913236404 20.7216143654 0.0
756 2 8.38572364041 22.5078143654 0.0
757 2 16.5634236404 22.2976143654 0.0
758 2 14.0625236404 22.8979143654 0.0
759 2 21.4000236404 23.5141143654 0.0
760 2 22.1840236404 26.0735143654 0.0
761 2 19.7337236404 25.4806143654 0.0
762 2 24.4928236404 26.2064143654 0.0
763 2 26.8220236404 26.1334143654 0.0
764 2 25.3197236404 23.7362143654 0.0
765 2 32.4023236404 22.1996143654 0.0
766 2 33.2697236404 24.9172143654 0.0
767 2 34.8201236404 23.3050143654 0.0
768 2 36.8652236404 21.9507143654 0.0
769 2 36.9479236404 24.7192143654 0.0
770 2 42.5360236404 22.0531143654 0.0
771 2 43.8618236404 24.3355143654 0.0
772 2 41.4087236404 24.4990143654 0.0
773 2 47.8555236404 23.3108143654 0.0
774 2 49.0846236404 25.7484143654 0.0
775 2 46.4329236404 25.1944143654 0.0
776 2 55.6867236404 24.1565143654 0.0
777 2 54.1613236404 21.9577143654 0.0
778 2 56.5199236404 21.5641143654 0.0
779 2 54.5042236404 26.3309143654 0.0
780 2 57.3109236404 26.0725143654 0.0
781 2 61.6618236404 23.3555143654 0.0
782 2 62.6607236404 25.5237143654 0.0
783 2 60.0147236404 25.6206143654 0.0
784 2 66.8655236404 23.2641143654 0.0
785 2 67.9669236404 25.5710143654 0.0
786 2 65.3447236404 25.4567143654 0.0