# input file

1350 atoms
2 atom types

0.0 78.4433814967 xlo xhi
0.0 81.3540781052 ylo yhi
-10.0 10.0 zlo zhi
0.0 0.0 0.0 xy xz yz

Masses

1 28.0855 #Si
2 15.9994 #O

Atoms

1 1 2.6057885252 2.52016905261 0.0
2 1 7.4429585252 1.58435905261 0.0
3 1 13.0202285252 1.66556905261 0.0
4 1 17.9605285252 1.32066905261 0.0
5 1 23.3499285252 1.11033905261 0.0
6 1 30.6662285252 0.575919052614 0.0
7 1 33.6817285252 0.852049052614 0.0
8 1 38.6657285252 1.08269905261 0.0
9 1 43.8005285252 1.35187905261 0.0
10 1 49.1832285252 2.07879905261 0.0
11 1 54.8147285252 1.34318905261 0.0
12 1 60.2370285252 1.73631905261 0.0
13 1 65.7651285252 2.26869905261 0.0
14 1 70.9589285252 1.81068905261 0.0
15 1 76.1477285252 1.68415905261 0.0
16 1 78.4160285252 6.78410905261 0.0
17 1 7.3561985252 5.96777905261 0.0
18 1 10.3483285252 5.73750905261 0.0
19 1 15.5368285252 6.19553905261 0.0
20 1 20.6679285252 5.66642905261 0.0
21 1 25.4307285252 5.87576905261 0.0
22 1 30.2983285252 5.58650905261 0.0
23 1 35.4796285252 5.71171905261 0.0
24 1 40.4241285252 5.76090905261 0.0
25 1 45.5562285252 5.86965905261 0.0
26 1 51.2541285252 5.56222905261 0.0
27 1 56.8504285252 5.87524905261 0.0
28 1 62.2498285252 6.31534905261 0.0
29 1 70.5261285252 5.79169905261 0.0
30 1 73.5089285252 6.26045905261 0.0
31 1 2.7736885252 11.1249390526 0.0
32 1 7.4868485252 10.8198390526 0.0
33 1 12.9005285252 10.4857390526 0.0
34 1 18.2954285252 10.5066390526 0.0
35 1 23.5460285252 10.5983390526 0.0
36 1 28.6692285252 10.3935390526 0.0
37 1 33.0097285252 12.7635390526 0.0
38 1 38.1410285252 10.5241390526 0.0
39 1 43.7079285252 10.2778390526 0.0
40 1 49.2331285252 9.46590905261 0.0
41 1 52.0434285252 8.44488905261 0.0
42 1 58.6688285252 10.2946390526 0.0
43 1 63.2119285252 9.20113905261 0.0
44 1 70.1751285252 11.1447390526 0.0
45 1 76.2656285252 11.2719390526 0.0
46 1 1.9604785252 15.4593390526 0.0
47 1 4.9578985252 15.7859390526 0.0
48 1 10.0795285252 14.9529390526 0.0
49 1 15.4267285252 14.8651390526 0.0
50 1 20.8160285252 15.0758390526 0.0
51 1 26.2682285252 15.1605390526 0.0
52 1 31.6415285252 15.4815390526 0.0
53 1 36.7631285252 15.6704390526 0.0
54 1 41.7782285252 14.4805390526 0.0
55 1 45.6901285252 17.7205390526 0.0
56 1 50.2272285252 15.3882390526 0.0
57 1 55.2885285252 14.1859390526 0.0
58 1 59.9986285252 12.9707390526 0.0
59 1 66.9166285252 14.8496390526 0.0
60 1 71.5895285252 13.7669390526 0.0
61 1 1.0561085252 22.1095390526 0.0
62 1 9.0544085252 19.6155390526 0.0
63 1 12.0677285252 19.2325390526 0.0
64 1 17.4251285252 19.2931390526 0.0
65 1 23.0989285252 19.4540390526 0.0
66 1 28.4764285252 19.7897390526 0.0
67 1 33.8371285252 20.1975390526 0.0
68 1 41.1079285252 19.2680390526 0.0
69 1 43.9914285252 20.1755390526 0.0
70 1 49.3620285252 20.8519390526 0.0
71 1 54.0895285252 19.1943390526 0.0
72 1 58.9009285252 18.1927390526 0.0
73 1 64.0410285252 18.1080390526 0.0
74 1 69.1217285252 18.9937390526 0.0
75 1 74.2573285252 19.6065390526 0.0
76 1 77.3205285252 24.2178390526 0.0
77 1 3.9268885252 25.3209390526 0.0
78 1 9.0381985252 24.3579390526 0.0
79 1 14.2646285252 23.6903390526 0.0
80 1 19.5221285252 23.3792390526 0.0
81 1 24.8193285252 23.9560390526 0.0
82 1 31.2486285252 24.4541390526 0.0
83 1 36.3830285252 24.6841390526 0.0
84 1 41.2685285252 24.2551390526 0.0
85 1 46.9472285252 24.7885390526 0.0
86 1 52.6466285252 24.5965390526 0.0
87 1 58.5784285252 22.9107390526 0.0
88 1 61.5901285252 22.7053390526 0.0
89 1 66.4917285252 23.1197390526 0.0
90 1 71.4520285252 25.4802390526 0.0
91 1 1.3128485252 30.8518390526 0.0
92 1 7.0593085252 29.2849390526 0.0
93 1 12.4895285252 28.5135390526 0.0
94 1 17.2775285252 28.0125390526 0.0
95 1 22.4616285252 29.5799390526 0.0
96 1 26.7296285252 26.2912390526 0.0
97 1 33.9524285252 29.1140390526 0.0
98 1 38.9707285252 29.1912390526 0.0
99 1 44.4513285252 28.4963390526 0.0
100 1 50.1011285252 28.6893390526 0.0
101 1 55.4816285252 29.4398390526 0.0
102 1 59.8274285252 28.2779390526 0.0
103 1 64.3932285252 30.1230390526 0.0
104 1 69.9293285252 28.0884390526 0.0
105 1 74.7785285252 28.3064390526 0.0
106 1 78.1510285252 33.3835390526 0.0
107 1 4.3874485252 33.4638390526 0.0
108 1 9.4672485252 33.1206390526 0.0
109 1 15.3550285252 33.1742390526 0.0
110 1 23.2106285252 32.4546390526 0.0
111 1 26.1413285252 31.8772390526 0.0
112 1 30.8331285252 32.7619390526 0.0
113 1 36.7366285252 33.8135390526 0.0
114 1 42.5604285252 32.9124390526 0.0
115 1 47.6493285252 32.6059390526 0.0
116 1 52.4683285252 33.3536390526 0.0
117 1 58.7957285252 33.8423390526 0.0
118 1 63.8013285252 33.1124390526 0.0
119 1 68.4547285252 32.5186390526 0.0
120 1 72.9463285252 35.4092390526 0.0
121 1 4.1060585252 39.5168390526 0.0
122 1 6.5678985252 37.8087390526 0.0
123 1 10.7932285252 35.7922390526 0.0
124 1 17.1370285252 35.6042390526 0.0
125 1 23.6789285252 38.0857390526 0.0
126 1 28.4921285252 37.0942390526 0.0
127 1 32.1117285252 35.5002390526 0.0
128 1 38.5892285252 36.1577390526 0.0
129 1 44.7241285252 40.0110390526 0.0
130 1 49.5042285252 37.6732390526 0.0
131 1 54.2584285252 35.7474390526 0.0
132 1 61.8799285252 38.1631390526 0.0
133 1 67.1759285252 37.5834390526 0.0
134 1 72.3450285252 38.3453390526 0.0
135 1 76.8909285252 38.2316390526 0.0
136 1 1.5505685252 44.6096390526 0.0
137 1 5.8910885252 44.3978390526 0.0
138 1 10.5885285252 41.2388390526 0.0
139 1 15.6199285252 41.2353390526 0.0
140 1 20.8152285252 42.4403390526 0.0
141 1 26.5168285252 42.2291390526 0.0
142 1 32.0455285252 41.2955390526 0.0
143 1 37.4356285252 41.5620390526 0.0
144 1 42.9451285252 42.4201390526 0.0
145 1 48.0990285252 43.0491390526 0.0
146 1 54.0496285252 40.6684390526 0.0
147 1 58.1549285252 42.1411390526 0.0
148 1 64.9522285252 42.2409390526 0.0
149 1 69.9807285252 42.4116390526 0.0
150 1 74.9269285252 43.2312390526 0.0
151 1 3.5341585252 49.5202390526 0.0
152 1 11.2277285252 45.2883390526 0.0
153 1 13.3198285252 48.8075390526 0.0
154 1 18.3971285252 46.2154390526 0.0
155 1 23.8584285252 46.3178390526 0.0
156 1 29.4646285252 45.8783390526 0.0
157 1 35.0980285252 45.8191390526 0.0
158 1 40.4381285252 46.1507390526 0.0
159 1 45.5438285252 47.2208390526 0.0
160 1 50.4432285252 44.9138390526 0.0
161 1 57.7104285252 45.1505390526 0.0
162 1 61.9975285252 46.7476390526 0.0
163 1 67.0928285252 46.9221390526 0.0
164 1 72.1014285252 47.4601390526 0.0
165 1 76.7931285252 48.3104390526 0.0
166 1 0.596489525203 53.2504390526 0.0
167 1 5.5989485252 51.6858390526 0.0
168 1 12.7821285252 51.7382390526 0.0
169 1 17.0764285252 51.2564390526 0.0
170 1 21.5513285252 50.5416390526 0.0
171 1 26.6766285252 50.2009390526 0.0
172 1 31.7163285252 49.8642390526 0.0
173 1 38.8548285252 50.1876390526 0.0
174 1 43.7302285252 51.0334390526 0.0
175 1 47.7568285252 49.2667390526 0.0
176 1 53.3750285252 48.6238390526 0.0
177 1 57.8882285252 50.5706390526 0.0
178 1 65.9235285252 51.0940390526 0.0
179 1 68.8686285252 51.7542390526 0.0
180 1 73.7264285252 52.6700390526 0.0
181 1 3.4049185252 56.9126390526 0.0
182 1 10.9938285252 55.8408390526 0.0
183 1 13.9806285252 56.2977390526 0.0
184 1 19.0634285252 55.7954390526 0.0
185 1 23.7596285252 54.8734390526 0.0
186 1 30.0638285252 54.5340390526 0.0
187 1 33.0160285252 54.9120390526 0.0
188 1 37.2400285252 55.2179390526 0.0
189 1 40.6434285252 58.1764390526 0.0
190 1 48.1493285252 54.6641390526 0.0
191 1 53.9189285252 54.0630390526 0.0
192 1 58.7466285252 53.4720390526 0.0
193 1 65.8536285252 56.4512390526 0.0
194 1 71.0138285252 56.9570390526 0.0
195 1 76.0341285252 57.3534390526 0.0
196 1 0.375877525203 60.9218390526 0.0
197 1 5.9963885252 61.5266390526 0.0
198 1 10.8908285252 60.3058390526 0.0
199 1 16.7885285252 60.6209390526 0.0
200 1 22.8097285252 59.9301390526 0.0
201 1 25.7771285252 59.6918390526 0.0
202 1 30.1372285252 62.9308390526 0.0
203 1 35.3059285252 60.1437390526 0.0
204 1 43.6204285252 58.5869390526 0.0
205 1 47.1550285252 59.8190390526 0.0
206 1 51.8070285252 58.2820390526 0.0
207 1 56.9617285252 58.5855390526 0.0
208 1 62.2483285252 59.9906390526 0.0
209 1 67.8906285252 61.2490390526 0.0
210 1 73.3031285252 61.8888390526 0.0
211 1 1.7540685252 63.5689390526 0.0
212 1 8.4275785252 65.4560390526 0.0
213 1 13.2930285252 64.0121390526 0.0
214 1 18.8139285252 65.3158390526 0.0
215 1 23.9228285252 65.3979390526 0.0
216 1 28.8932285252 65.6950390526 0.0
217 1 34.0358285252 65.0094390526 0.0
218 1 38.9842285252 63.0569390526 0.0
219 1 45.8530285252 66.8882390526 0.0
220 1 50.4502285252 63.6667390526 0.0
221 1 54.8677285252 65.4497390526 0.0
222 1 59.9352285252 63.4779390526 0.0
223 1 64.6466285252 64.4330390526 0.0
224 1 69.2444285252 63.9784390526 0.0
225 1 77.6322285252 65.0853390526 0.0
226 1 0.00534352520276 70.2000390526 0.0
227 1 5.4864385252 69.9782390526 0.0
228 1 12.1755285252 69.0899390526 0.0
229 1 15.0704285252 68.4293390526 0.0
230 1 20.5038285252 69.7789390526 0.0
231 1 26.0342285252 70.3372390526 0.0
232 1 32.7992285252 69.6191390526 0.0
233 1 39.2481285252 67.3165390526 0.0
234 1 41.2119285252 65.0561390526 0.0
235 1 48.9131285252 69.2097390526 0.0
236 1 55.2527285252 68.4105390526 0.0
237 1 58.2410285252 68.5557390526 0.0
238 1 62.6270285252 68.6690390526 0.0
239 1 66.5393285252 71.6280390526 0.0
240 1 73.2246285252 70.5225390526 0.0
241 1 2.9767085252 74.4428390526 0.0
242 1 8.0230585252 74.3590390526 0.0
243 1 13.1103285252 74.2162390526 0.0
244 1 17.4515285252 73.0538390526 0.0
245 1 22.3525285252 75.0074390526 0.0
246 1 28.1839285252 72.4438390526 0.0
247 1 35.1489285252 73.6408390526 0.0
248 1 39.8283285252 72.9525390526 0.0
249 1 45.1026285252 72.8413390526 0.0
250 1 51.6870285252 74.2320390526 0.0
251 1 54.6779285252 74.0455390526 0.0
252 1 59.5701285252 73.6064390526 0.0
253 1 64.6093285252 73.9162390526 0.0
254 1 68.7743285252 73.6407390526 0.0
255 1 76.1409285252 74.8456390526 0.0
256 1 78.3251285252 3.77113905261 0.0
257 1 5.3616385252 3.72993905261 0.0
258 1 10.2236285252 2.73656905261 0.0
259 1 15.6079285252 3.19304905261 0.0
260 1 20.7094285252 2.62068905261 0.0
261 1 25.8049285252 2.88942905261 0.0
262 1 28.8294285252 2.95142905261 0.0
263 1 36.0734285252 2.71253905261 0.0
264 1 41.1344285252 2.81048905261 0.0
265 1 46.3130285252 2.98828905261 0.0
266 1 52.1265285252 2.71059905261 0.0
267 1 57.4181285252 2.89833905261 0.0
268 1 62.8698285252 3.31892905261 0.0
269 1 68.5095285252 3.55010905261 0.0
270 1 73.6011285252 3.25836905261 0.0
271 1 2.6770785252 8.13595905261 0.0
272 1 5.6731785252 8.42117905261 0.0
273 1 12.8121285252 7.47666905261 0.0
274 1 18.2565285252 7.48595905261 0.0
275 1 22.9849285252 7.61502905261 0.0
276 1 27.9695285252 7.47605905261 0.0
277 1 32.8331285252 7.22253905261 0.0
278 1 37.9319285252 7.48805905261 0.0
279 1 42.9670285252 7.36803905261 0.0
280 1 48.4525285252 6.58394905261 0.0
281 1 55.0304285252 8.30149905261 0.0
282 1 59.4416285252 7.38275905261 0.0
283 1 66.1898285252 9.13389905261 0.0
284 1 69.0737285252 8.38295905261 0.0
285 1 75.7851285252 8.27313905261 0.0
286 1 0.374397525203 12.8875390526 0.0
287 1 5.2589885252 12.8067390526 0.0
288 1 10.2687285252 11.9502390526 0.0
289 1 15.5886285252 11.8555390526 0.0
290 1 20.8941285252 12.0546390526 0.0
291 1 26.1806285252 12.1237390526 0.0
292 1 31.6803285252 10.0465390526 0.0
293 1 36.0429285252 12.7305390526 0.0
294 1 40.9833285252 11.5833390526 0.0
295 1 47.6110285252 13.8495390526 0.0
296 1 46.6543285252 11.0080390526 0.0
297 1 55.8127285252 11.2069390526 0.0
298 1 62.8970285252 12.2413390526 0.0
299 1 67.2895285252 11.9001390526 0.0
300 1 74.5692285252 13.7538390526 0.0
301 1 78.0435285252 17.2863390526 0.0
302 1 7.7660685252 16.8900390526 0.0
303 1 12.7688285252 16.3025390526 0.0
304 1 18.0567285252 16.3404390526 0.0
305 1 23.5158285252 16.4567390526 0.0
306 1 28.8623285252 16.7613390526 0.0
307 1 34.1401285252 17.1900390526 0.0
308 1 39.6478285252 16.6171390526 0.0
309 1 44.7720285252 14.8854390526 0.0
310 1 48.6780285252 17.9468390526 0.0
311 1 53.1236285252 16.2994390526 0.0
312 1 58.0922285252 15.2921390526 0.0
313 1 63.9481285252 15.0922390526 0.0
314 1 69.6507285252 16.0515390526 0.0
315 1 75.1092285252 16.7104390526 0.0
316 1 77.2269285252 20.1517390526 0.0
317 1 4.1066885252 22.3262390526 0.0
318 1 7.1532285252 21.9717390526 0.0
319 1 14.7159285252 20.6976390526 0.0
320 1 20.2215285252 20.4523390526 0.0
321 1 25.6866285252 21.0444390526 0.0
322 1 31.0517285252 21.4230390526 0.0
323 1 36.4778285252 21.6890390526 0.0
324 1 39.4993285252 21.7955390526 0.0
325 1 46.5141285252 21.8300390526 0.0
326 1 52.2741285252 21.6061390526 0.0
327 1 56.8695285252 20.4021390526 0.0
328 1 61.5049285252 19.6976390526 0.0
329 1 66.3161285252 20.1001390526 0.0
330 1 71.4807285252 20.8389390526 0.0
331 1 1.0694585252 26.2579390526 0.0
332 1 6.7589685252 26.3116390526 0.0
333 1 11.8531285252 25.5288390526 0.0
334 1 16.9715285252 25.0092390526 0.0
335 1 21.9939285252 25.0784390526 0.0
336 1 29.6513285252 27.0160390526 0.0
337 1 33.7583285252 26.1118390526 0.0
338 1 38.9755285252 26.1928390526 0.0
339 1 44.0228285252 25.5252390526 0.0
340 1 49.8359285252 25.7012390526 0.0
341 1 55.0468285252 26.4517390526 0.0
342 1 57.9943285252 25.8642390526 0.0
343 1 63.8764285252 24.7015390526 0.0
344 1 69.5396285252 23.1641390526 0.0
345 1 74.4806285252 25.3157390526 0.0
346 1 77.7450285252 28.6625390526 0.0
347 1 4.2931585252 30.4813390526 0.0
348 1 9.9468285252 30.1554390526 0.0
349 1 15.0828285252 30.1211390526 0.0
350 1 20.2652285252 27.5640390526 0.0
351 1 25.3971285252 28.9759390526 0.0
352 1 31.0147285252 29.7367390526 0.0
353 1 36.4402285252 30.8167390526 0.0
354 1 41.8573285252 30.0108390526 0.0
355 1 47.2467285252 29.6390390526 0.0
356 1 52.6176285252 30.3579390526 0.0
357 1 58.1796285252 30.8383390526 0.0
358 1 62.7795285252 27.5546390526 0.0
359 1 67.3860285252 29.7115390526 0.0
360 1 72.2787285252 29.9609390526 0.0
361 1 2.0144385252 35.2711390526 0.0
362 1 7.0164185252 34.8425390526 0.0
363 1 13.7584285252 35.7397390526 0.0
364 1 19.8830285252 36.7165390526 0.0
365 1 22.5207285252 35.3452390526 0.0
366 1 28.1543285252 34.0994390526 0.0
367 1 34.9926285252 36.2478390526 0.0
368 1 41.5135285252 35.6978390526 0.0
369 1 45.2025285252 34.3024390526 0.0
370 1 49.7876285252 34.6894390526 0.0
371 1 57.1789285252 36.4188390526 0.0
372 1 61.5324285252 35.1284390526 0.0
373 1 66.3803285252 34.6778390526 0.0
374 1 71.4304285252 32.8294390526 0.0
375 1 75.9338285252 35.3841390526 0.0
376 1 1.4310985252 38.1969390526 0.0
377 1 3.6186185252 42.4595390526 0.0
378 1 9.4727285252 38.4742390526 0.0
379 1 15.5314285252 38.1703390526 0.0
380 1 21.0309285252 39.4635390526 0.0
381 1 26.4205285252 39.2418390526 0.0
382 1 31.2025285252 38.3764390526 0.0
383 1 36.8635285252 38.5971390526 0.0
384 1 44.1422285252 37.0881390526 0.0
385 1 47.7199285252 40.0845390526 0.0
386 1 52.4554285252 38.1462390526 0.0
387 1 60.9468285252 41.0586390526 0.0
388 1 64.6821285252 39.2451390526 0.0
389 1 69.5573285252 39.4291390526 0.0
390 1 74.6760285252 40.2405390526 0.0
391 1 3.8327585252 46.5513390526 0.0
392 1 8.7673485252 43.5964390526 0.0
393 1 13.0827285252 42.8955390526 0.0
394 1 17.9106285252 43.2343390526 0.0
395 1 23.7012285252 43.3275390526 0.0
396 1 29.4633285252 42.8788390526 0.0
397 1 34.6872285252 42.8172390526 0.0
398 1 40.0263285252 43.1524390526 0.0
399 1 45.3435285252 44.2326390526 0.0
400 1 53.1030285252 43.5253390526 0.0
401 1 56.7970285252 39.4416390526 0.0
402 1 62.3583285252 43.7344390526 0.0
403 1 67.4111285252 43.9430390526 0.0
404 1 72.1926285252 44.4512390526 0.0
405 1 77.0846285252 45.3171390526 0.0
406 1 0.632118525203 50.2561390526 0.0
407 1 8.3881485252 50.4999390526 0.0
408 1 10.3802285252 48.1859390526 0.0
409 1 16.2838285252 48.3549390526 0.0
410 1 21.1092285252 47.5616390526 0.0
411 1 26.7440285252 47.2002390526 0.0
412 1 32.2896285252 46.9273390526 0.0
413 1 37.7018285252 47.3932390526 0.0
414 1 42.7070285252 48.1813390526 0.0
415 1 50.4499285252 47.9251390526 0.0
416 1 54.8252285252 45.9811390526 0.0
417 1 59.1707285252 47.8038390526 0.0
418 1 64.5043285252 48.4318390526 0.0
419 1 69.4298285252 48.8070390526 0.0
420 1 74.1245285252 49.6814390526 0.0
421 1 3.5458785252 53.9118390526 0.0
422 1 10.0734285252 52.9834390526 0.0
423 1 15.1443285252 53.5420390526 0.0
424 1 19.6108285252 52.8303390526 0.0
425 1 24.2122285252 51.9043390526 0.0
426 1 29.3000285252 51.6332390526 0.0
427 1 33.7740285252 52.0206390526 0.0
428 1 36.7271285252 52.2716390526 0.0
429 1 41.0189285252 52.2978390526 0.0
430 1 46.5933285252 52.0458390526 0.0
431 1 54.9297285252 51.2033390526 0.0
432 1 61.6166285252 54.3978390526 0.0
433 1 64.5468285252 53.7437390526 0.0
434 1 70.9810285252 53.9264390526 0.0
435 1 76.2292285252 54.3530390526 0.0
436 1 0.560085525203 57.9399390526 0.0
437 1 5.9574485252 58.5221390526 0.0
438 1 8.9355785252 58.0199390526 0.0
439 1 16.6719285252 57.6251390526 0.0
440 1 21.7509285252 57.1128390526 0.0
441 1 26.0960285252 56.7247390526 0.0
442 1 29.0131285252 57.3258390526 0.0
443 1 34.9696285252 57.1700390526 0.0
444 1 40.2263285252 55.2052390526 0.0
445 1 46.1850285252 56.9838390526 0.0
446 1 51.1414285252 55.3240390526 0.0
447 1 56.5557285252 55.5704390526 0.0
448 1 62.9230285252 57.0898390526 0.0
449 1 68.2887285252 58.2509390526 0.0
450 1 73.3861285252 58.8478390526 0.0
451 1 4.6575685252 64.2221390526 0.0
452 1 8.8294285252 62.4827390526 0.0
453 1 13.7990285252 61.0653390526 0.0
454 1 19.2614285252 62.3671390526 0.0
455 1 22.2407285252 62.8679390526 0.0
456 1 28.6973285252 60.3034390526 0.0
457 1 33.0667285252 62.1772390526 0.0
458 1 38.3313285252 60.1301390526 0.0
459 1 44.6346285252 61.4240390526 0.0
460 1 50.0002285252 60.6936390526 0.0
461 1 54.2885285252 59.9869390526 0.0
462 1 59.2931285252 60.5308390526 0.0
463 1 64.8823285252 61.4532390526 0.0
464 1 72.1796285252 64.7214390526 0.0
465 1 76.2426285252 62.4385390526 0.0
466 1 76.5279285252 67.8613390526 0.0
467 1 5.8488485252 66.9805390526 0.0
468 1 11.2931285252 66.2417390526 0.0
469 1 15.8419285252 65.5568390526 0.0
470 1 21.3483285252 66.9232390526 0.0
471 1 26.3025285252 67.2858390526 0.0
472 1 31.6647285252 66.8519390526 0.0
473 1 37.0169285252 65.3174390526 0.0
474 1 44.1376285252 64.4057390526 0.0
475 1 48.7907285252 66.2083390526 0.0
476 1 53.3511285252 62.8671390526 0.0
477 1 57.8472285252 65.5933390526 0.0
478 1 61.9520285252 65.7241390526 0.0
479 1 67.1192285252 66.1199390526 0.0
480 1 73.5158285252 67.4951390526 0.0
481 1 2.8018485252 71.4069390526 0.0
482 1 8.1755785252 71.3807390526 0.0
483 1 11.1621285252 71.8895390526 0.0
484 1 17.5326285252 70.0851390526 0.0
485 1 24.5995285252 73.0093390526 0.0
486 1 31.1438285252 72.1138390526 0.0
487 1 35.5966285252 70.6768390526 0.0
488 1 38.5635285252 70.2310390526 0.0
489 1 45.9884285252 69.9180390526 0.0
490 1 51.0479285252 71.3124390526 0.0
491 1 54.0270285252 71.1246390526 0.0
492 1 60.3657285252 70.6796390526 0.0
493 1 65.6534285252 68.7558390526 0.0
494 1 71.7519285252 73.1743390526 0.0
495 1 75.9379285252 71.8494390526 0.0
496 1 0.441182525203 76.0870390526 0.0
497 1 5.5580585252 76.0336390526 0.0
498 1 10.6234285252 75.8644390526 0.0
499 1 15.8354285252 75.5574390526 0.0
500 1 20.4145285252 72.7553390526 0.0
501 1 26.7703285252 75.0889390526 0.0
502 1 32.4052285252 74.8258390526 0.0
503 1 37.7437285252 75.1141390526 0.0
504 1 42.4681285252 74.3595390526 0.0
505 1 46.8037285252 75.3439390526 0.0
506 1 49.6421285252 76.4073390526 0.0
507 1 57.2693285252 75.5717390526 0.0
508 1 61.9923285252 75.3790390526 0.0
509 1 66.8241285252 75.9335390526 0.0
510 1 73.2846285252 75.7874390526 0.0
511 1 7.4649085252 78.3889390526 0.0
512 1 10.4745285252 78.8447390526 0.0
513 1 18.0468285252 77.6510390526 0.0
514 1 21.1077285252 77.7530390526 0.0
515 1 26.3867285252 78.1022390526 0.0
516 1 31.7564285252 77.7509390526 0.0
517 1 37.1034285252 78.0444390526 0.0
518 1 41.7810285252 77.3249390526 0.0
519 1 45.7405285252 80.3928390526 0.0
520 1 51.3481285252 78.9073390526 0.0
521 1 57.1514285252 78.6025390526 0.0
522 1 62.3485285252 78.3726390526 0.0
523 1 67.2319285252 80.9459390526 0.0
524 1 72.8727285252 78.7849390526 0.0
525 1 0.0677225252028 79.0761390526 0.0
526 1 2.5079285252 80.8675390526 0.0
527 1 5.5103185252 80.6448390526 0.0
528 1 13.2791285252 80.0368390526 0.0
529 1 16.3223285252 80.1205390526 0.0
530 1 23.6402285252 79.4420390526 0.0
531 1 29.1773285252 79.3001390526 0.0
532 1 34.3547285252 79.2757390526 0.0
533 1 39.6899285252 79.5607390526 0.0
534 1 44.7719285252 77.5677390526 0.0
535 1 48.7653285252 80.4790390526 0.0
536 1 54.3084285252 79.7170390526 0.0
537 1 59.8322285252 80.0725390526 0.0
538 1 65.3717285252 78.5784390526 0.0
539 1 70.2102285252 80.2663390526 0.0
540 1 75.6449285252 80.0602390526 0.0
541 2 2.4957485252 1.02027905261 0.0
542 2 3.9431885252 3.22064905261 0.0
543 2 1.2687085252 3.19089905261 0.0
544 2 6.5155185252 0.411388052614 0.0
545 2 6.4078185252 2.66178905261 0.0
546 2 8.8779685252 2.05505905261 0.0
547 2 13.1191285252 0.176916052614 0.0
548 2 14.2891285252 2.46298905261 0.0
549 2 11.6074285252 2.16574905261 0.0
550 2 17.1954285252 0.0107980526136 0.0
551 2 16.8343285252 2.33104905261 0.0
552 2 19.3655285252 1.89776905261 0.0
553 2 23.5005285252 80.9557390526 0.0
554 2 24.6166285252 1.95411905261 0.0
555 2 22.0181285252 1.84588905261 0.0
556 2 29.7426285252 1.76008905261 0.0
557 2 29.8630285252 80.6487390526 0.0
558 2 32.1637285252 0.800439052614 0.0
559 2 34.1007285252 80.7550390526 0.0
560 2 34.8267285252 1.83657905261 0.0
561 2 39.2152285252 81.0100390526 0.0
562 2 39.8954285252 1.95947905261 0.0
563 2 37.3634285252 1.88821905261 0.0
564 2 44.6549285252 0.0920070526136 0.0
565 2 45.0460285252 2.19761905261 0.0
566 2 42.4531285252 2.04368905261 0.0
567 2 50.6573285252 2.35614905261 0.0
568 2 49.0098285252 0.596549052614 0.0
569 2 47.7720285252 2.62096905261 0.0
570 2 54.5626285252 81.2122390526 0.0
571 2 56.1361285252 2.07616905261 0.0
572 2 53.4718285252 2.05453905261 0.0
573 2 60.0604285252 0.220801052614 0.0
574 2 61.5699285252 2.49498905261 0.0
575 2 58.8362285252 2.35548905261 0.0
576 2 66.4437285252 0.898239052614 0.0
577 2 67.0750285252 3.07433905261 0.0
578 2 64.3136285252 2.77039905261 0.0
579 2 72.2792285252 2.53261905261 0.0
580 2 70.6824285252 0.343740052614 0.0
581 2 69.6827285252 2.59648905261 0.0
582 2 75.9040285252 0.201860052614 0.0
583 2 77.2623285252 2.70401905261 0.0
584 2 74.8617285252 2.46074905261 0.0
585 2 78.3290285252 5.27733905261 0.0
586 2 1.3561885252 7.41080905261 0.0
587 2 77.1121285252 7.54267905261 0.0
588 2 6.5529385252 7.21935905261 0.0
589 2 6.2985385252 4.89922905261 0.0
590 2 8.8555785252 5.96270905261 0.0
591 2 10.3431285252 4.23342905261 0.0
592 2 11.5563285252 6.63489905261 0.0
593 2 15.5780285252 4.69130905261 0.0
594 2 16.8802285252 6.86851905261 0.0
595 2 14.1777285252 6.84034905261 0.0
596 2 19.4331285252 6.54599905261 0.0
597 2 21.8166285252 6.65513905261 0.0
598 2 20.7002285252 4.14711905261 0.0
599 2 25.5357285252 4.37810905261 0.0
600 2 26.6832285252 6.70766905261 0.0
601 2 24.2051285252 6.73264905261 0.0
602 2 29.6326285252 4.23262905261 0.0
603 2 31.6247285252 6.30264905261 0.0
604 2 29.1591285252 6.56612905261 0.0
605 2 35.7797285252 4.21286905261 0.0
606 2 34.1610285252 6.48007905261 0.0
607 2 36.6835285252 6.63371905261 0.0
608 2 40.7748285252 4.28552905261 0.0
609 2 39.1701285252 6.60598905261 0.0
610 2 41.6802285252 6.60432905261 0.0
611 2 45.8687285252 4.41107905261 0.0
612 2 46.9926285252 6.30103905261 0.0
613 2 44.2555285252 6.58745905261 0.0
614 2 51.8466285252 4.19574905261 0.0
615 2 51.7554285252 6.96537905261 0.0
616 2 49.7669285252 5.85543905261 0.0
617 2 57.0751285252 4.37999905261 0.0
618 2 58.1816285252 6.58047905261 0.0
619 2 55.8550285252 7.02876905261 0.0
620 2 62.6300285252 4.83993905261 0.0
621 2 62.7657285252 7.75189905261 0.0
622 2 60.8017285252 6.76320905261 0.0
623 2 69.7900285252 7.09307905261 0.0
624 2 69.4544285252 4.73435905261 0.0
625 2 72.0003285252 6.10566905261 0.0
626 2 74.5834285252 7.33156905261 0.0
627 2 73.6851285252 4.75591905261 0.0
628 2 4.0192985252 11.9563390526 0.0
629 2 2.6435985252 9.64223905261 0.0
630 2 1.5365885252 11.9448390526 0.0
631 2 6.6128985252 9.59813905261 0.0
632 2 8.9152085252 11.2820390526 0.0
633 2 6.4542885252 11.9136390526 0.0
634 2 12.8270285252 8.98066905261 0.0
635 2 14.2506285252 11.1536390526 0.0
636 2 11.5848285252 11.2232390526 0.0
637 2 18.3081285252 8.99524905261 0.0
638 2 19.5929285252 11.2797390526 0.0
639 2 16.9385285252 11.1797390526 0.0
640 2 23.2630285252 9.10352905261 0.0
641 2 24.8658285252 11.3516390526 0.0
642 2 22.2290285252 11.3495390526 0.0
643 2 28.2360285252 8.94726905261 0.0
644 2 30.1798285252 10.2992390526 0.0
645 2 27.4779285252 11.3291390526 0.0
646 2 34.5264285252 12.6980390526 0.0
647 2 32.3698285252 11.3934390526 0.0
648 2 32.2316285252 14.0721390526 0.0
649 2 37.9940285252 9.00853905261 0.0
650 2 39.5746285252 11.0368390526 0.0
651 2 37.0513285252 11.5883390526 0.0
652 2 43.3321285252 8.81899905261 0.0
653 2 45.1757285252 10.6641390526 0.0
654 2 42.3547285252 10.9437390526 0.0
655 2 47.9661285252 10.2611390526 0.0
656 2 48.7733285252 8.04087905261 0.0
657 2 50.7387285252 9.21835905261 0.0
658 2 53.5327285252 8.42077905261 0.0
659 2 59.1321285252 8.86537905261 0.0
660 2 59.3902285252 11.6015390526 0.0
661 2 57.2522285252 10.7764390526 0.0
662 2 64.7124285252 9.04732905261 0.0
663 2 63.0199285252 10.7206390526 0.0
664 2 69.8466285252 9.67933905261 0.0
665 2 70.9978285252 12.3869390526 0.0
666 2 68.7498285252 11.6037390526 0.0
667 2 75.9620285252 9.78643905261 0.0
668 2 77.5481285252 12.0798390526 0.0
669 2 75.3391285252 12.4696390526 0.0
670 2 0.849438525203 16.4754390526 0.0
671 2 1.1226385252 14.1990390526 0.0
672 2 3.4386485252 15.7740390526 0.0
673 2 5.1735385252 14.2937390526 0.0
674 2 6.3084585252 16.4644390526 0.0
675 2 8.8786385252 15.8637390526 0.0
676 2 11.4457285252 15.5848390526 0.0
677 2 10.1574285252 13.4506390526 0.0
678 2 15.5001285252 13.3602390526 0.0
679 2 16.7548285252 15.5734390526 0.0
680 2 14.1032285252 15.5969390526 0.0
681 2 20.8490285252 13.5631390526 0.0
682 2 22.1687285252 15.7545390526 0.0
683 2 19.4457285252 15.7328390526 0.0
684 2 26.2402285252 13.6395390526 0.0
685 2 27.5721285252 15.9451390526 0.0
686 2 24.8931285252 15.8168390526 0.0
687 2 32.8631285252 16.3822390526 0.0
688 2 30.2384285252 16.0856390526 0.0
689 2 36.4801285252 14.1830390526 0.0
690 2 38.1879285252 16.2007390526 0.0
691 2 35.4849285252 16.4887390526 0.0
692 2 41.3114285252 13.0535390526 0.0
693 2 43.2853285252 14.6373390526 0.0
694 2 40.7144285252 15.5446390526 0.0
695 2 44.8088285252 18.9153390526 0.0
696 2 45.1310285252 16.3425390526 0.0
697 2 47.1827285252 17.8276390526 0.0
698 2 48.9979285252 14.4762390526 0.0
699 2 51.7018285252 15.7506390526 0.0
700 2 49.5010285252 16.7073390526 0.0
701 2 55.4081285252 12.6679390526 0.0
702 2 56.6726285252 14.7944390526 0.0
703 2 54.1722285252 15.2012390526 0.0
704 2 61.4550285252 12.6687390526 0.0
705 2 59.1173285252 14.1851390526 0.0
706 2 67.0352285252 13.3565390526 0.0
707 2 68.2502285252 15.5052390526 0.0
708 2 65.4505285252 15.0580390526 0.0
709 2 73.0736285252 13.7318390526 0.0
710 2 70.7047285252 14.9834390526 0.0
711 2 78.4140285252 21.0572390526 0.0
712 2 2.5824085252 22.0578390526 0.0
713 2 78.3778285252 23.1415390526 0.0
714 2 8.0785185252 20.7660390526 0.0
715 2 8.3470685252 18.2779390526 0.0
716 2 10.5760285252 19.5338390526 0.0
717 2 12.4616285252 17.7749390526 0.0
718 2 13.3674285252 20.0050390526 0.0
719 2 17.7103285252 17.8077390526 0.0
720 2 18.8312285252 19.8556390526 0.0
721 2 16.0750285252 20.0027390526 0.0
722 2 23.3259285252 17.9577390526 0.0
723 2 24.3930285252 20.2453390526 0.0
724 2 21.6566285252 19.9508390526 0.0
725 2 28.6734285252 18.2767390526 0.0
726 2 29.7539285252 20.6288390526 0.0
727 2 27.0862285252 20.4346390526 0.0
728 2 33.9931285252 18.6936390526 0.0
729 2 35.1813285252 20.9130390526 0.0
730 2 32.4444285252 20.8035390526 0.0
731 2 40.2651285252 20.5078390526 0.0
732 2 40.3570285252 17.9571390526 0.0
733 2 42.5443285252 19.7588390526 0.0
734 2 45.1682285252 21.1389390526 0.0
735 2 49.1335285252 19.3658390526 0.0
736 2 50.7959285252 21.2900390526 0.0
737 2 47.9500285252 21.3618390526 0.0
738 2 53.6044285252 17.7503390526 0.0
739 2 55.4772285252 19.8141390526 0.0
740 2 53.1686285252 20.3975390526 0.0
741 2 60.2307285252 18.8951390526 0.0
742 2 58.5252285252 16.7341390526 0.0
743 2 57.8474285252 19.2583390526 0.0
744 2 63.8679285252 16.6103390526 0.0
745 2 65.2031285252 19.0810390526 0.0
746 2 62.7636285252 18.8913390526 0.0
747 2 69.4627285252 17.5322390526 0.0
748 2 67.7178285252 19.5293390526 0.0
749 2 70.3488285252 19.8446390526 0.0
750 2 74.4941285252 18.0975390526 0.0
751 2 72.9070285252 20.3035390526 0.0
752 2 75.7031285252 20.0970390526 0.0
753 2 78.3910285252 25.2705390526 0.0
754 2 75.8404285252 24.6154390526 0.0
755 2 4.0180985252 23.8273390526 0.0
756 2 5.3182685252 25.8781390526 0.0
757 2 2.5279785252 25.8829390526 0.0
758 2 8.1525085252 23.1234390526 0.0
759 2 7.9389085252 25.3955390526 0.0
760 2 10.4619285252 24.8973390526 0.0
761 2 14.4714285252 22.1928390526 0.0
762 2 15.6134285252 24.3673390526 0.0
763 2 13.0354285252 24.5743390526 0.0
764 2 19.8721285252 21.9207390526 0.0
765 2 20.7997285252 24.1630390526 0.0
766 2 18.2268285252 24.1612390526 0.0
767 2 25.2956285252 22.5189390526 0.0
768 2 25.8432285252 25.0759390526 0.0
769 2 23.4046285252 24.5230390526 0.0
770 2 31.0882285252 22.9498390526 0.0
771 2 32.5532285252 25.2209390526 0.0
772 2 30.3798285252 25.6926390526 0.0
773 2 36.3608285252 23.1910390526 0.0
774 2 37.6692285252 25.4530390526 0.0
775 2 35.0772285252 25.4057390526 0.0
776 2 42.6879285252 24.7988390526 0.0
777 2 40.4454285252 22.9839390526 0.0
778 2 40.1828285252 25.3050390526 0.0
779 2 46.7223285252 23.3081390526 0.0
780 2 48.3882285252 25.2513390526 0.0
781 2 45.4917285252 25.1845390526 0.0
782 2 52.5765285252 23.0850390526 0.0
783 2 51.2239285252 25.1120390526 0.0
784 2 53.8532285252 25.5145390526 0.0
785 2 58.2653285252 24.3842390526 0.0
786 2 57.6404285252 21.7155390526 0.0
787 2 60.0873285252 22.8604390526 0.0
788 2 61.6376285252 21.1927390526 0.0
789 2 62.7236285252 23.7031390526 0.0