# input file

1350 atoms
2 atom types

0.0 79.1122154262 xlo xhi
0.0 80.3461783523 ylo yhi
-10.0 10.0 zlo zhi
0.0 0.0 0.0 xy xz yz

Masses

1 28.0855 #Si
2 15.9994 #O

Atoms

1 1 3.29847548993 1.47846917615 0.0
2 1 8.01713548993 1.38102917615 0.0
3 1 13.1747454899 1.78759917615 0.0
4 1 18.1669454899 2.25486917615 0.0
5 1 24.9464454899 1.62715917615 0.0
6 1 30.1063454899 1.64478917615 0.0
7 1 34.6213454899 1.73013917615 0.0
8 1 39.8452454899 1.71372917615 0.0
9 1 45.4072454899 1.99160917615 0.0
10 1 51.5617454899 1.68832917615 0.0
11 1 56.5202454899 1.45204917615 0.0
12 1 61.5355454899 1.10973917615 0.0
13 1 66.5028454899 2.10077917615 0.0
14 1 71.5573454899 1.35208917615 0.0
15 1 77.3495454899 0.964749176155 0.0
16 1 0.992355489929 5.79047917615 0.0
17 1 6.20338548993 6.27899917615 0.0
18 1 10.9728454899 6.05185917615 0.0
19 1 16.1226454899 6.56926917615 0.0
20 1 20.0776454899 4.62165917615 0.0
21 1 26.8723454899 6.08557917615 0.0
22 1 31.7327454899 6.69781917615 0.0
23 1 38.8379454899 5.75747917615 0.0
24 1 41.8602454899 5.85434917615 0.0
25 1 46.7469454899 4.67636917615 0.0
26 1 53.5467454899 6.18567917615 0.0
27 1 58.4348454899 5.84450917615 0.0
28 1 63.5383454899 6.21661917615 0.0
29 1 69.5043454899 6.28443917615 0.0
30 1 74.8767454899 5.01157917615 0.0
31 1 3.28412548993 10.5139891762 0.0
32 1 10.2831454899 10.5800891762 0.0
33 1 13.3079454899 10.7999891762 0.0
34 1 18.7656454899 10.5332891762 0.0
35 1 23.8053454899 9.97568917615 0.0
36 1 27.9985454899 13.0464891762 0.0
37 1 33.8175454899 11.6162891762 0.0
38 1 39.0414454899 10.4300891762 0.0
39 1 44.7218454899 9.91918917615 0.0
40 1 50.0735454899 9.98178917615 0.0
41 1 55.3968454899 10.6590891762 0.0
42 1 60.5919454899 10.5620891762 0.0
43 1 65.0516454899 8.81485917615 0.0
44 1 72.3230454899 9.77298917615 0.0
45 1 77.2913454899 9.81228917615 0.0
46 1 78.4117454899 14.4338891762 0.0
47 1 4.30276548993 15.3697891762 0.0
48 1 9.61723548993 15.7202891762 0.0
49 1 15.5950454899 15.0545891762 0.0
50 1 21.0905454899 15.0437891762 0.0
51 1 26.2462454899 15.5447891762 0.0
52 1 31.4888454899 15.8476891762 0.0
53 1 38.9308454899 14.5102891762 0.0
54 1 41.9511454899 14.2283891762 0.0
55 1 47.1792454899 14.3982891762 0.0
56 1 52.7008454899 14.7307891762 0.0
57 1 58.1658454899 15.1194891762 0.0
58 1 63.8504454899 14.3551891762 0.0
59 1 70.5809454899 14.2579891762 0.0
60 1 73.5778454899 14.1887891762 0.0
61 1 2.20466548993 20.6465891762 0.0
62 1 7.14337548993 21.4499891762 0.0
63 1 12.4981454899 19.0711891762 0.0
64 1 18.0809454899 19.4767891762 0.0
65 1 23.4804454899 20.0210891762 0.0
66 1 28.6730454899 20.1684891762 0.0
67 1 33.6964454899 20.0200891762 0.0
68 1 38.9640454899 19.4315891762 0.0
69 1 44.7017454899 18.9055891762 0.0
70 1 49.8668454899 18.8153891762 0.0
71 1 55.1969454899 19.2468891762 0.0
72 1 62.2368454899 18.4932891762 0.0
73 1 65.2210454899 18.8348891762 0.0
74 1 70.3157454899 19.7823891762 0.0
75 1 75.8160454899 19.0854891762 0.0
76 1 0.893661489929 23.3621891762 0.0
77 1 5.82924548993 24.1489891762 0.0
78 1 10.4483454899 23.8778891762 0.0
79 1 15.2795454899 23.3706891762 0.0
80 1 19.2058454899 22.3184891762 0.0
81 1 25.9017454899 24.6149891762 0.0
82 1 30.9687454899 24.7225891762 0.0
83 1 35.9327454899 24.0536891762 0.0
84 1 41.3013454899 23.0310891762 0.0
85 1 48.7318454899 23.1577891762 0.0
86 1 51.7803454899 23.3756891762 0.0
87 1 57.3090454899 24.1029891762 0.0
88 1 62.4622454899 23.3272891762 0.0
89 1 67.1647454899 25.6502891762 0.0
90 1 74.3613454899 23.5621891762 0.0
91 1 3.26527548993 28.3836891762 0.0
92 1 8.64766548993 28.8611891762 0.0
93 1 13.9491454899 28.1899891762 0.0
94 1 17.7707454899 30.8593891762 0.0
95 1 22.9816454899 28.8083891762 0.0
96 1 28.3423454899 29.2929891762 0.0
97 1 33.8290454899 29.0193891762 0.0
98 1 38.6877454899 27.7654891762 0.0
99 1 43.4352454899 29.6271891762 0.0
100 1 47.0435454899 31.0835891762 0.0
101 1 55.1557454899 27.8755891762 0.0
102 1 60.6351454899 28.2134891762 0.0
103 1 65.8952454899 28.3699891762 0.0
104 1 70.0371454899 26.5387891762 0.0
105 1 77.5710454899 27.5376891762 0.0
106 1 0.749512489929 32.7065891762 0.0
107 1 5.76044548993 32.9260891762 0.0
108 1 11.2223454899 32.8832891762 0.0
109 1 16.3024454899 33.5469891762 0.0
110 1 20.8059454899 33.9854891762 0.0
111 1 25.9904454899 33.4641891762 0.0
112 1 31.6408454899 33.3774891762 0.0
113 1 37.1125454899 32.9927891762 0.0
114 1 42.4151454899 32.4336891762 0.0
115 1 50.0090454899 30.8342891762 0.0
116 1 53.3497454899 32.6272891762 0.0
117 1 58.1783454899 32.3006891762 0.0
118 1 63.8974454899 32.7188891762 0.0
119 1 70.2081454899 31.8537891762 0.0
120 1 75.3399454899 31.7235891762 0.0
121 1 3.32381548993 37.4801891762 0.0
122 1 8.60830548993 37.1471891762 0.0
123 1 12.1262454899 40.1474891762 0.0
124 1 17.5682454899 38.7148891762 0.0
125 1 23.1783454899 38.2330891762 0.0
126 1 29.7158454899 37.3824891762 0.0
127 1 35.0496454899 37.4194891762 0.0
128 1 41.5713454899 36.6224891762 0.0
129 1 44.5828454899 36.4185891762 0.0
130 1 49.8470454899 36.6503891762 0.0
131 1 55.5055454899 37.1654891762 0.0
132 1 59.6254454899 34.9185891762 0.0
133 1 66.0712454899 34.7789891762 0.0
134 1 71.9855454899 39.0231891762 0.0
135 1 77.1833454899 37.1316891762 0.0
136 1 0.395084489929 41.7937891762 0.0
137 1 5.67476548993 41.7691891762 0.0
138 1 10.8373454899 42.8759891762 0.0
139 1 15.0743454899 43.4576891762 0.0
140 1 18.9262454899 41.4122891762 0.0
141 1 25.4164454899 40.1989891762 0.0
142 1 31.9572454899 41.7284891762 0.0
143 1 36.4374454899 42.6096891762 0.0
144 1 41.1604454899 41.9676891762 0.0
145 1 47.9159454899 40.8713891762 0.0
146 1 54.8613454899 42.5073891762 0.0
147 1 60.0741454899 40.1929891762 0.0
148 1 65.3601454899 40.4178891762 0.0
149 1 70.3252454899 41.5348891762 0.0
150 1 74.8224454899 42.1967891762 0.0
151 1 2.33477548993 46.1468891762 0.0
152 1 7.50963548993 46.6998891762 0.0
153 1 12.2889454899 48.2674891762 0.0
154 1 18.3223454899 47.2481891762 0.0
155 1 25.5634454899 45.5588891762 0.0
156 1 28.5583454899 45.8606891762 0.0
157 1 33.5204454899 47.0417891762 0.0
158 1 37.3280454899 45.4754891762 0.0
159 1 43.6168454899 43.6447891762 0.0
160 1 50.1777454899 42.8411891762 0.0
161 1 57.6860454899 45.1266891762 0.0
162 1 62.5404454899 44.7218891762 0.0
163 1 67.4320454899 45.5864891762 0.0
164 1 71.9139454899 46.7968891762 0.0
165 1 76.4462454899 46.7494891762 0.0
166 1 78.4232454899 50.9832891762 0.0
167 1 4.08461548993 50.8131891762 0.0
168 1 8.99031548993 52.0221891762 0.0
169 1 13.7992454899 50.8834891762 0.0
170 1 20.4804454899 51.0946891762 0.0
171 1 25.3079454899 50.9979891762 0.0
172 1 31.4274454899 50.9381891762 0.0
173 1 38.1270454899 50.6379891762 0.0
174 1 43.2307454899 49.4036891762 0.0
175 1 48.3225454899 48.4782891762 0.0
176 1 53.6220454899 48.2509891762 0.0
177 1 58.9659454899 49.3413891762 0.0
178 1 63.7087454899 49.6482891762 0.0
179 1 68.6249454899 51.0269891762 0.0
180 1 73.7388454899 51.7588891762 0.0
181 1 1.65516548993 55.6927891762 0.0
182 1 6.28470548993 58.0315891762 0.0
183 1 10.5595454899 54.5811891762 0.0
184 1 17.6642454899 55.4352891762 0.0
185 1 22.7602454899 55.7682891762 0.0
186 1 26.9036454899 53.5349891762 0.0
187 1 33.7366454899 52.8628891762 0.0
188 1 42.3791454899 54.1234891762 0.0
189 1 45.2875454899 53.3540891762 0.0
190 1 52.0899454899 52.5393891762 0.0
191 1 55.0686454899 52.8356891762 0.0
192 1 60.0621454899 54.0827891762 0.0
193 1 65.0584454899 54.7661891762 0.0
194 1 69.3482454899 53.9612891762 0.0
195 1 76.2198454899 56.1820891762 0.0
196 1 78.4600454899 60.8875891762 0.0
197 1 4.86088548993 60.6765891762 0.0
198 1 10.0443454899 60.1365891762 0.0
199 1 14.9574454899 59.6402891762 0.0
200 1 20.4035454899 60.1456891762 0.0
201 1 25.8254454899 59.2793891762 0.0
202 1 33.1527454899 58.2616891762 0.0
203 1 36.1545454899 58.3480891762 0.0
204 1 41.1084454899 59.7676891762 0.0
205 1 48.1120454899 58.3964891762 0.0
206 1 51.0550454899 57.8229891762 0.0
207 1 56.4208454899 57.8501891762 0.0
208 1 61.8368454899 58.9849891762 0.0
209 1 67.3653454899 59.4265891762 0.0
210 1 72.8045454899 60.2034891762 0.0
211 1 3.47647548993 64.7880891762 0.0
212 1 8.67058548993 64.6968891762 0.0
213 1 13.1841454899 67.0818891762 0.0
214 1 17.9575454899 64.1473891762 0.0
215 1 23.8588454899 63.9148891762 0.0
216 1 28.3726454899 63.8019891762 0.0
217 1 32.7939454899 66.3250891762 0.0
218 1 37.8867454899 63.5158891762 0.0
219 1 42.4926454899 62.4557891762 0.0
220 1 49.6425454899 63.4748891762 0.0
221 1 54.0217454899 62.1780891762 0.0
222 1 57.8325454899 64.8004891762 0.0
223 1 63.3380454899 63.2283891762 0.0
224 1 68.6912454899 63.9087891762 0.0
225 1 75.3087454899 64.6622891762 0.0
226 1 77.7587454899 66.4009891762 0.0
227 1 5.68464548993 69.2581891762 0.0
228 1 11.8832454899 69.8171891762 0.0
229 1 18.4693454899 68.5257891762 0.0
230 1 21.3050454899 67.5785891762 0.0
231 1 26.7045454899 68.8529891762 0.0
232 1 32.2896454899 69.2891891762 0.0
233 1 37.3778454899 68.0251891762 0.0
234 1 41.2857454899 70.6670891762 0.0
235 1 49.1438454899 68.0191891762 0.0
236 1 52.1734454899 67.7347891762 0.0
237 1 56.8441454899 67.6371891762 0.0
238 1 61.4102454899 70.2655891762 0.0
239 1 66.1680454899 67.8540891762 0.0
240 1 71.1949454899 68.9470891762 0.0
241 1 2.29111548993 72.8418891762 0.0
242 1 6.91493548993 72.0028891762 0.0
243 1 13.8866454899 74.8326891762 0.0
244 1 16.8982454899 72.7671891762 0.0
245 1 23.8399454899 72.3141891762 0.0
246 1 28.0728454899 71.5881891762 0.0
247 1 35.7408454899 72.9869891762 0.0
248 1 39.2141454899 75.3647891762 0.0
249 1 44.6041454899 73.8509891762 0.0
250 1 49.4908454899 72.6359891762 0.0
251 1 55.0717454899 72.6560891762 0.0
252 1 60.6069454899 73.1455891762 0.0
253 1 65.9453454899 75.1380891762 0.0
254 1 70.7147454899 71.9338891762 0.0
255 1 76.2778454899 71.8561891762 0.0
256 1 0.611902489929 2.81373917615 0.0
257 1 5.70462548993 3.29488917615 0.0
258 1 10.4848454899 3.08980917615 0.0
259 1 15.5229454899 3.64233917615 0.0
260 1 23.0461454899 4.03796917615 0.0
261 1 27.5166454899 3.16176917615 0.0
262 1 32.3147454899 3.69809917615 0.0
263 1 37.2553454899 3.19948917615 0.0
264 1 42.5668454899 2.94564917615 0.0
265 1 49.7147454899 4.12554917615 0.0
266 1 54.1175454899 3.24468917615 0.0
267 1 59.1259454899 2.91418917615 0.0
268 1 63.7151454899 3.20401917615 0.0
269 1 69.2551454899 3.29850917615 0.0
270 1 74.5149454899 2.02112917615 0.0
271 1 3.46253548993 7.51254917615 0.0
272 1 8.69721548993 7.99541917615 0.0
273 1 13.4091454899 7.80614917615 0.0
274 1 18.9779454899 7.47930917615 0.0
275 1 23.9900454899 6.93193917615 0.0
276 1 29.0429454899 8.14108917615 0.0
277 1 34.0803454899 8.60897917615 0.0
278 1 37.0669454899 8.16793917615 0.0
279 1 44.6865454899 6.90471917615 0.0
280 1 50.6658454899 7.00449917615 0.0
281 1 56.0969454899 7.73744917615 0.0
282 1 60.8681454899 7.57641917615 0.0
283 1 68.0419454899 8.91323917615 0.0
284 1 72.4552454899 6.78430917615 0.0
285 1 77.2857454899 6.81367917615 0.0
286 1 0.513637489929 11.6828891762 0.0
287 1 5.44621548993 12.5971891762 0.0
288 1 8.43830548993 12.9470891762 0.0
289 1 16.0856454899 12.0485891762 0.0
290 1 21.4523454899 11.9808891762 0.0
291 1 26.8511454899 10.2627891762 0.0
292 1 31.0450454899 12.8870891762 0.0
293 1 36.7668454899 12.4060891762 0.0
294 1 41.9779454899 11.2093891762 0.0
295 1 47.3762454899 11.3751891762 0.0
296 1 52.5673454899 11.7110891762 0.0
297 1 58.0214454899 12.1220891762 0.0
298 1 63.4784454899 11.3777891762 0.0
299 1 69.7774454899 11.3606891762 0.0
300 1 74.7876454899 11.4513891762 0.0
301 1 1.48514548993 16.4702891762 0.0
302 1 6.83362548993 16.9977891762 0.0
303 1 12.6723454899 16.0639891762 0.0
304 1 18.3428454899 16.4314891762 0.0
305 1 23.5088454899 16.9341891762 0.0
306 1 28.7819454899 17.1731891762 0.0
307 1 34.2292454899 17.0761891762 0.0
308 1 37.2403454899 16.9761891762 0.0
309 1 44.5190454899 15.8698891762 0.0
310 1 49.8682454899 15.8027891762 0.0
311 1 55.3457454899 16.2322891762 0.0
312 1 61.1400454899 15.7018891762 0.0
313 1 66.3406454899 16.0638891762 0.0
314 1 69.2325454899 16.9413891762 0.0
315 1 75.8864454899 16.0798891762 0.0
316 1 78.8505454899 18.9343891762 0.0
317 1 4.97867548993 19.3957891762 0.0
318 1 10.0991454899 20.9021891762 0.0
319 1 15.2090454899 20.3706891762 0.0
320 1 22.1713454899 22.7948891762 0.0
321 1 26.0400454899 21.6000891762 0.0
322 1 31.2289454899 21.7307891762 0.0
323 1 36.4794454899 21.1192891762 0.0
324 1 41.9071454899 20.0866891762 0.0
325 1 47.3353454899 20.4520891762 0.0
326 1 52.4188454899 20.4279891762 0.0
327 1 57.5729454899 21.1094891762 0.0
328 1 60.5783454899 20.9777891762 0.0
329 1 67.4608454899 20.8504891762 0.0
330 1 73.2447454899 20.7305891762 0.0
331 1 3.10206548993 25.3882891762 0.0
332 1 8.24303548993 25.8985891762 0.0
333 1 13.0425454899 25.3414891762 0.0
334 1 17.7868454899 25.0060891762 0.0
335 1 23.1069454899 25.7248891762 0.0
336 1 28.4008454899 26.2843891762 0.0
337 1 33.6692454899 26.0216891762 0.0
338 1 38.8282454899 24.7669891762 0.0
339 1 43.5712454899 24.9741891762 0.0
340 1 46.5702454899 25.2756891762 0.0
341 1 54.3991454899 24.9544891762 0.0
342 1 60.1282454899 25.2453891762 0.0
343 1 65.4988454899 23.1531891762 0.0
344 1 73.0412454899 26.2853891762 0.0
345 1 77.2289454899 24.5360891762 0.0
346 1 0.568842489929 29.6954891762 0.0
347 1 5.84016548993 29.9321891762 0.0
348 1 11.4723454899 29.8975891762 0.0
349 1 16.9534454899 27.9395891762 0.0
350 1 20.7945454899 30.9523891762 0.0
351 1 25.5488454899 30.4625891762 0.0
352 1 31.1546454899 30.4105891762 0.0
353 1 36.6738454899 30.0124891762 0.0
354 1 41.6362454899 27.2793891762 0.0
355 1 46.0977454899 28.2484891762 0.0
356 1 52.7702454899 29.6961891762 0.0
357 1 57.8290454899 29.3092891762 0.0
358 1 63.2299454899 29.7713891762 0.0
359 1 68.7565454899 29.2456891762 0.0
360 1 74.8238454899 28.7379891762 0.0
361 1 3.18798548993 34.4715891762 0.0
362 1 8.49545548993 34.1525891762 0.0
363 1 13.5267454899 34.8057891762 0.0
364 1 18.3487454899 35.7677891762 0.0
365 1 23.5395454899 35.2408891762 0.0
366 1 28.8386454899 34.5116891762 0.0
367 1 34.4760454899 34.4624891762 0.0
368 1 39.9217454899 34.1019891762 0.0
369 1 45.2206454899 33.4884891762 0.0
370 1 50.6013454899 33.7630891762 0.0
371 1 55.8685454899 34.1959891762 0.0
372 1 62.5584454899 35.4062891762 0.0
373 1 69.0337454899 34.5916891762 0.0
374 1 72.8117454899 33.3083891762 0.0
375 1 77.2060454899 34.1010891762 0.0
376 1 0.599363489929 38.7827891762 0.0
377 1 6.05405548993 38.7757891762 0.0
378 1 11.6303454899 37.1856891762 0.0
379 1 15.1029454899 40.4442891762 0.0
380 1 21.8682454899 40.9397891762 0.0
381 1 28.3722454899 40.0549891762 0.0
382 1 32.3741454899 38.7559891762 0.0
383 1 37.0649454899 39.6555891762 0.0
384 1 40.0285454899 39.1947891762 0.0
385 1 47.1516454899 37.9739891762 0.0
386 1 52.5886454899 37.8790891762 0.0
387 1 58.4491454899 37.6768891762 0.0
388 1 64.7395454899 37.4633891762 0.0
389 1 71.6251454899 36.0555891762 0.0
390 1 74.9814454899 39.1988891762 0.0
391 1 3.03207548993 43.2182891762 0.0
392 1 7.95894548993 43.7230891762 0.0
393 1 12.6756454899 45.2655891762 0.0
394 1 17.9464454899 44.2630891762 0.0
395 1 24.1365454899 42.9015891762 0.0
396 1 29.2270454899 42.9259891762 0.0
397 1 33.8201454899 44.0485891762 0.0
398 1 40.2042454899 44.8038891762 0.0
399 1 46.5692454899 43.5177891762 0.0
400 1 52.3988454899 40.8560891762 0.0
401 1 57.8144454899 42.1480891762 0.0
402 1 62.6565454899 41.7188891762 0.0
403 1 67.4996454899 42.5535891762 0.0
404 1 72.2856454899 43.8066891762 0.0
405 1 77.3034454899 43.8552891762 0.0
406 1 0.0142154899293 48.0638891762 0.0
407 1 4.76025548993 47.8922891762 0.0
408 1 9.39658548993 49.0392891762 0.0
409 1 16.5621454899 49.7133891762 0.0
410 1 21.1670454899 48.1871891762 0.0
411 1 24.1702454899 48.2124891762 0.0
412 1 30.6804454899 48.0181891762 0.0
413 1 36.2564454899 48.2743891762 0.0
414 1 42.6642454899 46.4713891762 0.0
415 1 48.7967454899 45.5044891762 0.0
416 1 54.7251454899 45.4860891762 0.0
417 1 60.2426454899 46.6410891762 0.0
418 1 64.6898454899 46.8014891762 0.0
419 1 69.1879454899 48.0475891762 0.0
420 1 74.1841454899 48.7573891762 0.0
421 1 1.74713548993 52.6926891762 0.0
422 1 6.15202548993 52.9601891762 0.0
423 1 13.4840454899 53.9177891762 0.0
424 1 17.8230454899 52.4353891762 0.0
425 1 22.9171454899 52.7897891762 0.0
426 1 29.8832454899 53.5033891762 0.0
427 1 36.7065454899 53.2740891762 0.0
428 1 41.0254454899 51.4346891762 0.0
429 1 46.0380454899 50.4400891762 0.0
430 1 51.0340454899 49.7414891762 0.0
431 1 56.0473454899 50.0097891762 0.0
432 1 61.2031454899 51.3075891762 0.0
433 1 65.7426454899 51.8378891762 0.0
434 1 72.3002454899 54.4159891762 0.0
435 1 76.3745454899 53.1715891762 0.0
436 1 78.6970454899 57.8775891762 0.0
437 1 4.64162548993 55.5491891762 0.0
438 1 9.19462548993 57.2679891762 0.0
439 1 14.9036454899 56.6017891762 0.0
440 1 20.1162454899 57.1630891762 0.0
441 1 25.6995454899 56.2898891762 0.0
442 1 32.1701454899 55.4226891762 0.0
443 1 38.0055454899 55.9852891762 0.0
444 1 40.9183454899 56.7574891762 0.0
445 1 47.3765454899 55.4986891762 0.0
446 1 50.3117454899 54.9335891762 0.0
447 1 57.1844454899 54.9519891762 0.0
448 1 62.3372454899 56.0286891762 0.0
449 1 67.5709454899 56.4043891762 0.0
450 1 73.4026454899 57.2310891762 0.0
451 1 2.17083548993 62.0515891762 0.0
452 1 7.60630548993 61.8968891762 0.0
453 1 12.6590454899 61.6084891762 0.0
454 1 17.5657454899 61.1697891762 0.0
455 1 23.3214454899 60.9537891762 0.0
456 1 28.3992454899 60.8098891762 0.0
457 1 31.3948454899 60.6969891762 0.0
458 1 38.2003454899 60.5379891762 0.0
459 1 45.3601454899 63.3689891762 0.0
460 1 47.5582454899 61.3326891762 0.0
461 1 53.7206454899 59.1946891762 0.0
462 1 58.8742454899 59.5894891762 0.0
463 1 64.4857454899 60.4351891762 0.0
464 1 69.8898454899 61.1237891762 0.0
465 1 75.4970454899 61.6473891762 0.0
466 1 1.55892548993 67.0970891762 0.0
467 1 6.11156548993 66.2744891762 0.0
468 1 11.6793454899 64.4709891762 0.0
469 1 16.1701454899 66.5821891762 0.0
470 1 20.9380454899 64.6206891762 0.0
471 1 26.1929454899 65.8610891762 0.0
472 1 31.3601454899 63.6952891762 0.0
473 1 35.6964454899 65.5515891762 0.0
474 1 40.6052454899 64.8021891762 0.0
475 1 47.4572454899 65.5227891762 0.0
476 1 52.3815454899 64.7080891762 0.0
477 1 57.0089454899 61.9405891762 0.0
478 1 60.8329454899 64.9189891762 0.0
479 1 65.8378454899 64.8727891762 0.0
480 1 73.6289454899 67.1677891762 0.0
481 1 2.74282548993 69.8613891762 0.0
482 1 9.91708548993 72.1202891762 0.0
483 1 14.0879454899 71.8390891762 0.0
484 1 19.4888454899 71.3405891762 0.0
485 1 23.7439454899 69.3286891762 0.0
486 1 31.0616454899 72.0455891762 0.0
487 1 35.1805454899 70.0547891762 0.0
488 1 40.3670454899 67.8017891762 0.0
489 1 44.3397454899 70.8720891762 0.0
490 1 47.3713454899 70.4582891762 0.0
491 1 54.5642454899 69.6325891762 0.0
492 1 59.8416454899 67.7443891762 0.0
493 1 64.3975454899 70.2960891762 0.0
494 1 69.0120454899 66.9000891762 0.0
495 1 76.0876454899 68.8732891762 0.0
496 1 78.5509454899 73.8142891762 0.0
497 1 4.94133548993 74.2865891762 0.0
498 1 10.9081454899 74.9769891762 0.0
499 1 16.7380454899 75.7478891762 0.0
500 1 21.2446454899 73.7689891762 0.0
501 1 26.2833454899 74.0349891762 0.0
502 1 33.0149454899 74.3868891762 0.0
503 1 38.7470454899 72.4109891762 0.0
504 1 42.2081454899 75.6401891762 0.0
505 1 47.4382454899 74.8236891762 0.0
506 1 52.2662454899 73.8779891762 0.0
507 1 57.7515454899 74.1985891762 0.0
508 1 63.6405454899 73.2076891762 0.0
509 1 68.8896454899 74.3512891762 0.0
510 1 73.5181454899 73.0335891762 0.0
511 1 5.40625548993 77.2771891762 0.0
512 1 11.0414454899 77.9775891762 0.0
513 1 19.0055454899 77.7255891762 0.0
514 1 21.8600454899 76.7092891762 0.0
515 1 26.4903454899 79.3263891762 0.0
516 1 32.1161454899 77.3233891762 0.0
517 1 37.4336454899 77.7899891762 0.0
518 1 43.1058454899 78.4865891762 0.0
519 1 48.4523454899 77.6363891762 0.0
520 1 52.9697454899 79.3225891762 0.0
521 1 58.5115454899 77.1553891762 0.0
522 1 64.3110454899 77.6888891762 0.0
523 1 71.0078454899 76.5130891762 0.0
524 1 73.9803454899 75.9967891762 0.0
525 1 78.8926454899 78.7166891762 0.0
526 1 2.81354548993 78.8520891762 0.0
527 1 8.09127548993 78.7163891762 0.0
528 1 13.8559454899 79.2181891762 0.0
529 1 16.8680454899 79.8537891762 0.0
530 1 24.9070454899 76.7454891762 0.0
531 1 29.5489454899 79.0216891762 0.0
532 1 34.6451454899 79.0271891762 0.0
533 1 40.1510454899 79.1052891762 0.0
534 1 45.9904454899 79.3922891762 0.0
535 1 51.3548454899 76.7810891762 0.0
536 1 55.9770454899 78.8505891762 0.0
537 1 61.3306454899 78.4203891762 0.0
538 1 66.7647454899 79.4626891762 0.0
539 1 69.7832454899 79.2545891762 0.0
540 1 76.9819454899 76.3860891762 0.0
541 2 3.13615548993 80.3292891762 0.0
542 2 4.47595548993 2.41621917615 0.0
543 2 1.95240548993 2.14152917615 0.0
544 2 8.00249548993 80.2285891762 0.0
545 2 6.85551548993 2.32664917615 0.0
546 2 9.26610548993 2.22618917615 0.0
547 2 11.8108454899 2.39145917615 0.0
548 2 14.3173454899 2.75924917615 0.0
549 2 13.4695454899 0.329059176155 0.0
550 2 19.1997454899 3.37068917615 0.0
551 2 17.6093454899 0.840939176155 0.0
552 2 16.8417454899 2.95291917615 0.0
553 2 25.5988454899 0.231589176155 0.0
554 2 26.2329454899 2.40116917615 0.0
555 2 23.8737454899 2.74198917615 0.0
556 2 29.9343454899 0.148449176155 0.0
557 2 31.2112454899 2.66287917615 0.0
558 2 28.8078454899 2.41228917615 0.0
559 2 34.6043454899 0.207449176155 0.0
560 2 33.5089454899 2.75623917615 0.0
561 2 35.9354454899 2.48882917615 0.0
562 2 39.9524454899 0.236089176155 0.0
563 2 41.2196454899 2.30056917615 0.0
564 2 38.5195454899 2.38486917615 0.0
565 2 45.8187454899 0.549069176155 0.0
566 2 43.9483454899 2.37605917615 0.0
567 2 46.1259454899 3.30276917615 0.0
568 2 52.1521454899 0.272649176155 0.0
569 2 52.8392454899 2.47471917615 0.0
570 2 50.5095454899 2.81666917615 0.0
571 2 56.3255454899 80.3200891762 0.0
572 2 57.8392454899 2.14571917615 0.0
573 2 55.3429454899 2.38610917615 0.0
574 2 61.4205454899 79.9482891762 0.0
575 2 62.6624454899 2.12728917615 0.0
576 2 60.3251454899 2.01723917615 0.0
577 2 66.5753454899 0.606379176155 0.0
578 2 67.8590454899 2.74092917615 0.0
579 2 65.1300454899 2.69737917615 0.0
580 2 70.7383454899 0.080709176155 0.0
581 2 73.0541454899 1.60572917615 0.0
582 2 70.4632454899 2.40070917615 0.0
583 2 78.0653454899 79.9840891762 0.0
584 2 78.4784454899 1.97431917615 0.0
585 2 75.8941454899 1.38584917615 0.0
586 2 2.23231548993 6.64063917615 0.0
587 2 0.815702489929 4.30008917615 0.0
588 2 78.7042454899 6.33211917615 0.0
589 2 5.98577548993 4.77730917615 0.0
590 2 7.40453548993 7.19768917615 0.0
591 2 4.83837548993 6.91760917615 0.0
592 2 10.7053454899 4.57710917615 0.0
593 2 12.2275454899 6.88062917615 0.0
594 2 9.79985548993 6.97561917615 0.0
595 2 15.7858454899 5.10887917615 0.0
596 2 17.5226454899 7.07125917615 0.0
597 2 14.7924454899 7.24513917615 0.0
598 2 21.5420454899 4.24428917615 0.0
599 2 19.6469454899 6.09763917615 0.0
600 2 27.2413454899 4.63356917615 0.0
601 2 25.4596454899 6.57446917615 0.0
602 2 28.0004454899 7.05718917615 0.0
603 2 32.0355454899 5.19682917615 0.0
604 2 32.9353454899 7.62749917615 0.0
605 2 30.4198454899 7.48007917615 0.0
606 2 37.9087454899 6.93026917615 0.0
607 2 37.9668454899 4.52850917615 0.0
608 2 40.3463454899 5.91146917615 0.0
609 2 42.2544454899 4.40581917615 0.0
610 2 43.2266454899 6.49611917615 0.0
611 2 48.2232454899 4.38970917615 0.0
612 2 45.7875454899 5.85494917615 0.0
613 2 52.1436454899 6.69143917615 0.0
614 2 54.7988454899 6.99034917615 0.0
615 2 53.8687454899 4.71810917615 0.0
616 2 58.7886454899 4.38358917615 0.0
617 2 57.2541454899 6.77845917615 0.0
618 2 59.6577454899 6.70794917615 0.0
619 2 63.6385454899 4.71585917615 0.0
620 2 64.3990454899 7.45965917615 0.0
621 2 62.1772454899 6.85542917615 0.0
622 2 69.2973454899 4.79912917615 0.0
623 2 70.9934454899 6.46884917615 0.0
624 2 68.7222454899 7.56655917615 0.0
625 2 74.7066454899 3.52221917615 0.0
626 2 76.1096454899 5.87864917615 0.0
627 2 73.6424454899 5.87702917615 0.0
628 2 3.38136548993 9.01548917615 0.0
629 2 4.43749548993 11.4798891762 0.0
630 2 1.90993548993 11.1344891762 0.0
631 2 9.37082548993 11.7743891762 0.0
632 2 9.42930548993 9.31988917615 0.0
633 2 11.7791454899 10.8298891762 0.0
634 2 13.3925454899 9.29598917615 0.0
635 2 14.6735454899 11.4520891762 0.0
636 2 18.9499454899 9.00778917615 0.0
637 2 20.0995454899 11.2722891762 0.0
638 2 17.4202454899 11.2882891762 0.0
639 2 23.7212454899 8.43367917615 0.0
640 2 25.3257454899 10.1702891762 0.0
641 2 22.6660454899 11.0131891762 0.0
642 2 27.3840454899 11.6726891762 0.0
643 2 29.5227454899 12.8931891762 0.0
644 2 27.0334454899 14.2261891762 0.0
645 2 33.8770454899 10.1042891762 0.0
646 2 35.2676454899 12.1261891762 0.0
647 2 32.4078454899 12.1942891762 0.0
648 2 40.5308454899 10.7247891762 0.0
649 2 38.1243454899 9.23688917615 0.0
650 2 37.8940454899 11.4031891762 0.0
651 2 44.7735454899 8.41005917615 0.0
652 2 46.0496454899 10.6420891762 0.0
653 2 43.3352454899 10.5365891762 0.0
654 2 50.2832454899 8.47313917615 0.0
655 2 51.3190454899 10.8550891762 0.0
656 2 48.7154454899 10.6577891762 0.0
657 2 55.7833454899 9.20348917615 0.0
658 2 56.6860454899 11.4386891762 0.0
659 2 53.9793454899 11.1596891762 0.0
660 2 60.6803454899 9.06158917615 0.0
661 2 62.0094454899 11.0528891762 0.0
662 2 59.3122454899 11.3420891762 0.0
663 2 64.3158454899 10.1290891762 0.0
664 2 66.5474454899 8.88083917615 0.0
665 2 72.4557454899 8.28510917615 0.0
666 2 73.5795454899 10.5698891762 0.0
667 2 71.0598454899 10.5714891762 0.0
668 2 76.0594454899 10.6713891762 0.0
669 2 78.5075454899 10.6813891762 0.0
670 2 77.2479454899 8.31715917615 0.0
671 2 78.9958454899 13.0489891762 0.0
672 2 0.446473489929 15.3933891762 0.0
673 2 77.1256454899 15.2175891762 0.0
674 2 4.77217548993 13.9416891762 0.0
675 2 5.59500548993 16.1278891762 0.0
676 2 2.91840548993 15.9823891762 0.0
677 2 9.06549548993 14.3111891762 0.0
678 2 11.1422454899 15.8197891762 0.0
679 2 8.28159548993 16.5119891762 0.0
680 2 16.9556454899 15.7718891762 0.0
681 2 15.8648454899 13.5549891762 0.0
682 2 14.1143454899 15.5203891762 0.0
683 2 21.3134454899 13.5171891762 0.0
684 2 22.2948454899 15.9984891762 0.0
685 2 19.7031454899 15.7148891762 0.0
686 2 27.4810454899 16.4258891762 0.0
687 2 24.8658454899 16.1990891762 0.0
688 2 31.3331454899 14.3632891762 0.0
689 2 32.8950454899 16.3828891762 0.0
690 2 30.1524454899 16.5447891762 0.0
691 2 38.1237454899 15.7741891762 0.0
692 2 37.7882454899 13.5229891762 0.0
693 2 40.4441454899 14.4555891762 0.0
694 2 42.0380454899 12.7178891762 0.0
695 2 43.2030454899 15.0919891762 0.0
696 2 47.2721454899 12.8849891762 0.0
697 2 48.5289454899 15.0954891762 0.0
698 2 45.8457454899 15.1242891762 0.0
699 2 52.6297454899 13.2200891762 0.0
700 2 54.0293454899 15.4715891762 0.0
701 2 51.2857454899 15.2723891762 0.0
702 2 58.0847454899 13.6153891762 0.0
703 2 59.6457454899 15.4586891762 0.0
704 2 56.7733454899 15.7139891762 0.0
705 2 63.7705454899 12.8488891762 0.0
706 2 65.1701454899 15.0985891762 0.0
707 2 62.4625454899 14.9611891762 0.0
708 2 69.9523454899 15.6129891762 0.0
709 2 70.0237454899 12.8483891762 0.0
710 2 72.0865454899 14.2750891762 0.0
711 2 74.6566454899 15.2232891762 0.0
712 2 74.2542454899 12.8465891762 0.0
713 2 0.929445489929 19.8515891762 0.0
714 2 3.56814548993 19.9740891762 0.0
715 2 1.59509548993 22.0324891762 0.0
716 2 6.04078548993 20.4519891762 0.0
717 2 8.59273548993 21.0377891762 0.0
718 2 6.47118548993 22.7948891762 0.0
719 2 12.5943454899 17.5773891762 0.0
720 2 13.8586454899 19.7168891762 0.0
721 2 11.2427454899 19.9228891762 0.0
722 2 18.3053454899 17.9688891762 0.0
723 2 18.7202454899 20.8676891762 0.0
724 2 16.6068454899 19.8298891762 0.0
725 2 23.4225454899 18.4809891762 0.0
726 2 24.8247454899 20.7238891762 0.0
727 2 22.7556454899 21.3772891762 0.0
728 2 28.7288454899 18.6730891762 0.0
729 2 29.9483454899 20.9516891762 0.0
730 2 27.3654454899 20.8967891762 0.0
731 2 33.8794454899 18.5375891762 0.0
732 2 35.0946454899 20.5481891762 0.0
733 2 32.4740454899 20.8896891762 0.0
734 2 38.1429454899 18.1743891762 0.0
735 2 40.4530454899 19.6352891762 0.0
736 2 37.7924454899 20.3961891762 0.0
737 2 44.6167454899 17.3867891762 0.0
738 2 45.9847454899 19.7343891762 0.0
739 2 43.2981454899 19.5041891762 0.0
740 2 49.8544454899 17.3120891762 0.0
741 2 48.5686454899 19.5756891762 0.0
742 2 51.1653454899 19.5866891762 0.0
743 2 53.8114454899 19.8478891762 0.0
744 2 56.4147454899 20.1451891762 0.0
745 2 55.2809454899 17.7432891762 0.0
746 2 61.3592454899 19.7005891762 0.0
747 2 61.6232454899 17.1293891762 0.0
748 2 63.7189454899 18.7493891762 0.0
749 2 65.7471454899 17.4383891762 0.0
750 2 66.3442454899 19.8255891762 0.0
751 2 71.7745454899 20.2719891762 0.0
752 2 69.8545454899 18.3224891762 0.0
753 2 68.9335454899 20.4634891762 0.0
754 2 75.7677454899 17.5721891762 0.0
755 2 77.3512454899 19.1602891762 0.0
756 2 74.5308454899 19.8924891762 0.0
757 2 78.5761454899 23.8460891762 0.0
758 2 1.94868548993 24.4395891762 0.0
759 2 6.96412548993 25.1292891762 0.0
760 2 4.44878548993 24.7169891762 0.0
761 2 10.3601454899 22.3886891762 0.0
762 2 11.7349454899 24.6325891762 0.0
763 2 9.34448548993 24.8849891762 0.0
764 2 15.2208454899 21.8771891762 0.0
765 2 16.5085454899 24.2146891762 0.0
766 2 14.1274454899 24.3157891762 0.0
767 2 20.6876454899 22.5514891762 0.0
768 2 18.6012454899 23.7185891762 0.0
769 2 27.1456454899 25.4578891762 0.0
770 2 25.9727454899 23.1069891762 0.0
771 2 24.5472454899 25.2572891762 0.0
772 2 31.0973454899 23.2239891762 0.0
773 2 32.3056454899 25.4007891762 0.0
774 2 29.6906454899 25.5066891762 0.0
775 2 36.1543454899 22.5775891762 0.0
776 2 37.3832454899 24.4091891762 0.0
777 2 34.8057454899 25.0373891762 0.0
778 2 41.6258454899 21.5706891762 0.0
779 2 42.5315454899 23.8907891762 0.0
780 2 40.0311454899 23.8573891762 0.0
781 2 50.2437454899 23.3832891762 0.0
782 2 47.6963454899 24.2793891762 0.0
783 2 47.9648454899 21.8406891762 0.0
784 2 53.0484454899 24.2422891762 0.0
785 2 52.1551454899 21.9111891762 0.0
786 2 57.3860454899 22.5995891762 0.0
787 2 58.6937454899 24.7371891762 0.0