# input file

1350 atoms
2 atom types

0.0 78.7468352386 xlo xhi
0.0 81.1036255647 ylo yhi
-10.0 10.0 zlo zhi
0.0 0.0 0.0 xy xz yz

Masses

1 28.0855 #Si
2 15.9994 #O

Atoms

1 1 1.86138539616 1.50485278236 0.0
2 1 7.13074539616 1.57530278236 0.0
3 1 12.3424553962 1.15781278236 0.0
4 1 18.0870553962 0.76865278236 0.0
5 1 23.9264553962 1.79267278236 0.0
6 1 30.7157553962 1.43391278236 0.0
7 1 33.7061553962 1.25966278236 0.0
8 1 39.2081553962 1.75728278236 0.0
9 1 44.2865553962 2.04381278236 0.0
10 1 49.3721553962 1.34815278236 0.0
11 1 54.9159553962 1.83532278236 0.0
12 1 61.3522553962 1.58153278236 0.0
13 1 65.3900553962 3.73540278236 0.0
14 1 72.0738553962 1.30045278236 0.0
15 1 75.0857553962 1.55938278236 0.0
16 1 77.9007553962 5.78268278236 0.0
17 1 4.28486539616 6.09387278236 0.0
18 1 9.52994539616 5.92532278236 0.0
19 1 16.2852553962 4.69436278236 0.0
20 1 19.0623553962 3.59912278236 0.0
21 1 25.6290553962 6.75965278236 0.0
22 1 30.0993553962 6.87678278236 0.0
23 1 35.5620553962 5.55565278236 0.0
24 1 41.8118553962 6.57257278236 0.0
25 1 47.9514553962 6.15518278236 0.0
26 1 52.9221553962 5.55809278236 0.0
27 1 56.8511553962 4.12711278236 0.0
28 1 63.5299553962 6.09454278236 0.0
29 1 67.8518553962 7.79409278236 0.0
30 1 72.5630553962 6.72845278236 0.0
31 1 1.66845539616 12.7893127824 0.0
32 1 6.78096539616 10.5714127824 0.0
33 1 11.8038553962 10.5440127824 0.0
34 1 16.8737553962 9.88571278236 0.0
35 1 22.1955553962 10.0430127824 0.0
36 1 26.6267553962 9.59671278236 0.0
37 1 34.4721553962 9.81471278236 0.0
38 1 36.9588553962 8.18485278236 0.0
39 1 43.4670553962 9.09230278236 0.0
40 1 52.7149553962 9.68311278236 0.0
41 1 55.7211553962 9.87261278236 0.0
42 1 60.0889553962 10.0402127824 0.0
43 1 64.6402553962 13.3679127824 0.0
44 1 70.5088553962 11.9737127824 0.0
45 1 75.8892553962 10.4947127824 0.0
46 1 0.488415396155 15.5646127824 0.0
47 1 5.18099539616 15.7138127824 0.0
48 1 9.80195539616 15.1915127824 0.0
49 1 15.1285553962 14.7046127824 0.0
50 1 20.3301553962 14.2860127824 0.0
51 1 25.4097553962 14.7538127824 0.0
52 1 30.4200553962 15.4449127824 0.0
53 1 35.7343553962 15.2581127824 0.0
54 1 40.9220553962 14.3505127824 0.0
55 1 46.5752553962 13.8474127824 0.0
56 1 52.1211553962 14.8470127824 0.0
57 1 57.6668553962 15.1245127824 0.0
58 1 62.7993553962 15.7795127824 0.0
59 1 68.2727553962 16.0214127824 0.0
60 1 73.8044553962 15.3833127824 0.0
61 1 2.77466539616 20.5258127824 0.0
62 1 8.10188539616 20.3405127824 0.0
63 1 13.4096553962 19.1871127824 0.0
64 1 18.2058553962 18.9431127824 0.0
65 1 23.3111553962 19.0844127824 0.0
66 1 27.9280553962 19.7616127824 0.0
67 1 33.3446553962 19.7699127824 0.0
68 1 41.0034553962 20.8767127824 0.0
69 1 45.1306553962 17.8370127824 0.0
70 1 50.6951553962 19.7062127824 0.0
71 1 54.7757553962 21.8011127824 0.0
72 1 60.0883553962 20.1537127824 0.0
73 1 65.4640553962 20.1125127824 0.0
74 1 71.0177553962 19.8415127824 0.0
75 1 76.2133553962 19.7705127824 0.0
76 1 0.0709413961553 24.4806127824 0.0
77 1 4.29448539616 23.1293127824 0.0
78 1 11.6624553962 23.8961127824 0.0
79 1 16.5358553962 23.7902127824 0.0
80 1 21.1305553962 23.5358127824 0.0
81 1 27.0465553962 27.4015127824 0.0
82 1 31.7866553962 23.8754127824 0.0
83 1 35.9749553962 21.2529127824 0.0
84 1 46.4394553962 22.4364127824 0.0
85 1 49.4877553962 22.4552127824 0.0
86 1 52.6593553962 26.5574127824 0.0
87 1 57.9437553962 25.2027127824 0.0
88 1 64.6725553962 23.9300127824 0.0
89 1 67.7115553962 24.0535127824 0.0
90 1 73.3060553962 24.3044127824 0.0
91 1 3.58442539616 28.6619127824 0.0
92 1 10.6624553962 28.2473127824 0.0
93 1 13.6778553962 28.5326127824 0.0
94 1 18.8995553962 28.5954127824 0.0
95 1 24.0435553962 27.1095127824 0.0
96 1 31.1075553962 28.8105127824 0.0
97 1 35.5838553962 27.0257127824 0.0
98 1 40.4068553962 26.7342127824 0.0
99 1 45.0103553962 29.7626127824 0.0
100 1 50.9000553962 29.0112127824 0.0
101 1 55.3103553962 30.1317127824 0.0
102 1 60.1167553962 30.0017127824 0.0
103 1 65.1511553962 29.0160127824 0.0
104 1 70.8899553962 28.3020127824 0.0
105 1 76.6243553962 28.5365127824 0.0
106 1 0.709178396155 32.6379127824 0.0
107 1 5.72348539616 33.3450127824 0.0
108 1 10.8257553962 33.3588127824 0.0
109 1 16.2386553962 33.1429127824 0.0
110 1 21.8484553962 32.2867127824 0.0
111 1 27.6581553962 32.9635127824 0.0
112 1 34.9329553962 32.4758127824 0.0
113 1 37.8626553962 31.7113127824 0.0
114 1 42.9265553962 31.9332127824 0.0
115 1 47.9870553962 32.8683127824 0.0
116 1 52.2778553962 34.4968127824 0.0
117 1 57.2121553962 34.8208127824 0.0
118 1 63.4679553962 33.9833127824 0.0
119 1 68.5910553962 32.4771127824 0.0
120 1 74.0867553962 32.3488127824 0.0
121 1 3.00461539616 37.6080127824 0.0
122 1 8.00928539616 37.9504127824 0.0
123 1 13.4510553962 37.7410127824 0.0
124 1 19.6689553962 36.8245127824 0.0
125 1 25.1598553962 36.3984127824 0.0
126 1 29.2714553962 39.8439127824 0.0
127 1 34.2782553962 37.7518127824 0.0
128 1 41.3590553962 36.3287127824 0.0
129 1 44.3485553962 36.7570127824 0.0
130 1 48.2979553962 40.3614127824 0.0
131 1 55.1094553962 39.3519127824 0.0
132 1 59.2293553962 37.0354127824 0.0
133 1 66.5703553962 37.5114127824 0.0
134 1 71.6933553962 36.5624127824 0.0
135 1 76.9669553962 36.8117127824 0.0
136 1 78.2554553962 41.8479127824 0.0
137 1 4.51880539616 42.3273127824 0.0
138 1 10.4477553962 42.1219127824 0.0
139 1 15.2680553962 40.1867127824 0.0
140 1 22.3934553962 40.8025127824 0.0
141 1 27.6406553962 42.3754127824 0.0
142 1 32.5279553962 43.0337127824 0.0
143 1 37.0080553962 42.1243127824 0.0
144 1 41.5217553962 41.6741127824 0.0
145 1 47.2836553962 43.1735127824 0.0
146 1 51.0608553962 41.5003127824 0.0
147 1 58.6602553962 42.7311127824 0.0
148 1 63.9899553962 42.0535127824 0.0
149 1 70.6994553962 41.1348127824 0.0
150 1 73.6805553962 41.0121127824 0.0
151 1 1.82106539616 46.7065127824 0.0
152 1 5.84722539616 45.0161127824 0.0
153 1 12.5389553962 44.2607127824 0.0
154 1 19.2860553962 45.0611127824 0.0
155 1 23.6893553962 45.5718127824 0.0
156 1 28.2491553962 45.3197127824 0.0
157 1 35.7635553962 47.4094127824 0.0
158 1 41.1122553962 46.3442127824 0.0
159 1 43.1881553962 44.1821127824 0.0
160 1 50.1563553962 47.2823127824 0.0
161 1 54.2157553962 45.1676127824 0.0
162 1 61.1730553962 46.6712127824 0.0
163 1 66.4059553962 46.8805127824 0.0
164 1 71.2329553962 46.0888127824 0.0
165 1 75.4861553962 48.6554127824 0.0
166 1 0.393949396155 51.7690127824 0.0
167 1 5.57228539616 50.6123127824 0.0
168 1 10.8835553962 49.7622127824 0.0
169 1 16.1104553962 49.0958127824 0.0
170 1 21.6423553962 50.3283127824 0.0
171 1 26.1136553962 52.5816127824 0.0
172 1 31.8627553962 51.0536127824 0.0
173 1 37.4611553962 52.0984127824 0.0
174 1 42.8203553962 51.9584127824 0.0
175 1 47.8293553962 51.2953127824 0.0
176 1 53.0369553962 51.0022127824 0.0
177 1 57.8626553962 50.9971127824 0.0
178 1 63.1564553962 51.1225127824 0.0
179 1 69.3229553962 51.1550127824 0.0
180 1 74.5035553962 51.4873127824 0.0
181 1 3.29103539616 55.5701127824 0.0
182 1 8.79985539616 54.5133127824 0.0
183 1 15.0435553962 53.5656127824 0.0
184 1 17.4806553962 51.8000127824 0.0
185 1 24.1437553962 54.8809127824 0.0
186 1 29.2658553962 55.3205127824 0.0
187 1 34.1855553962 55.5312127824 0.0
188 1 39.4842553962 56.3359127824 0.0
189 1 47.4754553962 55.7114127824 0.0
190 1 50.5296553962 55.7174127824 0.0
191 1 55.5650553962 55.8217127824 0.0
192 1 62.0491553962 55.0022127824 0.0
193 1 64.7112553962 53.6668127824 0.0
194 1 70.8140553962 58.2158127824 0.0
195 1 76.3989553962 56.5073127824 0.0
196 1 0.678036396155 60.0098127824 0.0
197 1 7.29070539616 58.9451127824 0.0
198 1 10.2766553962 58.9575127824 0.0
199 1 15.0508553962 59.4835127824 0.0
200 1 20.8108553962 58.9503127824 0.0
201 1 26.3490553962 59.5997127824 0.0
202 1 31.2686553962 60.0801127824 0.0
203 1 36.1383553962 60.1977127824 0.0
204 1 40.5755553962 59.1238127824 0.0
205 1 46.8723553962 61.5065127824 0.0
206 1 54.3716553962 60.2744127824 0.0
207 1 57.4000553962 60.3306127824 0.0
208 1 62.8359553962 60.3180127824 0.0
209 1 68.8481553962 60.5178127824 0.0
210 1 73.9213553962 61.1446127824 0.0
211 1 2.42569539616 64.6114127824 0.0
212 1 7.40258539616 64.4168127824 0.0
213 1 12.5429553962 64.0019127824 0.0
214 1 16.6190553962 62.0971127824 0.0
215 1 23.6862553962 63.3439127824 0.0
216 1 28.6129553962 64.5067127824 0.0
217 1 33.1578553962 64.8269127824 0.0
218 1 38.2276553962 64.5048127824 0.0
219 1 42.9748553962 65.1989127824 0.0
220 1 48.0202553962 64.2763127824 0.0
221 1 55.0028553962 66.0785127824 0.0
222 1 60.5392553962 64.6470127824 0.0
223 1 65.8911553962 64.0180127824 0.0
224 1 70.7909553962 65.4355127824 0.0
225 1 78.1957553962 64.3026127824 0.0
226 1 0.357868396155 69.1435127824 0.0
227 1 5.52210539616 69.1243127824 0.0
228 1 10.3758553962 68.7449127824 0.0
229 1 15.4480553962 67.9649127824 0.0
230 1 21.9862553962 67.4614127824 0.0
231 1 24.9072553962 68.3287127824 0.0
232 1 30.2903553962 69.5773127824 0.0
233 1 35.5446553962 69.2524127824 0.0
234 1 40.0399553962 71.6966127824 0.0
235 1 45.1279553962 69.2507127824 0.0
236 1 50.5577553962 69.6021127824 0.0
237 1 56.9230553962 68.4334127824 0.0
238 1 62.6253553962 68.5323127824 0.0
239 1 67.4686553962 69.2286127824 0.0
240 1 71.8034553962 68.2700127824 0.0
241 1 2.51601539616 73.6028127824 0.0
242 1 7.47688539616 73.6421127824 0.0
243 1 12.3556553962 72.8907127824 0.0
244 1 17.1724553962 72.8310127824 0.0
245 1 21.9980553962 73.0309127824 0.0
246 1 27.2635553962 73.2144127824 0.0
247 1 32.7966553962 73.9591127824 0.0
248 1 38.5052553962 74.2847127824 0.0
249 1 43.7361553962 74.3411127824 0.0
250 1 48.7142553962 73.5023127824 0.0
251 1 54.3533553962 75.8987127824 0.0
252 1 59.2948553962 73.5879127824 0.0
253 1 65.0296553962 73.6235127824 0.0
254 1 70.4880553962 73.7263127824 0.0
255 1 78.2643553962 73.6657127824 0.0
256 1 77.8546553962 2.77550278236 0.0
257 1 4.47271539616 3.06057278236 0.0
258 1 9.84995539616 2.90771278236 0.0
259 1 15.2749553962 1.86923278236 0.0
260 1 22.0052553962 4.12809278236 0.0
261 1 26.1793553962 3.79721278236 0.0
262 1 29.1643553962 4.00876278236 0.0
263 1 36.3500553962 2.67888278236 0.0
264 1 41.6627553962 3.54340278236 0.0
265 1 47.0471553962 3.27168278236 0.0
266 1 52.0549553962 2.69594278236 0.0
267 1 59.8329553962 4.18100278236 0.0
268 1 64.2871553962 0.96192278236 0.0
269 1 68.1737553962 4.81676278236 0.0
270 1 71.0815553962 4.12189278236 0.0
271 1 1.60463539616 7.52762278236 0.0
272 1 6.94880539616 7.53934278236 0.0
273 1 12.0764553962 7.55490278236 0.0
274 1 15.0958553962 7.44486278236 0.0
275 1 22.6564553962 7.06774278236 0.0
276 1 29.6029553962 9.85341278236 0.0
277 1 33.0616553962 7.17744278236 0.0
278 1 39.8535553962 8.83955278236 0.0
279 1 46.4405553962 8.73982278236 0.0
280 1 50.6562553962 7.48529278236 0.0
281 1 55.6316553962 6.86238278236 0.0
282 1 60.6834553962 7.06446278236 0.0
283 1 65.0065553962 8.68927278236 0.0
284 1 70.5880553962 8.98350278236 0.0
285 1 75.4489553962 7.52260278236 0.0
286 1 0.155718396155 10.1930127824 0.0
287 1 4.67755539616 12.7419127824 0.0
288 1 9.30773539616 12.2144127824 0.0
289 1 14.5446553962 11.7703127824 0.0
290 1 19.5085553962 11.3750127824 0.0
291 1 24.6285553962 11.8328127824 0.0
292 1 31.0471553962 12.5092127824 0.0
293 1 34.0473553962 12.7676127824 0.0
294 1 41.4679553962 11.3604127824 0.0
295 1 48.0655553962 11.2600127824 0.0
296 1 50.9628553962 12.0850127824 0.0
297 1 57.8223553962 12.0616127824 0.0
298 1 62.9731553962 10.8840127824 0.0
299 1 67.6782553962 13.0918127824 0.0
300 1 73.5144553962 12.3934127824 0.0
301 1 2.77860539616 17.5145127824 0.0
302 1 7.69921539616 17.3470127824 0.0
303 1 12.5964553962 16.3011127824 0.0
304 1 17.8489553962 15.9678127824 0.0
305 1 22.7389553962 16.1187127824 0.0
306 1 27.6993553962 16.7378127824 0.0
307 1 33.1309553962 16.7773127824 0.0
308 1 38.5762553962 16.3165127824 0.0
309 1 43.8447553962 15.1244127824 0.0
310 1 49.1605553962 15.4007127824 0.0
311 1 54.8202553962 16.2230127824 0.0
312 1 60.0323553962 17.0780127824 0.0
313 1 65.4785553962 17.1375127824 0.0
314 1 71.1672553962 16.8458127824 0.0
315 1 76.4742553962 16.7702127824 0.0
316 1 78.6822553962 21.4818127824 0.0
317 1 7.28798539616 23.2521127824 0.0
318 1 11.0233553962 20.9756127824 0.0
319 1 15.9052553962 20.8524127824 0.0
320 1 20.7144553962 20.5700127824 0.0
321 1 25.3431553962 21.3193127824 0.0
322 1 30.6430553962 21.0926127824 0.0
323 1 38.3813553962 19.3652127824 0.0
324 1 44.0174553962 20.6043127824 0.0
325 1 48.1137553962 18.1837127824 0.0
326 1 53.6384553962 19.0106127824 0.0
327 1 57.7905553962 22.1743127824 0.0
328 1 62.8168553962 21.5301127824 0.0
329 1 68.2944553962 21.1172127824 0.0
330 1 73.6317553962 21.3169127824 0.0
331 1 2.80719539616 25.7424127824 0.0
332 1 9.20269539616 25.5944127824 0.0
333 1 14.1393553962 25.5722127824 0.0
334 1 18.9391553962 25.5822127824 0.0
335 1 24.0765553962 24.0778127824 0.0
336 1 29.7775553962 26.1225127824 0.0
337 1 34.8163553962 24.0753127824 0.0
338 1 41.2727553962 23.8590127824 0.0
339 1 44.2253553962 24.4492127824 0.0
340 1 52.2970553962 23.5725127824 0.0
341 1 55.6115553962 27.1337127824 0.0
342 1 60.3599553962 27.0048127824 0.0
343 1 63.3445553962 26.6139127824 0.0
344 1 70.4605553962 25.3295127824 0.0
345 1 76.0338553962 25.5980127824 0.0
346 1 0.710969396155 29.6329127824 0.0
347 1 6.11803539616 30.3676127824 0.0
348 1 9.12838539616 30.8267127824 0.0
349 1 16.2632553962 30.1147127824 0.0
350 1 21.8579553962 29.2524127824 0.0
351 1 28.4036553962 30.0701127824 0.0
352 1 33.9959553962 29.5992127824 0.0
353 1 38.1062553962 28.6792127824 0.0
354 1 43.3487553962 27.2913127824 0.0
355 1 48.0211553962 29.8753127824 0.0
356 1 52.6219553962 31.4882127824 0.0
357 1 57.7564553962 31.8623127824 0.0
358 1 62.9306553962 31.0413127824 0.0
359 1 68.1273553962 29.5170127824 0.0
360 1 73.7240553962 29.3769127824 0.0
361 1 2.99509539616 34.5969127824 0.0
362 1 8.26945539616 34.9563127824 0.0
363 1 13.5901553962 34.6836127824 0.0
364 1 19.2079553962 33.8375127824 0.0
365 1 24.6658553962 33.4381127824 0.0
366 1 30.0717553962 34.7984127824 0.0
367 1 33.1242553962 34.9315127824 0.0
368 1 40.3349553962 33.4658127824 0.0
369 1 45.1764553962 33.8907127824 0.0
370 1 49.4402553962 35.4822127824 0.0
371 1 54.6316553962 36.3713127824 0.0
372 1 62.1908553962 36.6906127824 0.0
373 1 66.4072553962 34.5249127824 0.0
374 1 71.3682553962 33.5954127824 0.0
375 1 76.7039553962 33.8251127824 0.0
376 1 0.319791396155 38.9510127824 0.0
377 1 5.39004539616 39.4396127824 0.0
378 1 10.7704553962 39.1313127824 0.0
379 1 18.1744553962 39.4495127824 0.0
380 1 22.5098553962 37.8092127824 0.0
381 1 28.1003553962 37.0803127824 0.0
382 1 32.2737553962 40.0258127824 0.0
383 1 36.9918553962 39.1154127824 0.0
384 1 40.0198553962 39.0305127824 0.0
385 1 47.2478553962 37.5591127824 0.0
386 1 53.9673553962 42.1407127824 0.0
387 1 58.0663553962 39.7913127824 0.0
388 1 64.0174553962 39.0604127824 0.0
389 1 69.3914553962 38.4606127824 0.0
390 1 74.2668553962 38.0833127824 0.0
391 1 1.85336539616 43.7011127824 0.0
392 1 8.79468539616 44.6118127824 0.0
393 1 15.3379553962 43.2379127824 0.0
394 1 19.6769553962 42.0633127824 0.0
395 1 24.6672553962 42.7347127824 0.0
396 1 31.2011553962 45.7218127824 0.0
397 1 35.1565553962 44.4628127824 0.0
398 1 39.4546553962 43.8490127824 0.0
399 1 45.7483553962 45.7446127824 0.0
400 1 50.0413553962 44.2999127824 0.0
401 1 57.1943553962 45.3563127824 0.0
402 1 61.4855553962 43.6894127824 0.0
403 1 66.3514553962 43.8928127824 0.0
404 1 69.3344553962 43.7750127824 0.0
405 1 75.6215553962 43.2839127824 0.0
406 1 78.4712553962 48.8450127824 0.0
407 1 4.62811539616 47.7558127824 0.0
408 1 10.8864553962 46.7539127824 0.0
409 1 16.4668553962 46.0626127824 0.0
410 1 21.2522553962 47.3312127824 0.0
411 1 26.0723553962 47.3717127824 0.0
412 1 32.8660553962 48.2228127824 0.0
413 1 38.1964553962 49.1996127824 0.0
414 1 41.2183553962 49.3579127824 0.0
415 1 47.3413553962 48.3162127824 0.0
416 1 53.0629553962 47.9769127824 0.0
417 1 58.5089553962 48.0529127824 0.0
418 1 63.7350553962 48.2018127824 0.0
419 1 69.1008553962 48.1806127824 0.0
420 1 74.2270553962 45.9403127824 0.0
421 1 3.28294539616 52.5683127824 0.0
422 1 8.44236539616 51.5238127824 0.0
423 1 13.6764553962 50.8783127824 0.0
424 1 20.2397553962 53.0239127824 0.0
425 1 24.6288553962 49.9948127824 0.0
426 1 29.1267553962 52.3347127824 0.0
427 1 34.4794553962 52.5552127824 0.0
428 1 40.1775553962 53.4205127824 0.0
429 1 45.5842553962 53.2985127824 0.0
430 1 50.5255553962 52.6830127824 0.0
431 1 55.4530553962 52.7999127824 0.0
432 1 60.4816553962 52.4548127824 0.0
433 1 67.6882553962 53.6505127824 0.0
434 1 71.8156553962 52.7970127824 0.0
435 1 76.7008553962 53.5197127824 0.0
436 1 0.633882396155 57.0184127824 0.0
437 1 6.25215539616 56.1373127824 0.0
438 1 11.3345553962 56.1556127824 0.0
439 1 14.3335553962 56.5138127824 0.0
440 1 21.2825553962 55.8978127824 0.0
441 1 26.5717553962 56.6262127824 0.0
442 1 31.6518553962 57.1158127824 0.0
443 1 36.6319553962 57.2411127824 0.0
444 1 43.5395553962 59.4256127824 0.0
445 1 46.4006553962 58.5339127824 0.0
446 1 53.0420553962 57.5043127824 0.0
447 1 58.1302553962 57.4264127824 0.0
448 1 61.1236553962 57.8336127824 0.0
449 1 70.1736553962 55.2979127824 0.0
450 1 73.8377553962 58.1447127824 0.0
451 1 3.14796539616 61.7087127824 0.0
452 1 6.13870539616 61.6985127824 0.0
453 1 12.4578553962 60.9998127824 0.0
454 1 19.6215553962 61.7938127824 0.0
455 1 23.4621553962 60.3556127824 0.0
456 1 28.6478553962 61.5137127824 0.0
457 1 33.6553553962 61.8729127824 0.0
458 1 38.8033553962 61.5539127824 0.0
459 1 43.9989553962 62.3764127824 0.0
460 1 51.0271553962 64.3461127824 0.0
461 1 53.8345553962 63.2659127824 0.0
462 1 60.1165553962 61.6811127824 0.0
463 1 65.8278553962 61.0069127824 0.0
464 1 71.1909553962 62.4459127824 0.0
465 1 76.8872553962 61.6169127824 0.0
466 1 77.0112553962 67.0235127824 0.0
467 1 4.97835539616 66.1824127824 0.0
468 1 10.0975553962 65.7474127824 0.0
469 1 15.4090553962 64.9063127824 0.0
470 1 20.9602553962 64.5635127824 0.0
471 1 25.7922553962 65.4709127824 0.0
472 1 30.7460553962 66.6045127824 0.0
473 1 35.7768553962 66.2532127824 0.0
474 1 40.3236553962 66.6395127824 0.0
475 1 45.7685553962 66.3071127824 0.0
476 1 52.1875553962 67.0963127824 0.0
477 1 59.7871553962 67.5458127824 0.0
478 1 63.3650553962 65.6252127824 0.0
479 1 67.9047553962 66.2464127824 0.0
480 1 74.7173553962 68.9319127824 0.0
481 1 2.94748539616 70.6371127824 0.0
482 1 8.07410539616 70.6877127824 0.0
483 1 13.1295553962 69.9470127824 0.0
484 1 17.7787553962 69.8919127824 0.0
485 1 20.7807553962 70.2339127824 0.0
486 1 27.3149553962 70.1985127824 0.0
487 1 33.0059553962 70.9353127824 0.0
488 1 38.5613553962 69.0986127824 0.0
489 1 43.0366553962 71.4204127824 0.0
490 1 47.7671553962 70.6585127824 0.0
491 1 51.5160553962 72.4326127824 0.0
492 1 57.1262553962 71.4590127824 0.0
493 1 64.8015553962 70.6153127824 0.0
494 1 70.0723553962 70.7331127824 0.0
495 1 76.8081553962 71.0590127824 0.0
496 1 76.1396553962 75.7582127824 0.0
497 1 4.97427539616 75.3270127824 0.0
498 1 10.1606553962 74.9816127824 0.0
499 1 14.7857553962 74.6428127824 0.0
500 1 19.5032553962 74.7170127824 0.0
501 1 24.5871553962 74.6290127824 0.0
502 1 29.8467553962 74.8006127824 0.0
503 1 35.6053553962 75.1739127824 0.0
504 1 41.1074553962 75.8144127824 0.0
505 1 46.5002553962 75.5356127824 0.0
506 1 54.4729553962 72.9061127824 0.0
507 1 57.3631553962 75.9023127824 0.0
508 1 62.1628553962 74.6172127824 0.0
509 1 67.7413553962 75.0333127824 0.0
510 1 73.1589553962 75.1810127824 0.0
511 1 4.66012539616 78.3243127824 0.0
512 1 9.92825539616 78.0015127824 0.0
513 1 15.2437553962 77.6183127824 0.0
514 1 20.2439553962 79.7527127824 0.0
515 1 25.2628553962 77.5878127824 0.0
516 1 30.4502553962 79.5390127824 0.0
517 1 36.2004553962 78.1393127824 0.0
518 1 41.5135553962 78.7890127824 0.0
519 1 46.8008553962 78.5266127824 0.0
520 1 52.4679553962 78.2575127824 0.0
521 1 57.7398553962 78.8612127824 0.0
522 1 62.6360553962 77.5983127824 0.0
523 1 67.9689553962 78.0589127824 0.0
524 1 72.8160553962 78.1556127824 0.0
525 1 77.9661553962 78.1707127824 0.0
526 1 1.90457539616 79.5799127824 0.0
527 1 7.37409539616 79.6582127824 0.0
528 1 12.6794553962 79.2567127824 0.0
529 1 18.2762553962 77.4709127824 0.0
530 1 23.2851553962 79.9210127824 0.0
531 1 28.3057553962 77.4156127824 0.0
532 1 33.4576553962 79.3815127824 0.0
533 1 38.7031553962 79.8777127824 0.0
534 1 44.2288553962 80.1254127824 0.0
535 1 49.6762553962 79.4514127824 0.0
536 1 54.9505553962 79.9563127824 0.0
537 1 60.5773553962 79.7912127824 0.0
538 1 65.1850553962 79.1972127824 0.0
539 1 70.3790553962 79.8949127824 0.0
540 1 75.3980553962 79.6946127824 0.0
541 2 1.88584539616 81.0929127824 0.0
542 2 3.16560539616 2.28286278236 0.0
543 2 0.476647396155 2.12903278236 0.0
544 2 7.25760539616 0.0642027823603 0.0
545 2 8.48854539616 2.24630278236 0.0
546 2 5.80668539616 2.32383278236 0.0
547 2 12.4819553962 80.7537127824 0.0
548 2 13.8048553962 1.55649278236 0.0
549 2 11.1136553962 2.05123278236 0.0
550 2 19.1703553962 80.8277127824 0.0
551 2 18.6787553962 2.15028278236 0.0
552 2 16.5946553962 1.10312278236 0.0
553 2 23.6699553962 0.29955478236 0.0
554 2 25.1600553962 2.68976278236 0.0
555 2 22.9102553962 2.92352278236 0.0
556 2 29.9398553962 2.71972278236 0.0
557 2 30.3909553962 81.0573127824 0.0
558 2 32.2240553962 1.54013278236 0.0
559 2 33.6948553962 80.8662127824 0.0
560 2 35.0314553962 1.95634278236 0.0
561 2 38.9538553962 0.26762878236 0.0
562 2 40.4248553962 2.66118278236 0.0
563 2 37.7858553962 2.27215278236 0.0
564 2 42.9851553962 2.80885278236 0.0
565 2 45.6474553962 2.70668278236 0.0
566 2 44.2586553962 0.53219278236 0.0
567 2 49.5255553962 80.9561127824 0.0
568 2 50.7187553962 2.03093278236 0.0
569 2 48.1844553962 2.27488278236 0.0
570 2 54.9916553962 0.34720978236 0.0
571 2 55.9275553962 2.94294278236 0.0
572 2 53.4600553962 2.17561278236 0.0
573 2 60.8656553962 0.15677678236 0.0
574 2 62.8280553962 1.31606278236 0.0
575 2 60.6254553962 2.89706278236 0.0
576 2 64.9525553962 2.30784278236 0.0
577 2 66.8290553962 4.15682278236 0.0
578 2 64.3815553962 4.85546278236 0.0
579 2 71.5365553962 2.70480278236 0.0
580 2 71.1239553962 0.11941878236 0.0
581 2 73.5737553962 1.51787278236 0.0
582 2 75.3023553962 0.0733897823603 0.0
583 2 76.4414553962 2.22820278236 0.0
584 2 77.8751553962 4.28417278236 0.0
585 2 0.417775396155 6.59170278236 0.0
586 2 76.6420553962 6.61355278236 0.0
587 2 4.37422539616 4.57716278236 0.0
588 2 5.61249539616 6.82446278236 0.0
589 2 2.96901539616 6.86344278236 0.0
590 2 9.71026539616 4.42008278236 0.0
591 2 10.8353553962 6.70029278236 0.0
592 2 8.23559539616 6.72753278236 0.0
593 2 15.6965553962 6.06519278236 0.0
594 2 15.6345553962 3.33772278236 0.0
595 2 17.7545553962 4.34427278236 0.0
596 2 20.5207553962 3.90062278236 0.0
597 2 24.1466553962 6.94023278236 0.0
598 2 26.2177553962 8.14478278236 0.0
599 2 25.9237553962 5.28913278236 0.0
600 2 29.5931553962 5.45851278236 0.0
601 2 31.6015553962 6.92722278236 0.0
602 2 29.8365553962 8.36053278236 0.0
603 2 35.9916553962 4.13640278236 0.0
604 2 36.4209553962 6.78643278236 0.0
605 2 34.2029553962 6.20347278236 0.0
606 2 42.7955553962 7.73149278236 0.0
607 2 41.7346553962 5.06297278236 0.0
608 2 40.6989553962 7.59748278236 0.0
609 2 47.4697553962 4.72727278236 0.0
610 2 49.3076553962 6.82521278236 0.0
611 2 47.0939553962 7.39451278236 0.0
612 2 52.4394553962 4.14502278236 0.0
613 2 54.2482553962 6.25120278236 0.0
614 2 51.7459553962 6.46287278236 0.0
615 2 58.3404553962 4.05770278236 0.0
616 2 56.3583553962 5.54616278236 0.0
617 2 64.3083553962 7.36962278236 0.0
618 2 62.1121553962 6.57049278236 0.0
619 2 67.9964553962 6.30390278236 0.0
620 2 69.1892553962 8.44561278236 0.0
621 2 66.4782553962 8.39334278236 0.0
622 2 71.9053553962 5.37975278236 0.0
623 2 71.6283553962 7.90680278236 0.0
624 2 74.0231553962 7.05049278236 0.0
625 2 0.915285396155 11.4932127824 0.0
626 2 3.17143539616 12.6924127824 0.0
627 2 1.00889539616 14.1478127824 0.0
628 2 6.85223539616 9.06029278236 0.0
629 2 8.04869539616 11.3951127824 0.0
630 2 5.65895539616 11.5970127824 0.0
631 2 11.8561553962 9.04663278236 0.0
632 2 13.1606553962 11.1954127824 0.0
633 2 10.5602553962 11.3775127824 0.0
634 2 16.0781553962 8.59478278236 0.0
635 2 18.2191553962 10.5807127824 0.0
636 2 15.7362553962 10.8694127824 0.0
637 2 22.3168553962 8.53672278236 0.0
638 2 23.3549553962 11.0127127824 0.0
639 2 20.8225553962 10.6436127824 0.0
640 2 28.1010553962 9.83361278236 0.0
641 2 25.6781553962 10.7527127824 0.0
642 2 34.3418553962 11.2934127824 0.0
643 2 33.6014553962 8.58716278236 0.0
644 2 35.8126553962 9.14020278236 0.0
645 2 38.3924553962 8.55963278236 0.0
646 2 44.9601553962 8.95450278236 0.0
647 2 42.6294553962 10.3573127824 0.0
648 2 54.2085553962 9.84981278236 0.0
649 2 51.8972553962 10.9315127824 0.0
650 2 51.6275553962 8.63926278236 0.0
651 2 56.7001553962 11.0181127824 0.0
652 2 55.8591553962 8.34829278236 0.0
653 2 60.2521553962 8.51707278236 0.0
654 2 61.5135553962 10.5490127824 0.0
655 2 58.9969553962 11.0835127824 0.0
656 2 63.7703553962 12.1444127824 0.0
657 2 66.1495553962 13.1392127824 0.0
658 2 63.6373553962 14.5047127824 0.0
659 2 70.5648553962 10.4695127824 0.0
660 2 72.0074553962 12.2337127824 0.0
661 2 69.0757553962 12.4753127824 0.0
662 2 75.6017553962 9.01356278236 0.0
663 2 77.4065553962 10.4335127824 0.0
664 2 74.7191553962 11.4625127824 0.0
665 2 1.58061539616 16.6028127824 0.0
666 2 77.8280553962 16.1084127824 0.0
667 2 3.99555539616 16.6377127824 0.0
668 2 6.43171539616 16.5415127824 0.0
669 2 5.02026539616 14.2184127824 0.0
670 2 9.51258539616 13.7103127824 0.0
671 2 11.2128553962 15.7263127824 0.0
672 2 8.78190539616 16.2953127824 0.0
673 2 14.8555553962 13.2341127824 0.0
674 2 16.4872553962 15.3370127824 0.0
675 2 13.8559553962 15.4906127824 0.0
676 2 19.9133553962 12.8351127824 0.0
677 2 21.5487553962 15.1840127824 0.0
678 2 19.0833553962 15.1283127824 0.0
679 2 25.0734553962 13.2741127824 0.0
680 2 26.5667553962 15.7302127824 0.0
681 2 24.0730553962 15.4344127824 0.0
682 2 30.5860553962 13.9452127824 0.0
683 2 31.7634553962 16.1390127824 0.0
684 2 29.0648553962 16.0915127824 0.0
685 2 35.0051553962 13.9220127824 0.0
686 2 34.4656553962 16.0819127824 0.0
687 2 37.1660553962 15.7330127824 0.0
688 2 41.1268553962 12.8318127824 0.0
689 2 42.3810553962 14.7852127824 0.0
690 2 39.7525553962 15.3295127824 0.0
691 2 47.1819553962 12.4734127824 0.0
692 2 47.8774553962 14.6128127824 0.0
693 2 45.1573553962 14.3560127824 0.0
694 2 51.6518553962 13.4104127824 0.0
695 2 53.4951553962 15.4625127824 0.0
696 2 50.6555553962 15.2473127824 0.0
697 2 57.7690553962 13.5865127824 0.0
698 2 58.8370553962 16.1111127824 0.0
699 2 56.2392553962 15.6839127824 0.0
700 2 64.1030553962 16.5507127824 0.0
701 2 61.4036553962 16.3843127824 0.0
702 2 68.0267553962 14.5499127824 0.0
703 2 69.7231553962 16.4133127824 0.0
704 2 66.8894553962 16.6151127824 0.0
705 2 73.7299553962 13.8859127824 0.0
706 2 75.1488553962 16.0566127824 0.0
707 2 72.4774553962 16.1083127824 0.0
708 2 2.85385539616 19.0202127824 0.0
709 2 1.33154539616 20.9433127824 0.0
710 2 3.61646539616 21.7781127824 0.0
711 2 7.63096539616 21.7729127824 0.0
712 2 9.58913539616 20.5788127824 0.0
713 2 7.80783539616 18.8546127824 0.0
714 2 13.0143553962 17.7448127824 0.0
715 2 14.6511553962 20.0268127824 0.0
716 2 12.1929553962 20.0577127824 0.0
717 2 18.0281553962 17.4583127824 0.0
718 2 19.4725553962 19.7383127824 0.0
719 2 17.0500553962 19.8891127824 0.0
720 2 23.0320553962 17.6020127824 0.0
721 2 24.3677553962 20.1578127824 0.0
722 2 21.9957553962 19.8069127824 0.0
723 2 27.7717553962 18.2515127824 0.0
724 2 29.2809553962 20.4442127824 0.0
725 2 26.6910553962 20.6286127824 0.0
726 2 33.2534553962 18.2714127824 0.0
727 2 34.6674553962 20.4853127824 0.0
728 2 31.9713553962 20.3812127824 0.0
729 2 39.7237553962 20.0821127824 0.0
730 2 42.5063553962 20.6762127824 0.0
731 2 40.9553553962 22.3921127824 0.0
732 2 46.6201553962 18.0710127824 0.0
733 2 44.4056553962 16.5260127824 0.0
734 2 44.4884553962 19.1816127824 0.0
735 2 49.3866553962 18.9670127824 0.0
736 2 52.1416553962 19.2850127824 0.0
737 2 50.1034553962 21.0858127824 0.0
738 2 54.2971553962 20.3659127824 0.0
739 2 56.2828553962 21.9650127824 0.0
740 2 53.5651553962 22.7275127824 0.0
741 2 60.0130553962 18.6182127824 0.0
742 2 61.4434553962 20.8800127824 0.0
743 2 58.9083553962 21.1375127824 0.0
744 2 65.4602553962 18.6249127824 0.0
745 2 66.8866553962 20.5919127824 0.0
746 2 64.1096553962 20.7426127824 0.0
747 2 71.1280553962 18.3474127824 0.0
748 2 72.3180553962 20.5860127824 0.0
749 2 69.6488553962 20.4692127824 0.0
750 2 76.3457553962 18.2730127824 0.0
751 2 77.4523553962 20.6233127824 0.0
752 2 74.9171553962 20.5371127824 0.0
753 2 78.7344553962 22.9796127824 0.0
754 2 1.38605539616 25.2127127824 0.0
755 2 77.4153553962 25.0066127824 0.0
756 2 5.78652539616 23.2398127824 0.0
757 2 3.60872539616 24.4666127824 0.0
758 2 11.3891553962 22.4287127824 0.0
759 2 10.4311553962 24.7343127824 0.0
760 2 12.9147553962 24.7056127824 0.0
761 2 16.2301553962 22.3188127824 0.0
762 2 17.7449553962 24.6693127824 0.0
763 2 15.3476553962 24.7009127824 0.0
764 2 20.8336553962 22.0627127824 0.0
765 2 22.5976553962 23.8060127824 0.0
766 2 20.0940553962 24.6155127824 0.0
767 2 25.5500553962 27.2989127824 0.0
768 2 28.3133553962 26.5461127824 0.0
769 2 27.5909553962 28.8078127824 0.0
770 2 31.1210553962 22.5227127824 0.0
771 2 33.2954553962 23.9934127824 0.0
772 2 30.7379553962 24.9639127824 0.0
773 2 35.5419553962 22.7287127824 0.0
774 2 37.1948553962 20.3335127824 0.0
775 2 45.4500553962 23.5912127824 0.0
776 2 45.2716553962 21.4582127824 0.0
777 2 47.9574553962 22.5017127824 0.0
778 2 50.8387553962 23.1525127824 0.0
779 2 52.4225553962 25.0750127824 0.0
780 2 54.1441553962 26.7942127824 0.0
781 2 51.7034553962 27.7313127824 0.0
782 2 57.9330553962 23.6938127824 0.0
783 2 59.2013553962 26.0467127824 0.0
784 2 56.7499553962 26.1448127824 0.0
785 2 64.0002553962 25.2716127824 0.0
786 2 63.6453553962 22.8166127824 0.0
787 2 66.1919553962 24.0562127824 0.0