ITEM: TIMESTEP
0
ITEM: NUMBER OF ATOMS
1350
ITEM: BOX BOUNDS xy xz yz pp pp pp
0.0 79.0838301896 0
0.0 80.7834018667 0
-10.0 10.0 0
ITEM: ATOMS id type x y z vx vy vz
1 1 2.02155287163 1.04201093334 0.0 0.0 0.0 0.0
2 1 7.62605287163 1.51724093334 0.0 0.0 0.0 0.0
3 1 17.1683528716 2.31239093334 0.0 0.0 0.0 0.0
4 1 15.5295528716 80.5775009333 0.0 0.0 0.0 0.0
5 1 22.5226528716 1.54266093334 0.0 0.0 0.0 0.0
6 1 27.6057528716 1.01204093334 0.0 0.0 0.0 0.0
7 1 32.7807528716 2.75560093334 0.0 0.0 0.0 0.0
8 1 38.7376528716 1.70018093334 0.0 0.0 0.0 0.0
9 1 44.7180528716 1.21874093334 0.0 0.0 0.0 0.0
10 1 48.9739528716 3.77380093334 0.0 0.0 0.0 0.0
11 1 54.0758528716 1.77745093334 0.0 0.0 0.0 0.0
12 1 58.9446528716 4.11752093334 0.0 0.0 0.0 0.0
13 1 64.0588528716 1.69419093334 0.0 0.0 0.0 0.0
14 1 70.5327528716 1.39817093334 0.0 0.0 0.0 0.0
15 1 75.7778528716 0.835120933341 0.0 0.0 0.0 0.0
16 1 78.3425528716 5.35944093334 0.0 0.0 0.0 0.0
17 1 4.62183287163 5.35581093334 0.0 0.0 0.0 0.0
18 1 9.38458287163 3.98309093334 0.0 0.0 0.0 0.0
19 1 16.2611528716 7.08819093334 0.0 0.0 0.0 0.0
20 1 21.2868528716 6.00629093334 0.0 0.0 0.0 0.0
21 1 26.7987528716 7.41667093334 0.0 0.0 0.0 0.0
22 1 31.9815528716 5.68960093334 0.0 0.0 0.0 0.0
23 1 36.3805528716 5.47523093334 0.0 0.0 0.0 0.0
24 1 40.7023528716 4.02029093334 0.0 0.0 0.0 0.0
25 1 47.2603528716 8.28353093334 0.0 0.0 0.0 0.0
26 1 52.7899528716 6.85523093334 0.0 0.0 0.0 0.0
27 1 58.3727528716 7.06960093334 0.0 0.0 0.0 0.0
28 1 64.1117528716 5.87103093334 0.0 0.0 0.0 0.0
29 1 66.2250528716 3.76214093334 0.0 0.0 0.0 0.0
30 1 73.2892528716 5.56316093334 0.0 0.0 0.0 0.0
31 1 2.13652287163 9.71370093334 0.0 0.0 0.0 0.0
32 1 7.83400287163 9.29300093334 0.0 0.0 0.0 0.0
33 1 13.2544528716 10.9937009333 0.0 0.0 0.0 0.0
34 1 18.7093528716 11.0833009333 0.0 0.0 0.0 0.0
35 1 26.8530528716 10.4041009333 0.0 0.0 0.0 0.0
36 1 29.8362528716 10.7901009333 0.0 0.0 0.0 0.0
37 1 35.4968528716 10.3797009333 0.0 0.0 0.0 0.0
38 1 40.4338528716 11.7158009333 0.0 0.0 0.0 0.0
39 1 45.9908528716 11.0154009333 0.0 0.0 0.0 0.0
40 1 50.5175528716 11.4880009333 0.0 0.0 0.0 0.0
41 1 55.6887528716 11.1061009333 0.0 0.0 0.0 0.0
42 1 60.8099528716 11.9129009333 0.0 0.0 0.0 0.0
43 1 65.4240528716 11.3586009333 0.0 0.0 0.0 0.0
44 1 70.3206528716 9.82860093334 0.0 0.0 0.0 0.0
45 1 75.7964528716 10.1117009333 0.0 0.0 0.0 0.0
46 1 0.252655871632 14.1575009333 0.0 0.0 0.0 0.0
47 1 5.57564287163 13.4440009333 0.0 0.0 0.0 0.0
48 1 10.2819528716 16.1306009333 0.0 0.0 0.0 0.0
49 1 15.9709528716 15.4657009333 0.0 0.0 0.0 0.0
50 1 21.1888528716 15.1142009333 0.0 0.0 0.0 0.0
51 1 26.4562528716 14.7221009333 0.0 0.0 0.0 0.0
52 1 31.2777528716 13.4759009333 0.0 0.0 0.0 0.0
53 1 39.7452528716 14.6365009333 0.0 0.0 0.0 0.0
54 1 42.6938528716 15.3660009333 0.0 0.0 0.0 0.0
55 1 47.9324528716 16.2133009333 0.0 0.0 0.0 0.0
56 1 53.0325528716 15.7814009333 0.0 0.0 0.0 0.0
57 1 58.2206528716 15.9843009333 0.0 0.0 0.0 0.0
58 1 63.3733528716 16.5360009333 0.0 0.0 0.0 0.0
59 1 69.0974528716 15.0613009333 0.0 0.0 0.0 0.0
60 1 73.8926528716 16.3598009333 0.0 0.0 0.0 0.0
61 1 3.92766287163 18.0668009333 0.0 0.0 0.0 0.0
62 1 9.08534287163 18.8890009333 0.0 0.0 0.0 0.0
63 1 13.2429528716 22.2572009333 0.0 0.0 0.0 0.0
64 1 20.6382528716 19.1371009333 0.0 0.0 0.0 0.0
65 1 23.6690528716 19.3088009333 0.0 0.0 0.0 0.0
66 1 29.2871528716 18.8851009333 0.0 0.0 0.0 0.0
67 1 34.4498528716 19.9815009333 0.0 0.0 0.0 0.0
68 1 39.2401528716 19.8356009333 0.0 0.0 0.0 0.0
69 1 45.2417528716 20.2682009333 0.0 0.0 0.0 0.0
70 1 52.2778528716 20.1186009333 0.0 0.0 0.0 0.0
71 1 55.2857528716 20.3529009333 0.0 0.0 0.0 0.0
72 1 60.5152528716 20.7643009333 0.0 0.0 0.0 0.0
73 1 65.2517528716 18.8863009333 0.0 0.0 0.0 0.0
74 1 72.5526528716 19.0665009333 0.0 0.0 0.0 0.0
75 1 77.6335528716 18.7758009333 0.0 0.0 0.0 0.0
76 1 1.73706287163 22.6554009333 0.0 0.0 0.0 0.0
77 1 5.53793287163 25.4927009333 0.0 0.0 0.0 0.0
78 1 11.4371528716 24.6694009333 0.0 0.0 0.0 0.0
79 1 16.6144528716 25.4231009333 0.0 0.0 0.0 0.0
80 1 20.9529528716 24.1373009333 0.0 0.0 0.0 0.0
81 1 26.2737528716 23.2475009333 0.0 0.0 0.0 0.0
82 1 31.2286528716 23.9851009333 0.0 0.0 0.0 0.0
83 1 36.9142528716 24.7061009333 0.0 0.0 0.0 0.0
84 1 42.1802528716 23.6405009333 0.0 0.0 0.0 0.0
85 1 47.6520528716 25.0022009333 0.0 0.0 0.0 0.0
86 1 52.5694528716 25.2280009333 0.0 0.0 0.0 0.0
87 1 57.7717528716 25.0788009333 0.0 0.0 0.0 0.0
88 1 63.5299528716 24.3674009333 0.0 0.0 0.0 0.0
89 1 69.8718528716 23.5365009333 0.0 0.0 0.0 0.0
90 1 75.4901528716 23.4690009333 0.0 0.0 0.0 0.0
91 1 4.02490287163 28.1290009333 0.0 0.0 0.0 0.0
92 1 8.32743287163 28.5372009333 0.0 0.0 0.0 0.0
93 1 14.1433528716 29.4659009333 0.0 0.0 0.0 0.0
94 1 21.0949528716 29.0718009333 0.0 0.0 0.0 0.0
95 1 23.8960528716 28.0013009333 0.0 0.0 0.0 0.0
96 1 28.5633528716 28.2792009333 0.0 0.0 0.0 0.0
97 1 32.2297528716 26.8639009333 0.0 0.0 0.0 0.0
98 1 39.1756528716 28.3912009333 0.0 0.0 0.0 0.0
99 1 44.3266528716 28.2619009333 0.0 0.0 0.0 0.0
100 1 49.7134528716 29.8449009333 0.0 0.0 0.0 0.0
101 1 56.0073528716 29.7446009333 0.0 0.0 0.0 0.0
102 1 61.5732528716 28.4841009333 0.0 0.0 0.0 0.0
103 1 65.6692528716 26.5119009333 0.0 0.0 0.0 0.0
104 1 72.7780528716 27.5728009333 0.0 0.0 0.0 0.0
105 1 78.1072528716 27.3744009333 0.0 0.0 0.0 0.0
106 1 0.375907871632 34.7706009333 0.0 0.0 0.0 0.0
107 1 5.68452287163 33.4262009333 0.0 0.0 0.0 0.0
108 1 10.4486528716 32.3572009333 0.0 0.0 0.0 0.0
109 1 15.6550528716 32.0605009333 0.0 0.0 0.0 0.0
110 1 23.4023528716 33.7232009333 0.0 0.0 0.0 0.0
111 1 26.3492528716 33.0357009333 0.0 0.0 0.0 0.0
112 1 31.5543528716 32.7875009333 0.0 0.0 0.0 0.0
113 1 36.2233528716 32.8137009333 0.0 0.0 0.0 0.0
114 1 41.4804528716 32.7730009333 0.0 0.0 0.0 0.0
115 1 46.7574528716 33.0130009333 0.0 0.0 0.0 0.0
116 1 50.8740528716 35.6362009333 0.0 0.0 0.0 0.0
117 1 60.3355528716 32.7694009333 0.0 0.0 0.0 0.0
118 1 65.6480528716 32.0991009333 0.0 0.0 0.0 0.0
119 1 70.6707528716 32.0717009333 0.0 0.0 0.0 0.0
120 1 75.6599528716 31.8372009333 0.0 0.0 0.0 0.0
121 1 3.21631287163 38.3087009333 0.0 0.0 0.0 0.0
122 1 11.9407528716 38.7447009333 0.0 0.0 0.0 0.0
123 1 11.1560528716 35.8923009333 0.0 0.0 0.0 0.0
124 1 18.6559528716 40.8272009333 0.0 0.0 0.0 0.0
125 1 23.9385528716 38.3556009333 0.0 0.0 0.0 0.0
126 1 29.5698528716 37.4621009333 0.0 0.0 0.0 0.0
127 1 35.0366528716 37.5883009333 0.0 0.0 0.0 0.0
128 1 40.0647528716 36.9727009333 0.0 0.0 0.0 0.0
129 1 45.8863528716 38.1632009333 0.0 0.0 0.0 0.0
130 1 53.8735528716 35.4024009333 0.0 0.0 0.0 0.0
131 1 57.8576528716 37.4417009333 0.0 0.0 0.0 0.0
132 1 63.0876528716 36.7969009333 0.0 0.0 0.0 0.0
133 1 68.1884528716 36.8416009333 0.0 0.0 0.0 0.0
134 1 74.4829528716 36.5080009333 0.0 0.0 0.0 0.0
135 1 77.4759528716 37.0425009333 0.0 0.0 0.0 0.0
136 1 78.9889528716 42.3278009333 0.0 0.0 0.0 0.0
137 1 6.93216287163 42.2334009333 0.0 0.0 0.0 0.0
138 1 9.90453287163 42.2442009333 0.0 0.0 0.0 0.0
139 1 14.2862528716 40.6004009333 0.0 0.0 0.0 0.0
140 1 21.5367528716 43.1742009333 0.0 0.0 0.0 0.0
141 1 26.8490528716 41.9332009333 0.0 0.0 0.0 0.0
142 1 32.8800528716 41.8325009333 0.0 0.0 0.0 0.0
143 1 40.0245528716 41.1165009333 0.0 0.0 0.0 0.0
144 1 45.8424528716 41.1520009333 0.0 0.0 0.0 0.0
145 1 48.8610528716 40.9301009333 0.0 0.0 0.0 0.0
146 1 54.3122528716 41.2074009333 0.0 0.0 0.0 0.0
147 1 61.6988528716 41.3630009333 0.0 0.0 0.0 0.0
148 1 64.7068528716 41.2986009333 0.0 0.0 0.0 0.0
149 1 69.2877528716 42.1228009333 0.0 0.0 0.0 0.0
150 1 73.8480528716 42.1586009333 0.0 0.0 0.0 0.0
151 1 1.92210287163 47.1231009333 0.0 0.0 0.0 0.0
152 1 7.38908287163 46.8339009333 0.0 0.0 0.0 0.0
153 1 12.8073528716 46.2505009333 0.0 0.0 0.0 0.0
154 1 18.1579528716 46.7608009333 0.0 0.0 0.0 0.0
155 1 23.8784528716 46.6430009333 0.0 0.0 0.0 0.0
156 1 28.2812528716 44.5646009333 0.0 0.0 0.0 0.0
157 1 35.0583528716 46.5089009333 0.0 0.0 0.0 0.0
158 1 39.1964528716 46.5054009333 0.0 0.0 0.0 0.0
159 1 43.8683528716 44.9737009333 0.0 0.0 0.0 0.0
160 1 50.9646528716 45.3714009333 0.0 0.0 0.0 0.0
161 1 56.2264528716 46.1133009333 0.0 0.0 0.0 0.0
162 1 60.8844528716 46.3251009333 0.0 0.0 0.0 0.0
163 1 66.3208528716 46.6041009333 0.0 0.0 0.0 0.0
164 1 71.1892528716 47.1284009333 0.0 0.0 0.0 0.0
165 1 75.9149528716 46.8393009333 0.0 0.0 0.0 0.0
166 1 78.8080528716 51.5384009333 0.0 0.0 0.0 0.0
167 1 4.89215287163 51.1570009333 0.0 0.0 0.0 0.0
168 1 10.5088528716 50.8990009333 0.0 0.0 0.0 0.0
169 1 15.9497528716 50.8279009333 0.0 0.0 0.0 0.0
170 1 21.5850528716 50.5997009333 0.0 0.0 0.0 0.0
171 1 26.8093528716 50.1810009333 0.0 0.0 0.0 0.0
172 1 31.8449528716 50.2086009333 0.0 0.0 0.0 0.0
173 1 36.8212528716 51.6522009333 0.0 0.0 0.0 0.0
174 1 44.1313528716 49.5014009333 0.0 0.0 0.0 0.0
175 1 45.9718528716 47.1241009333 0.0 0.0 0.0 0.0
176 1 52.6752528716 50.0105009333 0.0 0.0 0.0 0.0
177 1 58.5043528716 51.1217009333 0.0 0.0 0.0 0.0
178 1 63.3058528716 50.7824009333 0.0 0.0 0.0 0.0
179 1 68.3308528716 51.6703009333 0.0 0.0 0.0 0.0
180 1 73.8806528716 51.8969009333 0.0 0.0 0.0 0.0
181 1 4.45240287163 55.0254009333 0.0 0.0 0.0 0.0
182 1 7.43963287163 54.9926009333 0.0 0.0 0.0 0.0
183 1 11.5430528716 53.7513009333 0.0 0.0 0.0 0.0
184 1 19.2163528716 54.7012009333 0.0 0.0 0.0 0.0
185 1 25.6439528716 54.5486009333 0.0 0.0 0.0 0.0
186 1 28.6361528716 54.7147009333 0.0 0.0 0.0 0.0
187 1 33.4202528716 55.3421009333 0.0 0.0 0.0 0.0
188 1 38.2694528716 54.2776009333 0.0 0.0 0.0 0.0
189 1 45.5153528716 54.9574009333 0.0 0.0 0.0 0.0
190 1 49.6735528716 53.5508009333 0.0 0.0 0.0 0.0
191 1 53.9888528716 52.6926009333 0.0 0.0 0.0 0.0
192 1 60.2515528716 55.6587009333 0.0 0.0 0.0 0.0
193 1 65.0938528716 55.7590009333 0.0 0.0 0.0 0.0
194 1 69.4493528716 54.4848009333 0.0 0.0 0.0 0.0
195 1 76.7382528716 56.4117009333 0.0 0.0 0.0 0.0
196 1 1.41821287163 60.7832009333 0.0 0.0 0.0 0.0
197 1 4.38733287163 60.3979009333 0.0 0.0 0.0 0.0
198 1 9.58008287163 59.3988009333 0.0 0.0 0.0 0.0
199 1 17.1844528716 58.6966009333 0.0 0.0 0.0 0.0
200 1 20.0668528716 59.5417009333 0.0 0.0 0.0 0.0
201 1 25.0732528716 60.1033009333 0.0 0.0 0.0 0.0
202 1 30.3740528716 59.7762009333 0.0 0.0 0.0 0.0
203 1 35.9952528716 59.4601009333 0.0 0.0 0.0 0.0
204 1 43.4394528716 59.4929009333 0.0 0.0 0.0 0.0
205 1 49.8287528716 58.8037009333 0.0 0.0 0.0 0.0
206 1 52.7581528716 58.0767009333 0.0 0.0 0.0 0.0
207 1 56.6211528716 61.9136009333 0.0 0.0 0.0 0.0
208 1 62.2185528716 60.4585009333 0.0 0.0 0.0 0.0
209 1 67.6702528716 60.0601009333 0.0 0.0 0.0 0.0
210 1 73.1252528716 60.1679009333 0.0 0.0 0.0 0.0
211 1 0.722264871632 65.5213009333 0.0 0.0 0.0 0.0
212 1 7.05752287163 64.3814009333 0.0 0.0 0.0 0.0
213 1 12.1145528716 63.8117009333 0.0 0.0 0.0 0.0
214 1 16.9208528716 63.4246009333 0.0 0.0 0.0 0.0
215 1 22.2810528716 64.4591009333 0.0 0.0 0.0 0.0
216 1 27.3362528716 64.3394009333 0.0 0.0 0.0 0.0
217 1 33.9643528716 63.5856009333 0.0 0.0 0.0 0.0
218 1 38.2402528716 61.4604009333 0.0 0.0 0.0 0.0
219 1 44.5394528716 66.1817009333 0.0 0.0 0.0 0.0
220 1 49.6585528716 64.5643009333 0.0 0.0 0.0 0.0
221 1 54.9590528716 64.4748009333 0.0 0.0 0.0 0.0
222 1 61.1396528716 64.7164009333 0.0 0.0 0.0 0.0
223 1 65.6826528716 67.0375009333 0.0 0.0 0.0 0.0
224 1 70.3942528716 64.4457009333 0.0 0.0 0.0 0.0
225 1 75.2338528716 65.0217009333 0.0 0.0 0.0 0.0
226 1 78.1381528716 70.0342009333 0.0 0.0 0.0 0.0
227 1 2.97309287163 67.5032009333 0.0 0.0 0.0 0.0
228 1 10.0438528716 68.6218009333 0.0 0.0 0.0 0.0
229 1 15.2523528716 68.3069009333 0.0 0.0 0.0 0.0
230 1 19.6678528716 70.5614009333 0.0 0.0 0.0 0.0
231 1 25.5943528716 68.9528009333 0.0 0.0 0.0 0.0
232 1 29.5143528716 66.4037009333 0.0 0.0 0.0 0.0
233 1 37.2098528716 67.1237009333 0.0 0.0 0.0 0.0
234 1 42.3760528716 68.2501009333 0.0 0.0 0.0 0.0
235 1 46.9781528716 69.6509009333 0.0 0.0 0.0 0.0
236 1 52.2649528716 69.0472009333 0.0 0.0 0.0 0.0
237 1 56.6125528716 66.9912009333 0.0 0.0 0.0 0.0
238 1 65.5857528716 70.0406009333 0.0 0.0 0.0 0.0
239 1 69.9616528716 69.6145009333 0.0 0.0 0.0 0.0
240 1 72.9398528716 69.4318009333 0.0 0.0 0.0 0.0
241 1 2.49537287163 73.3209009333 0.0 0.0 0.0 0.0
242 1 7.42976287163 72.9272009333 0.0 0.0 0.0 0.0
243 1 12.2469528716 72.8949009333 0.0 0.0 0.0 0.0
244 1 17.9831528716 73.0312009333 0.0 0.0 0.0 0.0
245 1 22.0911528716 72.3052009333 0.0 0.0 0.0 0.0
246 1 29.4263528716 72.1294009333 0.0 0.0 0.0 0.0
247 1 34.1099528716 71.3833009333 0.0 0.0 0.0 0.0
248 1 39.1677528716 72.0435009333 0.0 0.0 0.0 0.0
249 1 43.4325528716 73.5643009333 0.0 0.0 0.0 0.0
250 1 48.1887528716 72.3947009333 0.0 0.0 0.0 0.0
251 1 56.1024528716 72.5174009333 0.0 0.0 0.0 0.0
252 1 59.0490528716 73.0068009333 0.0 0.0 0.0 0.0
253 1 63.2536528716 74.4214009333 0.0 0.0 0.0 0.0
254 1 66.9409528716 72.7292009333 0.0 0.0 0.0 0.0
255 1 73.9003528716 72.2857009333 0.0 0.0 0.0 0.0
256 1 78.3875528716 2.34640093334 0.0 0.0 0.0 0.0
257 1 4.73039287163 2.35844093334 0.0 0.0 0.0 0.0
258 1 12.1324528716 5.24780093334 0.0 0.0 0.0 0.0
259 1 15.0032528716 4.37606093334 0.0 0.0 0.0 0.0
260 1 20.0451528716 3.25135093334 0.0 0.0 0.0 0.0
261 1 25.2255528716 2.86157093334 0.0 0.0 0.0 0.0
262 1 30.6066528716 0.638040933341 0.0 0.0 0.0 0.0
263 1 35.8108528716 2.52867093334 0.0 0.0 0.0 0.0
264 1 43.7237528716 4.04572093334 0.0 0.0 0.0 0.0
265 1 47.7150528716 1.05576093334 0.0 0.0 0.0 0.0
266 1 51.9901528716 3.95888093334 0.0 0.0 0.0 0.0
267 1 57.0956528716 1.74420093334 0.0 0.0 0.0 0.0
268 1 61.9330528716 3.80780093334 0.0 0.0 0.0 0.0
269 1 69.1985528716 4.10266093334 0.0 0.0 0.0 0.0
270 1 73.3082528716 2.54868093334 0.0 0.0 0.0 0.0
271 1 1.94291287163 6.71793093334 0.0 0.0 0.0 0.0
272 1 7.47246287163 6.30874093334 0.0 0.0 0.0 0.0
273 1 13.4027528716 7.98812093334 0.0 0.0 0.0 0.0
274 1 19.0951528716 8.09053093334 0.0 0.0 0.0 0.0
275 1 24.3059528716 5.72473093334 0.0 0.0 0.0 0.0
276 1 29.7879528716 7.75680093334 0.0 0.0 0.0 0.0
277 1 34.2879528716 7.61999093334 0.0 0.0 0.0 0.0
278 1 39.1539528716 6.59641093334 0.0 0.0 0.0 0.0
279 1 46.4233528716 5.40154093334 0.0 0.0 0.0 0.0
280 1 50.2630528716 8.50080093334 0.0 0.0 0.0 0.0
281 1 55.5401528716 8.10142093334 0.0 0.0 0.0 0.0
282 1 60.7691528716 8.91383093334 0.0 0.0 0.0 0.0
283 1 63.7775528716 8.83812093334 0.0 0.0 0.0 0.0
284 1 70.5475528716 6.80550093334 0.0 0.0 0.0 0.0
285 1 75.8779528716 7.09541093334 0.0 0.0 0.0 0.0
286 1 78.6101528716 11.2346009333 0.0 0.0 0.0 0.0
287 1 5.05674287163 10.4903009333 0.0 0.0 0.0 0.0
288 1 10.2243528716 11.1473009333 0.0 0.0 0.0 0.0
289 1 15.9578528716 12.4237009333 0.0 0.0 0.0 0.0
290 1 21.5490528716 12.1489009333 0.0 0.0 0.0 0.0
291 1 24.5775528716 12.3420009333 0.0 0.0 0.0 0.0
292 1 34.3216528716 13.1783009333 0.0 0.0 0.0 0.0
293 1 38.3979528716 9.51150093334 0.0 0.0 0.0 0.0
294 1 43.3382528716 12.4207009333 0.0 0.0 0.0 0.0
295 1 48.0561528716 13.2003009333 0.0 0.0 0.0 0.0
296 1 53.2088528716 12.7895009333 0.0 0.0 0.0 0.0
297 1 58.0242528716 12.9938009333 0.0 0.0 0.0 0.0
298 1 63.3481528716 13.5264009333 0.0 0.0 0.0 0.0
299 1 68.3321528716 12.1237009333 0.0 0.0 0.0 0.0
300 1 72.9836528716 11.2440009333 0.0 0.0 0.0 0.0
301 1 3.10843287163 15.1690009333 0.0 0.0 0.0 0.0
302 1 8.57857287163 13.6636009333 0.0 0.0 0.0 0.0
303 1 13.2273528716 16.7700009333 0.0 0.0 0.0 0.0
304 1 18.7070528716 16.7981009333 0.0 0.0 0.0 0.0
305 1 23.9350528716 16.3373009333 0.0 0.0 0.0 0.0
306 1 29.2983528716 15.8140009333 0.0 0.0 0.0 0.0
307 1 36.7768528716 18.0523009333 0.0 0.0 0.0 0.0
308 1 36.7364528716 15.0413009333 0.0 0.0 0.0 0.0
309 1 45.0919528716 17.2441009333 0.0 0.0 0.0 0.0
310 1 50.6322528716 17.5821009333 0.0 0.0 0.0 0.0
311 1 55.5752528716 17.3736009333 0.0 0.0 0.0 0.0
312 1 60.6339528716 17.7625009333 0.0 0.0 0.0 0.0
313 1 68.1405528716 17.9755009333 0.0 0.0 0.0 0.0
314 1 71.9539528716 14.0814009333 0.0 0.0 0.0 0.0
315 1 76.8688528716 15.8862009333 0.0 0.0 0.0 0.0
316 1 1.39922287163 19.6829009333 0.0 0.0 0.0 0.0
317 1 6.26018287163 19.9745009333 0.0 0.0 0.0 0.0
318 1 12.0201528716 19.5261009333 0.0 0.0 0.0 0.0
319 1 16.2455528716 22.4553009333 0.0 0.0 0.0 0.0
320 1 19.1532528716 21.7328009333 0.0 0.0 0.0 0.0
321 1 26.5546528716 20.2453009333 0.0 0.0 0.0 0.0
322 1 31.5626528716 20.9380009333 0.0 0.0 0.0 0.0
323 1 36.8915528716 21.7231009333 0.0 0.0 0.0 0.0
324 1 42.1993528716 20.6400009333 0.0 0.0 0.0 0.0
325 1 47.8166528716 22.0002009333 0.0 0.0 0.0 0.0
326 1 50.7972528716 22.7198009333 0.0 0.0 0.0 0.0
327 1 57.7786528716 22.0628009333 0.0 0.0 0.0 0.0
328 1 63.4807528716 21.3523009333 0.0 0.0 0.0 0.0
329 1 69.8743528716 20.4741009333 0.0 0.0 0.0 0.0
330 1 75.1824528716 20.4974009333 0.0 0.0 0.0 0.0
331 1 4.74457287163 22.5952009333 0.0 0.0 0.0 0.0
332 1 8.54489287163 25.5510009333 0.0 0.0 0.0 0.0
333 1 13.8293528716 26.4963009333 0.0 0.0 0.0 0.0
334 1 19.3339528716 26.6587009333 0.0 0.0 0.0 0.0
335 1 23.8278528716 24.9886009333 0.0 0.0 0.0 0.0
336 1 28.5060528716 25.2547009333 0.0 0.0 0.0 0.0
337 1 35.1955528716 27.1591009333 0.0 0.0 0.0 0.0
338 1 39.8003528716 25.4639009333 0.0 0.0 0.0 0.0
339 1 44.6743528716 25.3013009333 0.0 0.0 0.0 0.0
340 1 50.0458528716 26.8585009333 0.0 0.0 0.0 0.0
341 1 55.2344528716 26.7692009333 0.0 0.0 0.0 0.0
342 1 60.7638528716 25.5906009333 0.0 0.0 0.0 0.0
343 1 68.6853528716 26.3589009333 0.0 0.0 0.0 0.0
344 1 72.6956528716 24.5750009333 0.0 0.0 0.0 0.0
345 1 78.3550528716 24.3870009333 0.0 0.0 0.0 0.0
346 1 1.26568287163 29.3601009333 0.0 0.0 0.0 0.0
347 1 5.97470287163 30.4165009333 0.0 0.0 0.0 0.0
348 1 11.1497528716 29.4822009333 0.0 0.0 0.0 0.0
349 1 18.2798528716 33.5236009333 0.0 0.0 0.0 0.0
350 1 20.9032528716 32.0569009333 0.0 0.0 0.0 0.0
351 1 26.1253528716 30.0235009333 0.0 0.0 0.0 0.0
352 1 31.1978528716 29.7325009333 0.0 0.0 0.0 0.0
353 1 36.5470528716 29.8278009333 0.0 0.0 0.0 0.0
354 1 41.7848528716 29.8149009333 0.0 0.0 0.0 0.0
355 1 46.7288528716 30.0314009333 0.0 0.0 0.0 0.0
356 1 55.3659528716 32.7426009333 0.0 0.0 0.0 0.0
357 1 59.0191528716 30.0706009333 0.0 0.0 0.0 0.0
358 1 64.4887528716 29.2915009333 0.0 0.0 0.0 0.0
359 1 70.1644528716 29.0433009333 0.0 0.0 0.0 0.0
360 1 75.4873528716 28.8430009333 0.0 0.0 0.0 0.0
361 1 3.32935287163 35.3054009333 0.0 0.0 0.0 0.0
362 1 8.45905287163 34.5747009333 0.0 0.0 0.0 0.0
363 1 13.1331528716 33.6713009333 0.0 0.0 0.0 0.0
364 1 18.7469528716 36.4947009333 0.0 0.0 0.0 0.0
365 1 21.7817528716 36.2579009333 0.0 0.0 0.0 0.0
366 1 29.0314528716 34.4710009333 0.0 0.0 0.0 0.0
367 1 33.9169528716 34.7328009333 0.0 0.0 0.0 0.0
368 1 38.8698528716 34.2243009333 0.0 0.0 0.0 0.0
369 1 44.0532528716 34.2854009333 0.0 0.0 0.0 0.0
370 1 49.7479528716 32.8515009333 0.0 0.0 0.0 0.0
371 1 57.8553528716 34.4368009333 0.0 0.0 0.0 0.0
372 1 63.1599528716 33.7937009333 0.0 0.0 0.0 0.0
373 1 68.1735528716 33.7920009333 0.0 0.0 0.0 0.0
374 1 73.2741528716 33.6957009333 0.0 0.0 0.0 0.0
375 1 78.6751528716 31.8768009333 0.0 0.0 0.0 0.0
376 1 0.367763871632 39.3392009333 0.0 0.0 0.0 0.0
377 1 6.03438287163 39.3810009333 0.0 0.0 0.0 0.0
378 1 9.02934287163 39.3685009333 0.0 0.0 0.0 0.0
379 1 16.6169528716 38.6610009333 0.0 0.0 0.0 0.0
380 1 21.5755528716 40.1988009333 0.0 0.0 0.0 0.0
381 1 26.9133528716 38.9249009333 0.0 0.0 0.0 0.0
382 1 32.2825528716 38.8671009333 0.0 0.0 0.0 0.0
383 1 37.8210528716 38.9634009333 0.0 0.0 0.0 0.0
384 1 43.0759528716 37.1064009333 0.0 0.0 0.0 0.0
385 1 48.8812528716 37.9139009333 0.0 0.0 0.0 0.0
386 1 54.9645528716 38.2401009333 0.0 0.0 0.0 0.0
387 1 60.6486528716 38.5513009333 0.0 0.0 0.0 0.0
388 1 65.6148528716 38.4204009333 0.0 0.0 0.0 0.0
389 1 70.0885528716 39.2013009333 0.0 0.0 0.0 0.0
390 1 73.1059528716 39.2137009333 0.0 0.0 0.0 0.0
391 1 2.30031287163 44.1605009333 0.0 0.0 0.0 0.0
392 1 5.27106287163 44.6768009333 0.0 0.0 0.0 0.0
393 1 12.7598528716 43.2210009333 0.0 0.0 0.0 0.0
394 1 18.6271528716 43.8136009333 0.0 0.0 0.0 0.0
395 1 24.4499528716 43.7152009333 0.0 0.0 0.0 0.0
396 1 31.2549528716 44.3649009333 0.0 0.0 0.0 0.0
397 1 35.3753528716 43.5154009333 0.0 0.0 0.0 0.0
398 1 38.3681528716 43.6157009333 0.0 0.0 0.0 0.0
399 1 42.9489528716 42.0899009333 0.0 0.0 0.0 0.0
400 1 51.5087528716 42.3956009333 0.0 0.0 0.0 0.0
401 1 56.6641528716 43.1365009333 0.0 0.0 0.0 0.0
402 1 59.6578528716 43.5644009333 0.0 0.0 0.0 0.0
403 1 66.6569528716 43.5925009333 0.0 0.0 0.0 0.0
404 1 71.5465528716 44.1152009333 0.0 0.0 0.0 0.0
405 1 76.3601528716 43.8324009333 0.0 0.0 0.0 0.0
406 1 78.3798528716 48.5650009333 0.0 0.0 0.0 0.0
407 1 4.72608287163 48.2016009333 0.0 0.0 0.0 0.0
408 1 10.2503528716 47.8782009333 0.0 0.0 0.0 0.0
409 1 15.3593528716 47.8752009333 0.0 0.0 0.0 0.0
410 1 21.0435528716 47.6550009333 0.0 0.0 0.0 0.0
411 1 26.8151528716 47.1944009333 0.0 0.0 0.0 0.0
412 1 32.1647528716 47.2258009333 0.0 0.0 0.0 0.0
413 1 37.1353528716 48.6684009333 0.0 0.0 0.0 0.0
414 1 42.0541528716 47.3546009333 0.0 0.0 0.0 0.0
415 1 48.9312528716 47.6076009333 0.0 0.0 0.0 0.0
416 1 53.4071528716 47.1082009333 0.0 0.0 0.0 0.0
417 1 58.4706528716 48.1129009333 0.0 0.0 0.0 0.0
418 1 63.5344528716 47.7704009333 0.0 0.0 0.0 0.0
419 1 68.5699528716 48.6371009333 0.0 0.0 0.0 0.0
420 1 73.6591528716 48.8610009333 0.0 0.0 0.0 0.0
421 1 2.42809287163 52.8296009333 0.0 0.0 0.0 0.0
422 1 7.74622287163 52.0245009333 0.0 0.0 0.0 0.0
423 1 14.5274528716 53.4798009333 0.0 0.0 0.0 0.0
424 1 18.8168528716 51.7386009333 0.0 0.0 0.0 0.0
425 1 24.3184528716 51.8539009333 0.0 0.0 0.0 0.0
426 1 29.3183528716 51.8041009333 0.0 0.0 0.0 0.0
427 1 33.9135528716 52.3783009333 0.0 0.0 0.0 0.0
428 1 41.2656528716 54.1069009333 0.0 0.0 0.0 0.0
429 1 43.8007528716 52.4902009333 0.0 0.0 0.0 0.0
430 1 49.7231528716 50.5252009333 0.0 0.0 0.0 0.0
431 1 56.8183528716 53.6047009333 0.0 0.0 0.0 0.0
432 1 61.0196528716 52.7367009333 0.0 0.0 0.0 0.0
433 1 65.5406528716 52.7778009333 0.0 0.0 0.0 0.0
434 1 72.4466528716 54.5568009333 0.0 0.0 0.0 0.0
435 1 76.4786528716 53.4122009333 0.0 0.0 0.0 0.0
436 1 0.185270871632 58.0484009333 0.0 0.0 0.0 0.0
437 1 3.14724287163 57.6807009333 0.0 0.0 0.0 0.0
438 1 10.0683528716 56.4071009333 0.0 0.0 0.0 0.0
439 1 16.4330528716 55.7983009333 0.0 0.0 0.0 0.0
440 1 21.3245528716 56.8254009333 0.0 0.0 0.0 0.0
441 1 24.2898528716 57.2109009333 0.0 0.0 0.0 0.0
442 1 30.7871528716 56.7998009333 0.0 0.0 0.0 0.0
443 1 36.2061528716 56.4676009333 0.0 0.0 0.0 0.0
444 1 42.9853528716 56.5452009333 0.0 0.0 0.0 0.0
445 1 48.2506528716 56.2015009333 0.0 0.0 0.0 0.0
446 1 52.2414528716 55.1098009333 0.0 0.0 0.0 0.0
447 1 57.3813528716 56.5637009333 0.0 0.0 0.0 0.0
448 1 62.6260528716 57.4797009333 0.0 0.0 0.0 0.0
449 1 67.8107528716 57.0332009333 0.0 0.0 0.0 0.0
450 1 73.8479528716 57.2350009333 0.0 0.0 0.0 0.0
451 1 78.3904528716 62.8700009333 0.0 0.0 0.0 0.0
452 1 7.24360287163 61.3546009333 0.0 0.0 0.0 0.0
453 1 12.2275528716 60.8250009333 0.0 0.0 0.0 0.0
454 1 15.2272528716 60.9420009333 0.0 0.0 0.0 0.0
455 1 22.3856528716 61.4586009333 0.0 0.0 0.0 0.0
456 1 27.8059528716 61.3623009333 0.0 0.0 0.0 0.0
457 1 33.2417528716 60.6823009333 0.0 0.0 0.0 0.0
458 1 41.2387528716 61.5204009333 0.0 0.0 0.0 0.0
459 1 45.8046528716 61.3315009333 0.0 0.0 0.0 0.0
460 1 48.8005528716 61.6523009333 0.0 0.0 0.0 0.0
461 1 55.6287528716 59.0420009333 0.0 0.0 0.0 0.0
462 1 59.6614528716 62.0910009333 0.0 0.0 0.0 0.0
463 1 65.0311528716 61.5761009333 0.0 0.0 0.0 0.0
464 1 70.3707528716 61.4253009333 0.0 0.0 0.0 0.0
465 1 75.4980528716 62.0424009333 0.0 0.0 0.0 0.0
466 1 77.3170528716 67.1671009333 0.0 0.0 0.0 0.0
467 1 5.94570287163 67.1942009333 0.0 0.0 0.0 0.0
468 1 9.76476287163 65.6415009333 0.0 0.0 0.0 0.0
469 1 14.6590528716 65.3775009333 0.0 0.0 0.0 0.0
470 1 19.3644528716 65.1634009333 0.0 0.0 0.0 0.0
471 1 24.8428528716 66.0342009333 0.0 0.0 0.0 0.0
472 1 32.4925528716 66.1851009333 0.0 0.0 0.0 0.0
473 1 36.9087528716 64.1422009333 0.0 0.0 0.0 0.0
474 1 43.5950528716 63.3557009333 0.0 0.0 0.0 0.0
475 1 47.5028528716 66.6866009333 0.0 0.0 0.0 0.0
476 1 52.3214528716 65.9975009333 0.0 0.0 0.0 0.0
477 1 59.5955528716 67.2965009333 0.0 0.0 0.0 0.0
478 1 64.1403528716 64.4570009333 0.0 0.0 0.0 0.0
479 1 68.6636528716 66.8913009333 0.0 0.0 0.0 0.0
480 1 72.6344528716 66.4488009333 0.0 0.0 0.0 0.0
481 1 2.03029287163 70.3524009333 0.0 0.0 0.0 0.0
482 1 7.32955287163 69.8937009333 0.0 0.0 0.0 0.0
483 1 12.7318528716 69.9383009333 0.0 0.0 0.0 0.0
484 1 18.2322528716 67.9443009333 0.0 0.0 0.0 0.0
485 1 25.0499528716 71.9119009333 0.0 0.0 0.0 0.0
486 1 28.5771528716 69.2469009333 0.0 0.0 0.0 0.0
487 1 34.4969528716 68.4093009333 0.0 0.0 0.0 0.0
488 1 39.4989528716 69.0558009333 0.0 0.0 0.0 0.0
489 1 44.1447528716 70.6518009333 0.0 0.0 0.0 0.0
490 1 51.1442528716 71.8774009333 0.0 0.0 0.0 0.0
491 1 55.2024528716 69.6476009333 0.0 0.0 0.0 0.0
492 1 60.2279528716 70.2384009333 0.0 0.0 0.0 0.0
493 1 62.9579528716 71.4356009333 0.0 0.0 0.0 0.0
494 1 69.9091528716 72.6187009333 0.0 0.0 0.0 0.0
495 1 76.8476528716 72.7234009333 0.0 0.0 0.0 0.0
496 1 78.9744528716 74.8198009333 0.0 0.0 0.0 0.0
497 1 5.09296287163 74.8249009333 0.0 0.0 0.0 0.0
498 1 9.85971287163 74.7295009333 0.0 0.0 0.0 0.0
499 1 15.0950528716 73.8018009333 0.0 0.0 0.0 0.0
500 1 20.4152528716 74.7756009333 0.0 0.0 0.0 0.0
501 1 27.1470528716 74.0725009333 0.0 0.0 0.0 0.0
502 1 32.0559528716 73.5635009333 0.0 0.0 0.0 0.0
503 1 36.4360528716 73.2576009333 0.0 0.0 0.0 0.0
504 1 40.6406528716 74.6609009333 0.0 0.0 0.0 0.0
505 1 46.2134528716 74.6758009333 0.0 0.0 0.0 0.0
506 1 51.9566528716 74.7936009333 0.0 0.0 0.0 0.0
507 1 54.9152528716 75.2666009333 0.0 0.0 0.0 0.0
508 1 60.5253528716 75.6333009333 0.0 0.0 0.0 0.0
509 1 66.0100528716 75.5781009333 0.0 0.0 0.0 0.0
510 1 72.0906528716 74.6818009333 0.0 0.0 0.0 0.0
511 1 4.92958287163 77.8380009333 0.0 0.0 0.0 0.0
512 1 10.2102528716 77.7445009333 0.0 0.0 0.0 0.0
513 1 15.1201528716 76.7823009333 0.0 0.0 0.0 0.0
514 1 20.5454528716 77.7634009333 0.0 0.0 0.0 0.0
515 1 28.0613528716 76.9508009333 0.0 0.0 0.0 0.0
516 1 32.9993528716 76.4287009333 0.0 0.0 0.0 0.0
517 1 36.0033528716 76.2305009333 0.0 0.0 0.0 0.0
518 1 40.1956528716 79.8241009333 0.0 0.0 0.0 0.0
519 1 45.6328528716 77.6248009333 0.0 0.0 0.0 0.0
520 1 51.0847528716 77.6784009333 0.0 0.0 0.0 0.0
521 1 55.9515528716 78.0845009333 0.0 0.0 0.0 0.0
522 1 61.1645528716 78.5755009333 0.0 0.0 0.0 0.0
523 1 66.9238528716 78.4414009333 0.0 0.0 0.0 0.0
524 1 72.4942528716 77.6799009333 0.0 0.0 0.0 0.0
525 1 78.3040528716 77.7426009333 0.0 0.0 0.0 0.0
526 1 2.05650287163 78.8217009333 0.0 0.0 0.0 0.0
527 1 7.60320287163 79.2793009333 0.0 0.0 0.0 0.0
528 1 13.0105528716 78.9106009333 0.0 0.0 0.0 0.0
529 1 17.6149528716 78.4234009333 0.0 0.0 0.0 0.0
530 1 23.0721528716 79.3814009333 0.0 0.0 0.0 0.0
531 1 26.0751528716 79.1995009333 0.0 0.0 0.0 0.0
532 1 30.7182528716 78.3976009333 0.0 0.0 0.0 0.0
533 1 38.8805528716 77.1153009333 0.0 0.0 0.0 0.0
534 1 43.1959528716 79.4160009333 0.0 0.0 0.0 0.0
535 1 48.3480528716 78.9160009333 0.0 0.0 0.0 0.0
536 1 53.3771528716 79.6358009333 0.0 0.0 0.0 0.0
537 1 58.4133528716 79.8150009333 0.0 0.0 0.0 0.0
538 1 64.0669528716 79.4770009333 0.0 0.0 0.0 0.0
539 1 69.8683528716 79.2309009333 0.0 0.0 0.0 0.0
540 1 75.3952528716 78.6290009333 0.0 0.0 0.0 0.0
541 2 2.03958287163 80.3268009333 0.0 0.0 0.0 0.0
542 2 3.38515287163 1.68179093334 0.0 0.0 0.0 0.0
543 2 0.667343871632 1.70429093334 0.0 0.0 0.0 0.0
544 2 7.69355287163 0.00747793334053 0.0 0.0 0.0 0.0
545 2 6.16236287163 1.89871093334 0.0 0.0 0.0 0.0
546 2 8.62305287163 2.66776093334 0.0 0.0 0.0 0.0
547 2 16.3295528716 1.06491093334 0.0 0.0 0.0 0.0
548 2 16.0539528716 3.31948093334 0.0 0.0 0.0 0.0
549 2 18.6181528716 2.74684093334 0.0 0.0 0.0 0.0
550 2 14.1322528716 79.9627009333 0.0 0.0 0.0 0.0
551 2 16.6718528716 79.5897009333 0.0 0.0 0.0 0.0
552 2 22.7139528716 0.0557239333405 0.0 0.0 0.0 0.0
553 2 23.8807528716 2.18283093334 0.0 0.0 0.0 0.0
554 2 21.2373528716 2.32025093334 0.0 0.0 0.0 0.0
555 2 26.5069528716 2.06055093334 0.0 0.0 0.0 0.0
556 2 29.1156528716 0.942000933341 0.0 0.0 0.0 0.0
557 2 26.8501528716 80.4884009333 0.0 0.0 0.0 0.0
558 2 31.7093528716 1.67481093334 0.0 0.0 0.0 0.0
559 2 34.2822528716 2.48120093334 0.0 0.0 0.0 0.0
560 2 32.3112528716 4.20953093334 0.0 0.0 0.0 0.0
561 2 39.4345528716 0.347410933341 0.0 0.0 0.0 0.0
562 2 39.7447528716 2.84325093334 0.0 0.0 0.0 0.0
563 2 37.2294528716 1.95309093334 0.0 0.0 0.0 0.0
564 2 43.9088528716 80.7442009333 0.0 0.0 0.0 0.0
565 2 46.2146528716 1.13943093334 0.0 0.0 0.0 0.0
566 2 44.1655528716 2.60799093334 0.0 0.0 0.0 0.0
567 2 47.7312528716 4.63422093334 0.0 0.0 0.0 0.0
568 2 48.4392528716 2.36301093334 0.0 0.0 0.0 0.0
569 2 50.4794528716 3.87501093334 0.0 0.0 0.0 0.0
570 2 55.5887528716 1.84319093334 0.0 0.0 0.0 0.0
571 2 53.6178528716 0.339130933341 0.0 0.0 0.0 0.0
572 2 53.0351528716 2.86931093334 0.0 0.0 0.0 0.0
573 2 60.4386528716 3.90829093334 0.0 0.0 0.0 0.0
574 2 57.9919528716 2.95751093334 0.0 0.0 0.0 0.0
575 2 58.6111528716 5.58355093334 0.0 0.0 0.0 0.0
576 2 64.0585528716 0.202918933341 0.0 0.0 0.0 0.0
577 2 65.2757528716 2.59064093334 0.0 0.0 0.0 0.0
578 2 62.8631528716 2.61729093334 0.0 0.0 0.0 0.0
579 2 70.1495528716 80.7240009333 0.0 0.0 0.0 0.0
580 2 71.9608528716 1.88521093334 0.0 0.0 0.0 0.0
581 2 69.8098528716 2.72411093334 0.0 0.0 0.0 0.0
582 2 75.5704528716 80.1318009333 0.0 0.0 0.0 0.0
583 2 77.1020528716 1.55803093334 0.0 0.0 0.0 0.0
584 2 74.5463528716 1.70032093334 0.0 0.0 0.0 0.0
585 2 0.608750871632 6.02913093334 0.0 0.0 0.0 0.0
586 2 78.3366528716 3.85376093334 0.0 0.0 0.0 0.0
587 2 77.1172528716 6.23546093334 0.0 0.0 0.0 0.0
588 2 4.63281287163 3.85653093334 0.0 0.0 0.0 0.0
589 2 6.02155287163 5.90038093334 0.0 0.0 0.0 0.0
590 2 3.28679287163 6.04136093334 0.0 0.0 0.0 0.0
591 2 10.7980528716 4.54039093334 0.0 0.0 0.0 0.0
592 2 8.45466287163 5.17339093334 0.0 0.0 0.0 0.0
593 2 15.7511528716 5.67781093334 0.0 0.0 0.0 0.0
594 2 17.6812528716 7.55518093334 0.0 0.0 0.0 0.0
595 2 14.8814528716 7.68860093334 0.0 0.0 0.0 0.0
596 2 20.6102528716 4.65232093334 0.0 0.0 0.0 0.0
597 2 22.8075528716 5.96980093334 0.0 0.0 0.0 0.0
598 2 20.2619528716 7.12680093334 0.0 0.0 0.0 0.0