# input file

1350 atoms
2 atom types

0.0 78.4485514053 xlo xhi
0.0 81.0582284842 ylo yhi
-10.0 10.0 zlo zhi
0.0 0.0 0.0 xy xz yz

Masses

1 28.0855 #Si
2 15.9994 #O

Atoms

1 1 2.5154334795 1.27839424212 0.0
2 1 7.2628434795 4.06505424212 0.0
3 1 12.5984134795 2.08806424212 0.0
4 1 18.2693134795 1.29120424212 0.0
5 1 26.1260134795 0.0706112421163 0.0
6 1 29.2347134795 0.192125242116 0.0
7 1 34.7351134795 0.624054242116 0.0
8 1 39.4236134795 3.16272424212 0.0
9 1 45.1174134795 1.55905424212 0.0
10 1 50.4489134795 1.79567424212 0.0
11 1 55.6565134795 1.32046424212 0.0
12 1 61.3312134795 1.50513424212 0.0
13 1 66.4587134795 1.23963424212 0.0
14 1 71.7780134795 2.27077424212 0.0
15 1 78.0296134795 2.12459424212 0.0
16 1 77.6649134795 7.88564424212 0.0
17 1 6.1126534795 6.87338424212 0.0
18 1 12.2443134795 6.38487424212 0.0
19 1 15.1693134795 5.67420424212 0.0
20 1 20.0271134795 5.32827424212 0.0
21 1 25.8293134795 4.79842424212 0.0
22 1 31.5375134795 4.72560424212 0.0
23 1 38.0337134795 5.88226424212 0.0
24 1 43.3522134795 5.97252424212 0.0
25 1 48.5211134795 5.96688424212 0.0
26 1 55.1316134795 5.33739424212 0.0
27 1 58.1341134795 5.33381424212 0.0
28 1 63.7513134795 5.91589424212 0.0
29 1 68.8831134795 6.04049424212 0.0
30 1 72.3913134795 9.76511424212 0.0
31 1 1.1701234795 10.2543142421 0.0
32 1 7.0512934795 13.8450142421 0.0
33 1 12.6412134795 11.9677142421 0.0
34 1 19.5208134795 9.65491424212 0.0
35 1 21.7997134795 7.72498424212 0.0
36 1 29.0444134795 8.67425424212 0.0
37 1 32.9103134795 7.41220424212 0.0
38 1 39.2285134795 8.63450424212 0.0
39 1 45.6682134795 10.4597142421 0.0
40 1 50.7131134795 10.8516142421 0.0
41 1 55.3257134795 10.5901142421 0.0
42 1 60.6057134795 9.62551424212 0.0
43 1 66.1654134795 10.5419142421 0.0
44 1 71.1743134795 12.5245142421 0.0
45 1 75.9210134795 12.8059142421 0.0
46 1 0.586230479499 16.3708142421 0.0
47 1 5.6085634795 16.4929142421 0.0
48 1 10.9566134795 16.4058142421 0.0
49 1 15.1995134795 13.6127142421 0.0
50 1 23.3343134795 13.6425142421 0.0
51 1 26.3045134795 13.0958142421 0.0
52 1 31.8047134795 13.1713142421 0.0
53 1 37.2337134795 13.7965142421 0.0
54 1 41.9547134795 14.4931142421 0.0
55 1 47.5603134795 15.1584142421 0.0
56 1 52.9914134795 15.5899142421 0.0
57 1 58.8616134795 14.3150142421 0.0
58 1 63.5963134795 16.0855142421 0.0
59 1 66.8898134795 18.2361142421 0.0
60 1 74.2031134795 17.4388142421 0.0
61 1 3.0631234795 21.1894142421 0.0
62 1 8.2993434795 20.7849142421 0.0
63 1 15.7128134795 18.7653142421 0.0
64 1 18.6561134795 19.3332142421 0.0
65 1 25.7683134795 18.0459142421 0.0
66 1 28.7315134795 17.4152142421 0.0
67 1 34.1357134795 17.7922142421 0.0
68 1 39.9948134795 19.0347142421 0.0
69 1 45.0522134795 18.7907142421 0.0
70 1 50.3806134795 19.5795142421 0.0
71 1 54.8867134795 17.9019142421 0.0
72 1 62.0218134795 18.6463142421 0.0
73 1 69.2373134795 20.0541142421 0.0
74 1 72.2542134795 22.6802142421 0.0
75 1 76.8290134795 21.7200142421 0.0
76 1 0.233060479499 26.3204142421 0.0
77 1 7.6069934795 24.8533142421 0.0
78 1 10.6131134795 24.8641142421 0.0
79 1 15.3070134795 23.8704142421 0.0
80 1 19.8316134795 22.0958142421 0.0
81 1 26.8372134795 23.5870142421 0.0
82 1 32.8884134795 21.5340142421 0.0
83 1 35.6728134795 20.3987142421 0.0
84 1 44.4768134795 22.9422142421 0.0
85 1 47.4534134795 23.4516142421 0.0
86 1 51.9093134795 22.1539142421 0.0
87 1 57.0643134795 25.0850142421 0.0
88 1 64.8716134795 23.1287142421 0.0
89 1 67.8310134795 22.7089142421 0.0
90 1 73.8194134795 26.9358142421 0.0
91 1 1.7381734795 28.9108142421 0.0
92 1 8.8289834795 30.3392142421 0.0
93 1 15.3563134795 28.3334142421 0.0
94 1 18.2827134795 27.6174142421 0.0
95 1 23.6169134795 28.0928142421 0.0
96 1 28.8691134795 27.9665142421 0.0
97 1 34.0215134795 27.0442142421 0.0
98 1 39.3584134795 27.2802142421 0.0
99 1 44.4822134795 27.9386142421 0.0
100 1 51.8932134795 27.1792142421 0.0
101 1 54.9273134795 27.2341142421 0.0
102 1 59.5357134795 28.8740142421 0.0
103 1 64.2702134795 28.0525142421 0.0
104 1 69.3668134795 27.6247142421 0.0
105 1 75.9520134795 31.3575142421 0.0
106 1 0.646243479499 34.6351142421 0.0
107 1 5.6900634795 34.7704142421 0.0
108 1 11.0453134795 35.1987142421 0.0
109 1 15.3370134795 33.5402142421 0.0
110 1 20.8430134795 32.2109142421 0.0
111 1 26.7539134795 32.4403142421 0.0
112 1 32.0011134795 31.9250142421 0.0
113 1 36.9255134795 31.5536142421 0.0
114 1 41.9377134795 32.1708142421 0.0
115 1 46.9316134795 32.4646142421 0.0
116 1 51.7192134795 32.3238142421 0.0
117 1 57.0176134795 32.7024142421 0.0
118 1 62.6354134795 33.1729142421 0.0
119 1 67.6620134795 32.3068142421 0.0
120 1 71.6867134795 34.9546142421 0.0
121 1 4.6117534795 38.8736142421 0.0
122 1 7.1629734795 37.3532142421 0.0
123 1 13.7823134795 39.1553142421 0.0
124 1 18.4818134795 36.7441142421 0.0
125 1 22.3713134795 34.7915142421 0.0
126 1 29.3068134795 36.5690142421 0.0
127 1 34.4121134795 36.4247142421 0.0
128 1 39.3995134795 36.4733142421 0.0
129 1 44.5534134795 36.9871142421 0.0
130 1 49.6188134795 37.2167142421 0.0
131 1 54.8703134795 36.9575142421 0.0
132 1 60.3303134795 36.9886142421 0.0
133 1 65.4221134795 37.3637142421 0.0
134 1 70.5023134795 37.7755142421 0.0
135 1 77.1203134795 39.2676142421 0.0
136 1 0.409738479499 44.0597142421 0.0
137 1 5.5028134795 44.3605142421 0.0
138 1 10.7004134795 43.7532142421 0.0
139 1 18.6301134795 41.4909142421 0.0
140 1 21.4845134795 40.6004142421 0.0
141 1 26.0769134795 40.7656142421 0.0
142 1 31.2998134795 40.9932142421 0.0
143 1 36.6945134795 41.1014142421 0.0
144 1 41.4330134795 41.2273142421 0.0
145 1 46.6866134795 41.7277142421 0.0
146 1 52.2010134795 41.5777142421 0.0
147 1 59.3518134795 40.7439142421 0.0
148 1 62.1960134795 41.7774142421 0.0
149 1 67.5421134795 42.2318142421 0.0
150 1 71.9980134795 40.3992142421 0.0
151 1 2.0036434795 48.6587142421 0.0
152 1 7.7484034795 48.5739142421 0.0
153 1 15.0136134795 47.0553142421 0.0
154 1 17.9060134795 46.3281142421 0.0
155 1 23.2555134795 45.5860142421 0.0
156 1 28.1602134795 45.3161142421 0.0
157 1 33.5412134795 45.2900142421 0.0
158 1 39.1954134795 46.0073142421 0.0
159 1 44.3050134795 45.8609142421 0.0
160 1 47.9262134795 44.4755142421 0.0
161 1 54.5100134795 46.0025142421 0.0
162 1 59.1669134795 45.8939142421 0.0
163 1 63.2772134795 44.6572142421 0.0
164 1 70.4791134795 45.9907142421 0.0
165 1 75.3407134795 47.0569142421 0.0
166 1 77.1357134795 52.1260142421 0.0
167 1 3.3030234795 51.3575142421 0.0
168 1 9.9602134795 52.9408142421 0.0
169 1 14.9604134795 52.0065142421 0.0
170 1 20.9455134795 50.2636142421 0.0
171 1 26.1991134795 50.1567142421 0.0
172 1 32.2565134795 49.2347142421 0.0
173 1 34.9309134795 47.9275142421 0.0
174 1 42.0609134795 50.4558142421 0.0
175 1 47.2324134795 50.3408142421 0.0
176 1 52.3532134795 50.1383142421 0.0
177 1 57.6921134795 50.6618142421 0.0
178 1 61.2855134795 53.1381142421 0.0
179 1 68.7302134795 50.5470142421 0.0
180 1 71.7364134795 51.0410142421 0.0
181 1 1.9395234795 56.5787142421 0.0
182 1 7.3229134795 57.1781142421 0.0
183 1 14.7134134795 56.2202142421 0.0
184 1 16.9535134795 54.2289142421 0.0
185 1 23.1475134795 57.2442142421 0.0
186 1 28.2434134795 55.1545142421 0.0
187 1 33.3071134795 54.4190142421 0.0
188 1 38.6952134795 54.2936142421 0.0
189 1 43.9132134795 54.8704142421 0.0
190 1 51.1757134795 54.5501142421 0.0
191 1 54.1876134795 54.7176142421 0.0
192 1 59.0107134795 55.2363142421 0.0
193 1 63.7898134795 56.5863142421 0.0
194 1 69.1752134795 55.7217142421 0.0
195 1 74.8260134795 55.7898142421 0.0
196 1 77.5364134795 60.3574142421 0.0
197 1 4.3845834795 61.3120142421 0.0
198 1 10.1591134795 61.8678142421 0.0
199 1 15.2894134795 60.5131142421 0.0
200 1 21.2731134795 59.6104142421 0.0
201 1 28.3935134795 59.3540142421 0.0
202 1 31.4031134795 59.3142142421 0.0
203 1 36.2461134795 58.6871142421 0.0
204 1 40.2127134795 61.3761142421 0.0
205 1 45.5320134795 58.9810142421 0.0
206 1 50.7295134795 59.8685142421 0.0
207 1 55.4489134795 59.7688142421 0.0
208 1 60.5582134795 60.4842142421 0.0
209 1 65.3510134795 59.1319142421 0.0
210 1 72.5690134795 59.8139142421 0.0
211 1 1.4929934795 65.1850142421 0.0
212 1 5.8305634795 63.9926142421 0.0
213 1 13.0138134795 65.5661142421 0.0
214 1 18.1727134795 63.5057142421 0.0
215 1 23.4520134795 64.1838142421 0.0
216 1 28.6023134795 64.2871142421 0.0
217 1 34.0270134795 63.8288142421 0.0
218 1 39.2367134795 64.2327142421 0.0
219 1 45.5181134795 62.6143142421 0.0
220 1 47.8108134795 66.3427142421 0.0
221 1 53.0809134795 64.8901142421 0.0
222 1 58.1696134795 64.6514142421 0.0
223 1 63.9597134795 64.3467142421 0.0
224 1 69.7067134795 64.1626142421 0.0
225 1 74.6967134795 64.7678142421 0.0
226 1 77.2530134795 69.4503142421 0.0
227 1 4.4220534795 69.5717142421 0.0
228 1 10.7051134795 70.1776142421 0.0
229 1 17.5810134795 68.1229142421 0.0
230 1 20.5604134795 68.1773142421 0.0
231 1 25.3342134795 68.6680142421 0.0
232 1 31.0401134795 68.3921142421 0.0
233 1 36.4404134795 68.6248142421 0.0
234 1 41.6958134795 68.6500142421 0.0
235 1 46.9301134795 69.1877142421 0.0
236 1 49.2542134795 72.8709142421 0.0
237 1 56.8222134795 69.2969142421 0.0
238 1 61.7324134795 68.2927142421 0.0
239 1 67.3087134795 68.1209142421 0.0
240 1 72.0811134795 69.1650142421 0.0
241 1 1.7130534795 73.6271142421 0.0
242 1 6.1799234795 72.0630142421 0.0
243 1 14.7454134795 74.0110142421 0.0
244 1 17.7136134795 73.6251142421 0.0
245 1 22.4104134795 73.1858142421 0.0
246 1 27.7487134795 72.3701142421 0.0
247 1 32.1756134795 71.1933142421 0.0
248 1 39.2390134795 73.0654142421 0.0
249 1 44.3044134795 73.3186142421 0.0
250 1 52.2540134795 73.0554142421 0.0
251 1 56.1274134795 74.3812142421 0.0
252 1 61.9680134795 72.4565142421 0.0
253 1 64.9984134795 72.2624142421 0.0
254 1 69.8253134795 75.4411142421 0.0
255 1 74.8775134795 73.8687142421 0.0
256 1 76.8029134795 4.93272424212 0.0
257 1 5.5478534795 1.55557424212 0.0
258 1 10.3092134795 4.06806424212 0.0
259 1 15.5682134795 2.69319424212 0.0
260 1 21.0524134795 2.50294424212 0.0
261 1 24.0984134795 2.32524424212 0.0
262 1 31.8848134795 1.73342424212 0.0
263 1 37.7911134795 0.595384242116 0.0
264 1 42.4743134795 3.08507424212 0.0
265 1 47.7289134795 3.07599424212 0.0
266 1 53.2021134795 3.03444424212 0.0
267 1 58.4657134795 2.37008424212 0.0
268 1 63.9728134795 2.92393424212 0.0
269 1 68.8717134795 3.04347424212 0.0
270 1 73.7795134795 4.55137424212 0.0
271 1 3.9420834795 9.00261424212 0.0
272 1 8.3422534795 8.90043424212 0.0
273 1 11.3383134795 9.24769424212 0.0
274 1 17.7190134795 7.25200424212 0.0
275 1 24.7762134795 7.61008424212 0.0
276 1 28.6997134795 5.68433424212 0.0
277 1 35.8445134795 7.96808424212 0.0
278 1 42.1867134795 8.74082424212 0.0
279 1 45.9415134795 7.46882424212 0.0
280 1 50.8417134795 7.86193424212 0.0
281 1 53.8253134795 8.00749424212 0.0
282 1 60.8318134795 6.64956424212 0.0
283 1 66.2845134795 7.54451424212 0.0
284 1 71.7844134795 6.82261424212 0.0
285 1 75.3878134795 9.85011424212 0.0
286 1 0.439452479499 13.2757142421 0.0
287 1 6.1915934795 10.9825142421 0.0
288 1 10.0629134795 13.5508142421 0.0
289 1 18.1615134795 14.3263142421 0.0
290 1 20.5362134795 12.4809142421 0.0
291 1 26.4271134795 10.1041142421 0.0
292 1 31.6505134795 10.1488142421 0.0
293 1 37.0973134795 10.7377142421 0.0
294 1 42.9254134795 11.6451142421 0.0
295 1 48.0701134795 12.2218142421 0.0
296 1 53.1359134795 12.6095142421 0.0
297 1 58.1932134795 11.4027142421 0.0
298 1 63.2128134795 11.0909142421 0.0
299 1 68.1710134795 12.7834142421 0.0
300 1 73.4443134795 14.5159142421 0.0
301 1 3.0569134795 18.1330142421 0.0
302 1 8.3068934795 17.8066142421 0.0
303 1 13.9530134795 16.3435142421 0.0
304 1 20.0634134795 16.6879142421 0.0
305 1 23.0877134795 16.6309142421 0.0
306 1 29.0354134795 14.4137142421 0.0
307 1 34.3761134795 14.7828142421 0.0
308 1 39.3487134795 16.0234142421 0.0
309 1 44.6424134795 15.8350142421 0.0
310 1 50.1848134795 16.6016142421 0.0
311 1 57.7680134795 17.1092142421 0.0
312 1 61.7939134795 13.7227142421 0.0
313 1 66.4932134795 15.2808142421 0.0
314 1 72.1995134795 19.6803142421 0.0
315 1 76.9733134795 18.6456142421 0.0
316 1 0.916943479499 23.3416142421 0.0
317 1 5.8074834795 22.4473142421 0.0
318 1 11.0735134795 21.9090142421 0.0
319 1 13.9741134795 21.1943142421 0.0
320 1 22.7813134795 22.5941142421 0.0
321 1 25.3192134795 21.0093142421 0.0
322 1 31.3491134795 18.9478142421 0.0
323 1 38.4473134795 21.6421142421 0.0
324 1 42.6342134795 20.5341142421 0.0
325 1 47.5390134795 20.4592142421 0.0
326 1 54.6193134795 20.8887142421 0.0
327 1 59.2266134795 19.7317142421 0.0
328 1 64.5809134795 20.1588142421 0.0
329 1 70.0356134795 24.7040142421 0.0
330 1 74.8838134795 24.0739142421 0.0
331 1 4.6828334795 29.3199142421 0.0
332 1 7.2500634795 27.8101142421 0.0
333 1 13.3323134795 26.1216142421 0.0
334 1 18.2078134795 24.6165142421 0.0
335 1 24.2921134795 25.1738142421 0.0
336 1 29.4583134795 25.0293142421 0.0
337 1 32.4159134795 24.4990142421 0.0
338 1 39.9553134795 24.3260142421 0.0
339 1 42.8040134795 25.4043142421 0.0
340 1 50.2321134795 24.6519142421 0.0
341 1 57.3592134795 22.0930142421 0.0
342 1 59.9513134795 25.9125142421 0.0
343 1 62.9040134795 25.3850142421 0.0
344 1 71.8578134795 29.2758142421 0.0
345 1 76.4308134795 28.3636142421 0.0
346 1 0.481918479499 31.6468142421 0.0
347 1 6.2529034795 31.8472142421 0.0
348 1 11.1630134795 32.1953142421 0.0
349 1 13.8796134795 30.9382142421 0.0
350 1 20.8330134795 29.2122142421 0.0
351 1 26.2750134795 29.4836142421 0.0
352 1 31.7019134795 28.9494142421 0.0
353 1 36.6347134795 28.5506142421 0.0
354 1 41.7345134795 29.1708142421 0.0
355 1 47.1484134795 29.4573142421 0.0
356 1 50.1961134795 29.6794142421 0.0
357 1 56.6573134795 29.7105142421 0.0
358 1 62.2068134795 30.2156142421 0.0
359 1 66.9481134795 29.3876142421 0.0
360 1 74.5730134795 34.0661142421 0.0
361 1 3.1229634795 36.2923142421 0.0
362 1 10.0479134795 38.0336142421 0.0
363 1 13.8709134795 36.1487142421 0.0
364 1 18.2966134795 33.7611142421 0.0
365 1 25.3324134795 35.0752142421 0.0
366 1 29.5131134795 33.5801142421 0.0
367 1 34.5849134795 33.4273142421 0.0
368 1 39.2412134795 33.4714142421 0.0
369 1 44.3426134795 33.9807142421 0.0
370 1 49.3825134795 34.2142142421 0.0
371 1 54.2822134795 33.9765142421 0.0
372 1 59.7478134795 34.0382142421 0.0
373 1 65.4205134795 34.3429142421 0.0
374 1 70.6805134795 32.0958142421 0.0
375 1 76.6005134795 36.2938142421 0.0
376 1 1.0376234795 41.1350142421 0.0
377 1 3.9768734795 41.7742142421 0.0
378 1 11.2577134795 40.7818142421 0.0
379 1 16.7571134795 39.1739142421 0.0
380 1 21.3396134795 37.6068142421 0.0
381 1 26.5772134795 37.8020142421 0.0
382 1 31.8952134795 38.0566142421 0.0
383 1 36.8892134795 38.1087142421 0.0
384 1 41.8238134795 38.2458142421 0.0
385 1 47.0158134795 38.7302142421 0.0
386 1 52.3110134795 38.5671142421 0.0
387 1 57.6167134795 38.2737142421 0.0
388 1 62.7713134795 38.8034142421 0.0
389 1 67.8155134795 39.1988142421 0.0
390 1 74.8722134795 41.2624142421 0.0
391 1 2.8673834795 45.7960142421 0.0
392 1 8.2591834795 45.5776142421 0.0
393 1 13.6545134795 44.3905142421 0.0
394 1 16.5673134795 43.6493142421 0.0
395 1 23.7033134795 42.6069142421 0.0
396 1 28.6196134795 42.3502142421 0.0
397 1 33.9717134795 42.3391142421 0.0
398 1 39.0115134795 43.0026142421 0.0
399 1 43.9299134795 42.8810142421 0.0
400 1 50.8939134795 44.2973142421 0.0
401 1 54.8045134795 43.0289142421 0.0
402 1 57.7722134795 43.2551142421 0.0
403 1 66.2796134795 45.0037142421 0.0
404 1 70.4448134795 42.9797142421 0.0
405 1 75.8634134795 44.1050142421 0.0
406 1 77.4988134795 49.1434142421 0.0
407 1 6.2979334795 51.2531142421 0.0
408 1 10.3863134795 49.9760142421 0.0
409 1 13.3388134795 49.5104142421 0.0
410 1 20.7568134795 47.2648142421 0.0
411 1 25.8065134795 47.1741142421 0.0
412 1 30.8555134795 46.6042142421 0.0
413 1 37.8123134795 48.6711142421 0.0
414 1 41.8022134795 47.4723142421 0.0
415 1 46.9216134795 47.3211142421 0.0
416 1 51.7813134795 47.1783142421 0.0
417 1 56.8796134795 47.7990142421 0.0
418 1 61.7916134795 47.3205142421 0.0
419 1 67.9249134795 47.5807142421 0.0
420 1 72.5577134795 48.1498142421 0.0
421 1 1.3214934795 53.6188142421 0.0
422 1 7.2325834795 54.1431142421 0.0
423 1 12.7388134795 53.9940142421 0.0
424 1 19.6715134795 52.9778142421 0.0
425 1 23.6008134795 51.6527142421 0.0
426 1 28.4289134795 52.1678142421 0.0
427 1 31.4269134795 52.0915142421 0.0
428 1 39.1972134795 51.3356142421 0.0
429 1 44.6652134795 51.9458142421 0.0
430 1 49.8686134795 51.8288142421 0.0
431 1 54.8957134795 51.7908142421 0.0
432 1 60.6800134795 50.1729142421 0.0
433 1 64.3063134795 53.6385142421 0.0
434 1 67.3408134795 53.2589142421 0.0
435 1 74.2034134795 52.8346142421 0.0
436 1 77.4523134795 57.3420142421 0.0
437 1 4.4884734795 58.2738142421 0.0
438 1 9.8854134795 58.8580142421 0.0
439 1 12.9277134795 58.6250142421 0.0
440 1 22.3259134795 54.3597142421 0.0
441 1 26.1727134795 57.3143142421 0.0
442 1 31.0160134795 56.3417142421 0.0
443 1 36.0254134795 55.6854142421 0.0
444 1 41.1092134795 56.0971142421 0.0
445 1 46.6211134795 56.2125142421 0.0
446 1 49.5342134795 57.0654142421 0.0
447 1 56.3639134795 56.8191142421 0.0
448 1 60.9439134795 57.5162142421 0.0
449 1 68.2915134795 58.6115142421 0.0
450 1 72.0023134795 56.8463142421 0.0
451 1 1.4999534795 62.1696142421 0.0
452 1 8.7958734795 64.5730142421 0.0
453 1 13.0862134795 62.5653142421 0.0
454 1 18.3414134795 60.5050142421 0.0
455 1 23.8350134795 61.2328142421 0.0
456 1 26.7969134795 61.8656142421 0.0
457 1 34.0463134795 60.7880142421 0.0
458 1 39.2692134795 58.5239142421 0.0
459 1 43.1566134795 60.7859142421 0.0
460 1 47.8949134795 60.8363142421 0.0
461 1 53.1172134795 61.7715142421 0.0
462 1 57.7968134795 61.6638142421 0.0
463 1 63.4110134795 61.4108142421 0.0
464 1 69.8969134795 61.1570142421 0.0
465 1 74.8746134795 61.7545142421 0.0
466 1 77.2067134795 66.4408142421 0.0
467 1 4.1912934795 66.5395142421 0.0
468 1 10.4406134795 67.1363142421 0.0
469 1 16.0073134795 65.5826142421 0.0
470 1 20.6497134795 65.1929142421 0.0
471 1 25.9943134795 65.7600142421 0.0
472 1 31.4238134795 65.3892142421 0.0
473 1 36.5079134795 65.5795142421 0.0
474 1 41.9008134795 65.6693142421 0.0
475 1 44.9173134795 65.5135142421 0.0
476 1 50.7735134795 66.9414142421 0.0
477 1 55.7288134795 66.4403142421 0.0
478 1 61.1139134795 65.3646142421 0.0
479 1 66.8693134795 65.1583142421 0.0
480 1 72.0065134795 66.1355142421 0.0
481 1 1.5891034795 70.6216142421 0.0
482 1 9.1289634795 72.7842142421 0.0
483 1 13.5150134795 71.2783142421 0.0
484 1 16.4841134795 70.8856142421 0.0
485 1 22.7572134795 70.2070142421 0.0
486 1 28.2239134795 69.4240142421 0.0
487 1 35.1674134795 71.3814142421 0.0
488 1 39.0696134795 70.0679142421 0.0
489 1 44.1692134795 70.3333142421 0.0
490 1 49.8303134795 69.8678142421 0.0
491 1 54.9136134795 71.6365142421 0.0
492 1 59.6574134795 70.4549142421 0.0
493 1 64.5640134795 69.2995142421 0.0
494 1 69.3149134795 70.3615142421 0.0
495 1 74.5849134795 70.8638142421 0.0
496 1 77.5891134795 75.1870142421 0.0
497 1 4.5569734795 74.6156142421 0.0
498 1 10.2255134795 75.6565142421 0.0
499 1 13.1317134795 76.5022142421 0.0
500 1 20.2473134795 75.2718142421 0.0
501 1 25.2743134795 74.0517142421 0.0
502 1 30.4404134795 73.6638142421 0.0
503 1 36.4442134795 74.1376142421 0.0
504 1 41.6904134795 74.7903142421 0.0
505 1 46.8775134795 74.8564142421 0.0
506 1 53.4761134795 75.7778142421 0.0
507 1 58.7788134795 75.7685142421 0.0
508 1 61.7608134795 75.4432142421 0.0
509 1 67.9391134795 73.0519142421 0.0
510 1 72.7979134795 76.0448142421 0.0
511 1 4.9726834795 77.6129142421 0.0
512 1 9.6899134795 78.6405142421 0.0
513 1 15.0535134795 78.8329142421 0.0
514 1 20.9651134795 78.2202142421 0.0
515 1 26.2414134795 76.8825142421 0.0
516 1 31.0369134795 78.8212142421 0.0
517 1 36.6447134795 77.1670142421 0.0
518 1 42.0231134795 77.7714142421 0.0
519 1 46.6202134795 79.9761142421 0.0
520 1 52.3476134795 78.5523142421 0.0
521 1 58.1528134795 78.6874142421 0.0
522 1 63.5054134795 77.8937142421 0.0
523 1 69.0409134795 78.3510142421 0.0
524 1 73.9185134795 78.8686142421 0.0
525 1 78.1996134795 78.1358142421 0.0
526 1 2.5013134795 79.3232142421 0.0
527 1 6.9371134795 79.9027142421 0.0
528 1 12.3274134795 80.1597142421 0.0
529 1 18.0918134795 79.3402142421 0.0
530 1 23.9999134795 78.9187142421 0.0
531 1 29.2377134795 76.4256142421 0.0
532 1 34.0637134795 78.7536142421 0.0
533 1 39.1550134795 78.9128142421 0.0
534 1 45.0857134795 77.3733142421 0.0
535 1 49.6636134795 79.9537142421 0.0
536 1 55.2338134795 79.4309142421 0.0
537 1 61.0248134795 79.5935142421 0.0
538 1 66.1843134795 79.2951142421 0.0
539 1 71.3118134795 80.3491142421 0.0
540 1 76.4350134795 80.5707142421 0.0
541 2 2.5049334795 80.8256142421 0.0
542 2 4.0211134795 1.56509424212 0.0
543 2 1.0878434795 1.82749424212 0.0
544 2 6.3961834795 2.81858424212 0.0
545 2 8.7926734795 4.02706424212 0.0
546 2 6.5907234795 5.42989424212 0.0
547 2 12.3684134795 0.602644242116 0.0
548 2 14.0929134795 2.33804424212 0.0
549 2 11.4005134795 3.00856424212 0.0
550 2 18.1779134795 80.8482142421 0.0
551 2 16.9190134795 2.00144424212 0.0
552 2 19.6960134795 1.81237424212 0.0
553 2 25.1336134795 1.22615424212 0.0
554 2 25.0439134795 80.0439142421 0.0
555 2 27.6817134795 0.158423242116 0.0
556 2 30.0949134795 79.9983142421 0.0
557 2 30.5073134795 1.07277424212 0.0
558 2 34.4241134795 80.2106142421 0.0
559 2 36.2638134795 0.724874242116 0.0
560 2 33.3399134795 1.25667424212 0.0
561 2 38.6103134795 1.88192424212 0.0
562 2 40.9506134795 3.04827424212 0.0
563 2 38.6833134795 4.50807424212 0.0
564 2 45.7792134795 0.187452242116 0.0
565 2 46.3865134795 2.40243424212 0.0
566 2 43.7344134795 2.20790424212 0.0
567 2 50.1360134795 0.327442242116 0.0
568 2 51.8019134795 2.47699424212 0.0
569 2 49.0939134795 2.43862424212 0.0
570 2 55.4224134795 80.9137142421 0.0
571 2 54.3949134795 2.11594424212 0.0
572 2 57.0836134795 1.78639424212 0.0
573 2 61.2451134795 0.0139242421163 0.0
574 2 62.6363134795 2.23104424212 0.0
575 2 59.8984134795 1.95043424212 0.0
576 2 66.2968134795 80.8034142421 0.0
577 2 67.7000134795 2.09792424212 0.0
578 2 65.2119134795 2.08453424212 0.0
579 2 71.5862134795 0.771524242116 0.0
580 2 70.3223134795 2.66978424212 0.0
581 2 72.8740134795 3.31683424212 0.0
582 2 77.4765134795 3.55271424212 0.0
583 2 77.1409134795 0.866334242116 0.0
584 2 0.252548479499 9.01529424212 0.0
585 2 77.3441134795 6.37638424212 0.0
586 2 76.4482134795 8.79207424212 0.0
587 2 7.3305734795 7.77720424212 0.0
588 2 4.8627834795 7.76629424212 0.0
589 2 11.8591134795 7.83698424212 0.0
590 2 11.2032134795 5.29665424212 0.0
591 2 13.7187134795 6.06809424212 0.0
592 2 15.4549134795 4.19914424212 0.0
593 2 16.3685134795 6.58867424212 0.0
594 2 20.5422134795 3.92624424212 0.0
595 2 21.0428134795 6.43494424212 0.0
596 2 18.7757134795 6.16821424212 0.0
597 2 24.9480134795 3.58526424212 0.0
598 2 27.3177134795 5.09273424212 0.0
599 2 25.2732134795 6.19885424212 0.0
600 2 31.7887134795 3.24785424212 0.0
601 2 32.2966134795 6.03449424212 0.0
602 2 30.0773134795 5.09905424212 0.0
603 2 38.7684134795 7.20406424212 0.0
604 2 36.7813134795 6.76909424212 0.0
605 2 42.9098134795 4.54159424212 0.0
606 2 44.7236134795 6.60066424212 0.0
607 2 42.7068134795 7.33852424212 0.0
608 2 48.1268134795 4.52797424212 0.0
609 2 49.7489134795 6.83765424212 0.0
610 2 47.2567134795 6.77067424212 0.0
611 2 54.5145134795 6.69358424212 0.0
612 2 54.0779134795 4.26460424212 0.0
613 2 56.6326134795 5.41739424212 0.0
614 2 58.3481134795 3.85546424212 0.0
615 2 59.4686134795 6.01924424212 0.0
616 2 63.9110134795 4.42024424212 0.0
617 2 64.9945134795 6.76386424212 0.0
618 2 62.2863134795 6.27010424212 0.0
619 2 68.7807134795 4.54314424212 0.0
620 2 70.3171134795 6.48261424212 0.0
621 2 67.6037134795 6.82577424212 0.0
622 2 72.0164134795 8.30893424212 0.0
623 2 73.8934134795 9.76011424212 0.0
624 2 71.7107134795 11.1093142421 0.0
625 2 2.5537034795 9.59691424212 0.0
626 2 0.919783479499 11.7872142421 0.0
627 2 6.4920734795 12.4472142421 0.0
628 2 8.5543834795 13.6560142421 0.0
629 2 6.1994334795 15.0893142421 0.0
630 2 12.1079134795 10.5425142421 0.0
631 2 14.0050134795 12.6517142421 0.0
632 2 11.3217134795 12.7178142421 0.0
633 2 19.9877134795 11.0769142421 0.0
634 2 18.4204134795 8.60155424212 0.0
635 2 20.7581134795 8.79508424212 0.0
636 2 23.2854134795 7.72592424212 0.0
637 2 27.7711134795 9.44991424212 0.0
638 2 30.2958134795 9.48661424212 0.0
639 2 28.8744134795 7.18320424212 0.0
640 2 34.3915134795 7.62689424212 0.0
641 2 32.3591134795 8.81580424212 0.0
642 2 40.7003134795 8.71756424212 0.0
643 2 38.3030134795 9.81631424212 0.0
644 2 45.7961134795 8.96372424212 0.0
645 2 46.8809134795 11.3239142421 0.0
646 2 44.3631134795 11.1842142421 0.0
647 2 50.6882134795 9.35891424212 0.0
648 2 51.9066134795 11.7523142421 0.0
649 2 49.3993134795 11.5579142421 0.0
650 2 56.7738134795 10.9350142421 0.0
651 2 54.6224134795 9.27123424212 0.0
652 2 54.3084134795 11.6872142421 0.0
653 2 60.6697134795 8.13889424212 0.0
654 2 61.9612134795 10.2612142421 0.0
655 2 59.3723134795 10.4798142421 0.0
656 2 64.6860134795 10.8430142421 0.0
657 2 67.2134134795 11.6159142421 0.0
658 2 66.2913134795 9.04525424212 0.0
659 2 72.2266134795 13.6140142421 0.0
660 2 69.6713134795 12.6832142421 0.0
661 2 75.6945134795 11.3222142421 0.0
662 2 74.7132134795 13.6989142421 0.0
663 2 77.3860134795 13.1185142421 0.0
664 2 0.609543479499 14.8278142421 0.0
665 2 1.8505034795 17.2225142421 0.0
666 2 77.9854134795 17.5019142421 0.0
667 2 6.9433234795 17.1953142421 0.0
668 2 4.3310034795 17.2922142421 0.0
669 2 10.5322134795 14.9739142421 0.0
670 2 12.4558134795 16.4933142421 0.0
671 2 9.6746134795 17.1863142421 0.0
672 2 16.7035134795 13.8839142421 0.0
673 2 14.5787134795 14.9860142421 0.0
674 2 21.9684134795 12.9771142421 0.0
675 2 23.2385134795 15.1381142421 0.0
676 2 24.8185134795 13.3637142421 0.0
677 2 27.6575134795 13.7676142421 0.0
678 2 26.3511134795 11.5891142421 0.0
679 2 31.8066134795 11.6495142421 0.0
680 2 33.1012134795 13.9579142421 0.0
681 2 30.4193134795 13.7947142421 0.0
682 2 37.1899134795 12.2556142421 0.0
683 2 38.2643134795 14.9322142421 0.0
684 2 35.7938134795 14.2690142421 0.0
685 2 42.3394134795 13.0256142421 0.0
686 2 43.2984134795 15.1845142421 0.0
687 2 40.6594134795 15.2467142421 0.0
688 2 47.8407134795 13.6892142421 0.0
689 2 48.8479134795 15.9298142421 0.0
690 2 46.0948134795 15.4434142421 0.0
691 2 53.1422134795 14.1022142421 0.0
692 2 53.9439134795 16.7402142421 0.0
693 2 51.5606134795 16.0211142421 0.0
694 2 58.3950134795 12.8875142421 0.0
695 2 60.3403134795 14.0587142421 0.0
696 2 58.2865134795 15.6975142421 0.0
697 2 62.6913134795 14.9046142421 0.0
698 2 65.0219134795 15.6150142421 0.0
699 2 62.7579134795 17.3318142421 0.0
700 2 68.1419134795 19.0421142421 0.0
701 2 66.8507134795 16.7466142421 0.0
702 2 65.7179134795 19.1797142421 0.0
703 2 73.7633134795 15.9933142421 0.0
704 2 73.1667134795 18.5423142421 0.0
705 2 75.5903134795 18.0186142421 0.0
706 2 3.0238334795 19.6621142421 0.0
707 2 4.4332334795 21.8514142421 0.0
708 2 2.0300434795 22.3038142421 0.0
709 2 8.2897034795 19.2969142421 0.0
710 2 9.7041134795 21.3073142421 0.0
711 2 7.0240234795 21.5570142421 0.0
712 2 14.8166134795 19.9682142421 0.0
713 2 14.8768134795 17.5240142421 0.0
714 2 17.1795134795 19.0482142421 0.0
715 2 19.4122134795 18.0436142421 0.0
716 2 19.2416134795 20.7156142421 0.0
717 2 25.5632134795 19.5401142421 0.0
718 2 24.4216134795 17.3516142421 0.0
719 2 27.2486134795 17.7343142421 0.0
720 2 28.9202134795 15.9185142421 0.0
721 2 29.9990134795 18.2581142421 0.0
722 2 34.2981134795 16.2925142421 0.0
723 2 35.0898134795 18.9779142421 0.0
724 2 32.6908134795 18.2456142421 0.0
725 2 39.5992134795 17.5472142421 0.0
726 2 41.3363134795 19.7670142421 0.0
727 2 39.1782134795 20.3158142421 0.0
728 2 44.8200134795 17.3225142421 0.0
729 2 46.3206134795 19.5900142421 0.0
730 2 43.8067134795 19.5991142421 0.0
731 2 50.3570134795 18.0887142421 0.0
732 2 51.1823134795 20.8342142421 0.0
733 2 48.9338134795 19.9578142421 0.0
734 2 56.3114134795 17.4433142421 0.0
735 2 54.6667134795 19.3824142421 0.0
736 2 63.2389134795 19.5160142421 0.0
737 2 60.6593134795 19.2650142421 0.0
738 2 70.6913134795 19.7250142421 0.0
739 2 68.5452134795 21.3880142421 0.0
740 2 72.3117134795 21.1833142421 0.0
741 2 73.5788134795 23.3433142421 0.0
742 2 71.1797134795 23.7347142421 0.0
743 2 76.9122134795 20.1863142421 0.0
744 2 78.1227134795 22.4983142421 0.0
745 2 75.8706134795 22.9135142421 0.0
746 2 1.1277834795 27.5486142421 0.0
747 2 0.619263479499 24.8500142421 0.0
748 2 77.4983134795 27.2827142421 0.0
749 2 7.3636834795 26.3324142421 0.0
750 2 6.5933534795 23.7477142421 0.0
751 2 9.1151734795 24.8939142421 0.0
752 2 11.8930134795 25.6697142421 0.0
753 2 10.9111134795 23.3949142421 0.0
754 2 14.7056134795 22.5025142421 0.0
755 2 16.7599134795 24.2158142421 0.0
756 2 14.3018134795 24.9747142421 0.0
757 2 21.3171134795 22.3033142421 0.0
758 2 19.0615134795 23.3840142421 0.0
759 2 26.2574134795 22.1951142421 0.0
760 2 28.2076134795 24.1920142421 0.0
761 2 25.6457134795 24.5155142421 0.0
762 2 32.6690134795 23.0201142421 0.0
763 2 31.9308134795 20.3578142421 0.0
764 2 34.3339134795 21.1026142421 0.0
765 2 37.0126134795 21.1026142421 0.0
766 2 43.6711134795 24.1931142421 0.0
767 2 43.4929134795 21.7885142421 0.0
768 2 45.9430134795 23.3247142421 0.0
769 2 47.5544134795 21.9493142421 0.0
770 2 48.7739134795 24.2065142421 0.0
771 2 53.3256134795 21.6430142421 0.0
772 2 51.1375134795 23.4357142421 0.0
773 2 57.1978134795 23.5821142421 0.0
774 2 58.5324134795 25.4378142421 0.0
775 2 55.9296134795 26.0860142421 0.0
776 2 63.8542134795 24.2216142421 0.0
777 2 64.6295134795 21.6494142421 0.0
778 2 66.3724134795 23.0368142421 0.0
779 2 68.8523134795 23.7918142421 0.0
780 2 74.3489134795 25.5031142421 0.0
781 2 75.1218134795 27.6634142421 0.0
782 2 72.8409134795 28.1100142421 0.0
783 2 3.2247234795 29.0562142421 0.0
784 2 1.1268134795 30.2900142421 0.0
785 2 8.2397734795 28.9536142421 0.0
786 2 7.6039934795 31.2126142421 0.0
787 2 10.0393134795 31.2053142421 0.0
788 2 14.6295134795 29.6486142421 0.0
789 2 14.2721134795 27.2898142421 0.0