ITEM: TIMESTEP
0
ITEM: NUMBER OF ATOMS
1350
ITEM: BOX BOUNDS xy xz yz pp pp pp
0.0 76.9821181679 0
0.0 82.8369421934 0
-10.0 10.0 0
ITEM: ATOMS id type x y z vx vy vz
1 1 3.3371168608 1.8272510967 0.0 0.0 0.0 0.0
2 1 8.8337068608 1.4749310967 0.0 0.0 0.0 0.0
3 1 13.6695968608 3.7239910967 0.0 0.0 0.0 0.0
4 1 20.6496968608 1.1724320967 0.0 0.0 0.0 0.0
5 1 23.6719968608 0.966467096699 0.0 0.0 0.0 0.0
6 1 28.2781968608 1.3985510967 0.0 0.0 0.0 0.0
7 1 33.0410968608 3.3734010967 0.0 0.0 0.0 0.0
8 1 38.1886968608 1.0671700967 0.0 0.0 0.0 0.0
9 1 44.0543968608 0.729258096699 0.0 0.0 0.0 0.0
10 1 49.3349968608 1.0049500967 0.0 0.0 0.0 0.0
11 1 54.7181968608 1.7957110967 0.0 0.0 0.0 0.0
12 1 59.8972968608 2.3509310967 0.0 0.0 0.0 0.0
13 1 64.6207968608 1.4200110967 0.0 0.0 0.0 0.0
14 1 69.8581968608 1.4266110967 0.0 0.0 0.0 0.0
15 1 74.9279968608 1.8959210967 0.0 0.0 0.0 0.0
16 1 0.589986860801 6.2294110967 0.0 0.0 0.0 0.0
17 1 5.9889668608 5.8964210967 0.0 0.0 0.0 0.0
18 1 11.6242968608 5.9333110967 0.0 0.0 0.0 0.0
19 1 16.3584968608 7.4128810967 0.0 0.0 0.0 0.0
20 1 21.2867968608 6.5492510967 0.0 0.0 0.0 0.0
21 1 26.6499968608 6.0942110967 0.0 0.0 0.0 0.0
22 1 32.1193968608 6.2325510967 0.0 0.0 0.0 0.0
23 1 37.3855968608 8.1401410967 0.0 0.0 0.0 0.0
24 1 41.9644968608 4.4936810967 0.0 0.0 0.0 0.0
25 1 47.1261968608 5.3380510967 0.0 0.0 0.0 0.0
26 1 52.0924968608 5.6780510967 0.0 0.0 0.0 0.0
27 1 57.3998968608 6.5606410967 0.0 0.0 0.0 0.0
28 1 64.3014968608 6.1275410967 0.0 0.0 0.0 0.0
29 1 67.2994968608 5.9070210967 0.0 0.0 0.0 0.0
30 1 72.2251968608 6.3000010967 0.0 0.0 0.0 0.0
31 1 3.3869668608 10.4133710967 0.0 0.0 0.0 0.0
32 1 8.8032768608 9.9854510967 0.0 0.0 0.0 0.0
33 1 13.5805968608 13.0381710967 0.0 0.0 0.0 0.0
34 1 19.1522968608 11.6291710967 0.0 0.0 0.0 0.0
35 1 24.3552968608 10.7713710967 0.0 0.0 0.0 0.0
36 1 29.5608968608 10.6014710967 0.0 0.0 0.0 0.0
37 1 38.0419968608 11.0677710967 0.0 0.0 0.0 0.0
38 1 42.3420968608 8.6165710967 0.0 0.0 0.0 0.0
39 1 43.6544968608 12.9931710967 0.0 0.0 0.0 0.0
40 1 50.8057968608 9.9347710967 0.0 0.0 0.0 0.0
41 1 53.7949968608 10.3682710967 0.0 0.0 0.0 0.0
42 1 58.7741968608 11.3098710967 0.0 0.0 0.0 0.0
43 1 64.3556968608 11.2496710967 0.0 0.0 0.0 0.0
44 1 69.5454968608 10.8789710967 0.0 0.0 0.0 0.0
45 1 75.0109968608 10.6955710967 0.0 0.0 0.0 0.0
46 1 1.1111468608 14.9596710967 0.0 0.0 0.0 0.0
47 1 6.4455668608 14.4908710967 0.0 0.0 0.0 0.0
48 1 11.9212968608 15.5369710967 0.0 0.0 0.0 0.0
49 1 16.8018968608 16.2127710967 0.0 0.0 0.0 0.0
50 1 21.7852968608 15.6857710967 0.0 0.0 0.0 0.0
51 1 26.7118968608 15.3001710967 0.0 0.0 0.0 0.0
52 1 31.4627968608 15.2162710967 0.0 0.0 0.0 0.0
53 1 36.0579968608 14.9557710967 0.0 0.0 0.0 0.0
54 1 41.7402968608 15.2954710967 0.0 0.0 0.0 0.0
55 1 48.2555968608 15.9655710967 0.0 0.0 0.0 0.0
56 1 51.1755968608 15.3001710967 0.0 0.0 0.0 0.0
57 1 55.7719968608 15.4904710967 0.0 0.0 0.0 0.0
58 1 61.3764968608 15.3736710967 0.0 0.0 0.0 0.0
59 1 67.4303968608 15.6718710967 0.0 0.0 0.0 0.0
60 1 72.6070968608 15.1070710967 0.0 0.0 0.0 0.0
61 1 5.3519868608 18.7654710967 0.0 0.0 0.0 0.0
62 1 8.3545868608 19.0630710967 0.0 0.0 0.0 0.0
63 1 13.5893968608 20.5177710967 0.0 0.0 0.0 0.0
64 1 19.0243968608 20.5953710967 0.0 0.0 0.0 0.0
65 1 23.9494968608 20.2279710967 0.0 0.0 0.0 0.0
66 1 29.2035968608 20.1555710967 0.0 0.0 0.0 0.0
67 1 35.2497968608 19.6586710967 0.0 0.0 0.0 0.0
68 1 38.1595968608 18.9708710967 0.0 0.0 0.0 0.0
69 1 42.4520968608 18.1855710967 0.0 0.0 0.0 0.0
70 1 48.5590968608 21.8513710967 0.0 0.0 0.0 0.0
71 1 53.7352968608 20.4480710967 0.0 0.0 0.0 0.0
72 1 60.3825968608 18.9163710967 0.0 0.0 0.0 0.0
73 1 63.1461968608 17.7825710967 0.0 0.0 0.0 0.0
74 1 69.8719968608 19.9270710967 0.0 0.0 0.0 0.0
75 1 75.1682968608 19.2967710967 0.0 0.0 0.0 0.0
76 1 76.4725968608 23.8807710967 0.0 0.0 0.0 0.0
77 1 4.7507168608 23.9684710967 0.0 0.0 0.0 0.0
78 1 10.3218968608 24.0608710967 0.0 0.0 0.0 0.0
79 1 15.9462968608 24.8664710967 0.0 0.0 0.0 0.0
80 1 21.2756968608 25.1753710967 0.0 0.0 0.0 0.0
81 1 26.2538968608 24.6736710967 0.0 0.0 0.0 0.0
82 1 31.3046968608 25.2010710967 0.0 0.0 0.0 0.0
83 1 36.0754968608 25.0793710967 0.0 0.0 0.0 0.0
84 1 42.6412968608 22.8279710967 0.0 0.0 0.0 0.0
85 1 44.5996968608 26.4399710967 0.0 0.0 0.0 0.0
86 1 50.5434968608 25.3889710967 0.0 0.0 0.0 0.0
87 1 57.6517968608 24.7528710967 0.0 0.0 0.0 0.0
88 1 60.6562968608 24.3936710967 0.0 0.0 0.0 0.0
89 1 66.1540968608 24.1864710967 0.0 0.0 0.0 0.0
90 1 73.4606968608 23.9193710967 0.0 0.0 0.0 0.0
91 1 2.1439068608 28.3788710967 0.0 0.0 0.0 0.0
92 1 7.3600468608 28.1960710967 0.0 0.0 0.0 0.0
93 1 12.5034968608 28.4717710967 0.0 0.0 0.0 0.0
94 1 17.7950968608 29.3918710967 0.0 0.0 0.0 0.0
95 1 25.4387968608 29.2405710967 0.0 0.0 0.0 0.0
96 1 28.4449968608 29.5159710967 0.0 0.0 0.0 0.0
97 1 33.6053968608 29.9825710967 0.0 0.0 0.0 0.0
98 1 38.8649968608 29.4468710967 0.0 0.0 0.0 0.0
99 1 44.0093968608 29.3781710967 0.0 0.0 0.0 0.0
100 1 47.8682968608 32.1529710967 0.0 0.0 0.0 0.0
101 1 52.8385968608 30.0496710967 0.0 0.0 0.0 0.0
102 1 57.9847968608 29.6111710967 0.0 0.0 0.0 0.0
103 1 62.8662968608 28.7010710967 0.0 0.0 0.0 0.0
104 1 67.7820968608 29.0031710967 0.0 0.0 0.0 0.0
105 1 73.5513968608 28.6154710967 0.0 0.0 0.0 0.0
106 1 76.8469968608 32.6012710967 0.0 0.0 0.0 0.0
107 1 4.6958168608 32.7906710967 0.0 0.0 0.0 0.0
108 1 9.7075968608 32.8972710967 0.0 0.0 0.0 0.0
109 1 14.6178968608 33.2472710967 0.0 0.0 0.0 0.0
110 1 18.7850968608 32.2390710967 0.0 0.0 0.0 0.0
111 1 25.4635968608 34.9222710967 0.0 0.0 0.0 0.0
112 1 31.3856968608 34.2924710967 0.0 0.0 0.0 0.0
113 1 36.9702968608 34.1165710967 0.0 0.0 0.0 0.0
114 1 41.6469968608 33.9853710967 0.0 0.0 0.0 0.0
115 1 46.5937968608 34.8594710967 0.0 0.0 0.0 0.0
116 1 50.6900968608 35.2465710967 0.0 0.0 0.0 0.0
117 1 55.4659968608 34.3059710967 0.0 0.0 0.0 0.0
118 1 60.5828968608 33.9524710967 0.0 0.0 0.0 0.0
119 1 65.6933968608 33.5824710967 0.0 0.0 0.0 0.0
120 1 69.7199968608 31.2951710967 0.0 0.0 0.0 0.0
121 1 2.0235268608 37.4889710967 0.0 0.0 0.0 0.0
122 1 6.9696268608 37.4943710967 0.0 0.0 0.0 0.0
123 1 12.2272968608 37.7873710967 0.0 0.0 0.0 0.0
124 1 17.1459968608 37.8257710967 0.0 0.0 0.0 0.0
125 1 22.3919968608 38.8453710967 0.0 0.0 0.0 0.0
126 1 27.0415968608 37.4736710967 0.0 0.0 0.0 0.0
127 1 34.7122968608 38.2635710967 0.0 0.0 0.0 0.0
128 1 40.8144968608 38.6209710967 0.0 0.0 0.0 0.0
129 1 43.7980968608 39.0261710967 0.0 0.0 0.0 0.0
130 1 48.5553968608 40.1993710967 0.0 0.0 0.0 0.0
131 1 53.8420968608 39.4024710967 0.0 0.0 0.0 0.0
132 1 58.5011968608 40.6678710967 0.0 0.0 0.0 0.0
133 1 62.0880968608 36.5874710967 0.0 0.0 0.0 0.0
134 1 69.5061968608 36.9619710967 0.0 0.0 0.0 0.0
135 1 74.4109968608 37.0977710967 0.0 0.0 0.0 0.0
136 1 76.2808968608 42.2428710967 0.0 0.0 0.0 0.0
137 1 4.1401768608 42.1856710967 0.0 0.0 0.0 0.0
138 1 9.2593968608 42.0633710967 0.0 0.0 0.0 0.0
139 1 14.3955968608 42.5710710967 0.0 0.0 0.0 0.0
140 1 19.5752968608 42.6869710967 0.0 0.0 0.0 0.0
141 1 25.2993968608 42.8892710967 0.0 0.0 0.0 0.0
142 1 32.3982968608 42.2608710967 0.0 0.0 0.0 0.0
143 1 35.3477968608 42.8585710967 0.0 0.0 0.0 0.0
144 1 40.6499968608 44.3043710967 0.0 0.0 0.0 0.0
145 1 46.0128968608 44.3547710967 0.0 0.0 0.0 0.0
146 1 51.4065968608 44.1820710967 0.0 0.0 0.0 0.0
147 1 57.0741968608 43.3088710967 0.0 0.0 0.0 0.0
148 1 62.1596968608 42.3675710967 0.0 0.0 0.0 0.0
149 1 68.4763968608 41.4939710967 0.0 0.0 0.0 0.0
150 1 71.4876968608 41.7243710967 0.0 0.0 0.0 0.0
151 1 2.0933868608 47.0178710967 0.0 0.0 0.0 0.0
152 1 7.0635868608 46.6769710967 0.0 0.0 0.0 0.0
153 1 11.7053968608 48.9243710967 0.0 0.0 0.0 0.0
154 1 17.1346968608 47.1851710967 0.0 0.0 0.0 0.0
155 1 21.8468968608 46.7093710967 0.0 0.0 0.0 0.0
156 1 27.1086968608 47.7203710967 0.0 0.0 0.0 0.0
157 1 32.7057968608 46.9862710967 0.0 0.0 0.0 0.0
158 1 37.8096968608 49.3149710967 0.0 0.0 0.0 0.0
159 1 44.4951968608 48.6346710967 0.0 0.0 0.0 0.0
160 1 49.4457968608 48.6256710967 0.0 0.0 0.0 0.0
161 1 54.8495968608 47.6433710967 0.0 0.0 0.0 0.0
162 1 60.3149968608 47.3200710967 0.0 0.0 0.0 0.0
163 1 65.9501968608 48.4610710967 0.0 0.0 0.0 0.0
164 1 68.6382968608 47.1048710967 0.0 0.0 0.0 0.0
165 1 73.8545968608 46.8389710967 0.0 0.0 0.0 0.0
166 1 76.8830968608 51.4617710967 0.0 0.0 0.0 0.0
167 1 4.8283968608 51.6067710967 0.0 0.0 0.0 0.0
168 1 10.2000968608 51.5224710967 0.0 0.0 0.0 0.0
169 1 15.3097968608 51.8768710967 0.0 0.0 0.0 0.0
170 1 21.0319968608 51.4998710967 0.0 0.0 0.0 0.0
171 1 24.0270968608 51.4826710967 0.0 0.0 0.0 0.0
172 1 28.1230968608 50.5658710967 0.0 0.0 0.0 0.0
173 1 35.7425968608 51.4430710967 0.0 0.0 0.0 0.0
174 1 39.8268968608 51.5438710967 0.0 0.0 0.0 0.0
175 1 46.7332968608 53.4323710967 0.0 0.0 0.0 0.0
176 1 54.2079968608 51.7769710967 0.0 0.0 0.0 0.0
177 1 57.2280968608 51.7075710967 0.0 0.0 0.0 0.0
178 1 62.6573968608 53.0255710967 0.0 0.0 0.0 0.0
179 1 67.1806968608 53.5144710967 0.0 0.0 0.0 0.0
180 1 71.7554968608 51.5060710967 0.0 0.0 0.0 0.0
181 1 1.8332168608 56.3004710967 0.0 0.0 0.0 0.0
182 1 8.4900268608 55.8007710967 0.0 0.0 0.0 0.0
183 1 13.3234968608 56.1622710967 0.0 0.0 0.0 0.0
184 1 16.2211968608 56.8453710967 0.0 0.0 0.0 0.0
185 1 21.1055968608 57.3275710967 0.0 0.0 0.0 0.0
186 1 26.3908968608 56.2102710967 0.0 0.0 0.0 0.0
187 1 33.5763968608 54.5436710967 0.0 0.0 0.0 0.0
188 1 36.5236968608 54.3201710967 0.0 0.0 0.0 0.0
189 1 43.0616968608 56.8512710967 0.0 0.0 0.0 0.0
190 1 47.4343968608 56.3941710967 0.0 0.0 0.0 0.0
191 1 54.0577968608 57.1181710967 0.0 0.0 0.0 0.0
192 1 59.3342968608 56.4476710967 0.0 0.0 0.0 0.0
193 1 65.1754968608 58.1432710967 0.0 0.0 0.0 0.0
194 1 71.2496968608 56.8507710967 0.0 0.0 0.0 0.0
195 1 74.1491968608 56.0752710967 0.0 0.0 0.0 0.0
196 1 76.1629968608 61.1312710967 0.0 0.0 0.0 0.0
197 1 4.0189468608 61.5531710967 0.0 0.0 0.0 0.0
198 1 8.2151668608 60.9255710967 0.0 0.0 0.0 0.0
199 1 13.1209968608 63.0216710967 0.0 0.0 0.0 0.0
200 1 18.8689968608 61.7571710967 0.0 0.0 0.0 0.0
201 1 22.8340968608 59.8012710967 0.0 0.0 0.0 0.0
202 1 29.8022968608 59.9973710967 0.0 0.0 0.0 0.0
203 1 34.4740968608 62.4845710967 0.0 0.0 0.0 0.0
204 1 39.5446968608 60.4543710967 0.0 0.0 0.0 0.0
205 1 44.1661968608 59.6417710967 0.0 0.0 0.0 0.0
206 1 51.1577968608 61.8450710967 0.0 0.0 0.0 0.0
207 1 57.8952968608 60.8984710967 0.0 0.0 0.0 0.0
208 1 60.3818968608 59.2510710967 0.0 0.0 0.0 0.0
209 1 65.7954968608 65.2753710967 0.0 0.0 0.0 0.0
210 1 70.9046968608 62.6934710967 0.0 0.0 0.0 0.0
211 1 2.4495768608 65.9628710967 0.0 0.0 0.0 0.0
212 1 7.4302468608 66.1866710967 0.0 0.0 0.0 0.0
213 1 12.2284968608 65.9023710967 0.0 0.0 0.0 0.0
214 1 16.8519968608 65.8598710967 0.0 0.0 0.0 0.0
215 1 22.9809968608 65.4096710967 0.0 0.0 0.0 0.0
216 1 29.3560968608 64.1371710967 0.0 0.0 0.0 0.0
217 1 32.3499968608 64.6028710967 0.0 0.0 0.0 0.0
218 1 37.1292968608 65.6284710967 0.0 0.0 0.0 0.0
219 1 42.4439968608 64.8995710967 0.0 0.0 0.0 0.0
220 1 47.6340968608 65.2916710967 0.0 0.0 0.0 0.0
221 1 52.7877968608 66.6622710967 0.0 0.0 0.0 0.0
222 1 57.5707968608 66.3067710967 0.0 0.0 0.0 0.0
223 1 63.3508968608 67.0398710967 0.0 0.0 0.0 0.0
224 1 69.4742968608 67.7910710967 0.0 0.0 0.0 0.0
225 1 74.6042968608 66.0353710967 0.0 0.0 0.0 0.0
226 1 0.634226860801 70.7339710967 0.0 0.0 0.0 0.0
227 1 5.5569368608 70.6906710967 0.0 0.0 0.0 0.0
228 1 10.7824968608 70.7724710967 0.0 0.0 0.0 0.0
229 1 16.5380968608 70.0153710967 0.0 0.0 0.0 0.0
230 1 18.8186968608 68.0912710967 0.0 0.0 0.0 0.0
231 1 25.4974968608 69.7727710967 0.0 0.0 0.0 0.0
232 1 30.2073968608 69.6579710967 0.0 0.0 0.0 0.0
233 1 35.4757968608 71.6976710967 0.0 0.0 0.0 0.0
234 1 40.6914968608 69.5208710967 0.0 0.0 0.0 0.0
235 1 44.8897968608 72.1613710967 0.0 0.0 0.0 0.0
236 1 50.2576968608 70.3355710967 0.0 0.0 0.0 0.0
237 1 55.6368968608 71.2879710967 0.0 0.0 0.0 0.0
238 1 60.2805968608 70.3835710967 0.0 0.0 0.0 0.0
239 1 65.5102968608 71.9766710967 0.0 0.0 0.0 0.0
240 1 72.8844968608 71.0744710967 0.0 0.0 0.0 0.0
241 1 3.0642668608 75.4362710967 0.0 0.0 0.0 0.0
242 1 8.1108268608 75.2432710967 0.0 0.0 0.0 0.0
243 1 13.2803968608 75.7409710967 0.0 0.0 0.0 0.0
244 1 17.9699968608 75.3584710967 0.0 0.0 0.0 0.0
245 1 23.1159968608 74.0401710967 0.0 0.0 0.0 0.0
246 1 27.8770968608 76.5374710967 0.0 0.0 0.0 0.0
247 1 35.8007968608 74.6885710967 0.0 0.0 0.0 0.0
248 1 38.8067968608 74.5677710967 0.0 0.0 0.0 0.0
249 1 43.9084968608 75.0173710967 0.0 0.0 0.0 0.0
250 1 49.0167968608 74.9699710967 0.0 0.0 0.0 0.0
251 1 53.9367968608 77.3186710967 0.0 0.0 0.0 0.0
252 1 59.3400968608 75.5293710967 0.0 0.0 0.0 0.0
253 1 64.7537968608 74.8808710967 0.0 0.0 0.0 0.0
254 1 70.0845968608 75.5112710967 0.0 0.0 0.0 0.0
255 1 75.1076968608 75.7092710967 0.0 0.0 0.0 0.0
256 1 0.656056860801 3.2199310967 0.0 0.0 0.0 0.0
257 1 6.1625068608 2.8964010967 0.0 0.0 0.0 0.0
258 1 11.8602968608 1.3305010967 0.0 0.0 0.0 0.0
259 1 16.6104968608 4.4221810967 0.0 0.0 0.0 0.0
260 1 19.6111968608 4.0109910967 0.0 0.0 0.0 0.0
261 1 25.8287968608 3.1459810967 0.0 0.0 0.0 0.0
262 1 31.2573968608 0.999405096699 0.0 0.0 0.0 0.0
263 1 36.0459968608 3.2653510967 0.0 0.0 0.0 0.0
264 1 41.1683968608 1.6151310967 0.0 0.0 0.0 0.0
265 1 46.6307968608 2.3481210967 0.0 0.0 0.0 0.0
266 1 51.8461968608 2.6831410967 0.0 0.0 0.0 0.0
267 1 57.1576968608 3.5656510967 0.0 0.0 0.0 0.0
268 1 62.6126968608 3.6426410967 0.0 0.0 0.0 0.0
269 1 67.2453968608 2.8949610967 0.0 0.0 0.0 0.0
270 1 72.2475968608 3.2756310967 0.0 0.0 0.0 0.0
271 1 3.3697468608 7.4023310967 0.0 0.0 0.0 0.0
272 1 8.7973668608 6.9789010967 0.0 0.0 0.0 0.0
273 1 13.4869968608 8.2774010967 0.0 0.0 0.0 0.0
274 1 19.1017968608 8.6265210967 0.0 0.0 0.0 0.0
275 1 24.0916968608 7.7379410967 0.0 0.0 0.0 0.0
276 1 29.3610968608 7.5518010967 0.0 0.0 0.0 0.0
277 1 35.1434968608 6.1653210967 0.0 0.0 0.0 0.0
278 1 40.0160968608 6.7384110967 0.0 0.0 0.0 0.0
279 1 44.3090968608 6.3640810967 0.0 0.0 0.0 0.0
280 1 49.5092968608 7.2047610967 0.0 0.0 0.0 0.0
281 1 54.5291968608 7.4554210967 0.0 0.0 0.0 0.0
282 1 59.7404968608 8.4654910967 0.0 0.0 0.0 0.0
283 1 62.7609968608 8.6896210967 0.0 0.0 0.0 0.0
284 1 69.6225968608 7.8453210967 0.0 0.0 0.0 0.0
285 1 74.9192968608 7.6771810967 0.0 0.0 0.0 0.0
286 1 0.785966860801 11.9564710967 0.0 0.0 0.0 0.0
287 1 6.2005368608 11.4993710967 0.0 0.0 0.0 0.0
288 1 11.7218968608 10.6940710967 0.0 0.0 0.0 0.0
289 1 16.5860968608 13.2170710967 0.0 0.0 0.0 0.0
290 1 21.9828968608 12.6679710967 0.0 0.0 0.0 0.0
291 1 27.0023968608 12.2622710967 0.0 0.0 0.0 0.0
292 1 32.1255968608 12.2545710967 0.0 0.0 0.0 0.0
293 1 35.1732968608 12.0982710967 0.0 0.0 0.0 0.0
294 1 41.0974968608 11.3428710967 0.0 0.0 0.0 0.0
295 1 46.6815968608 13.4101710967 0.0 0.0 0.0 0.0
296 1 49.6285968608 12.6925710967 0.0 0.0 0.0 0.0
297 1 55.9749968608 12.4697710967 0.0 0.0 0.0 0.0
298 1 61.5817968608 12.4077710967 0.0 0.0 0.0 0.0
299 1 67.0626968608 12.6407710967 0.0 0.0 0.0 0.0
300 1 72.3241968608 12.0982710967 0.0 0.0 0.0 0.0
301 1 3.9126268608 16.1142710967 0.0 0.0 0.0 0.0
302 1 8.9751968608 16.1232710967 0.0 0.0 0.0 0.0
303 1 14.1222968608 17.5691710967 0.0 0.0 0.0 0.0
304 1 19.4574968608 17.6087710967 0.0 0.0 0.0 0.0
305 1 24.3667968608 17.2218710967 0.0 0.0 0.0 0.0
306 1 29.1225968608 17.1172710967 0.0 0.0 0.0 0.0
307 1 33.8734968608 17.0009710967 0.0 0.0 0.0 0.0
308 1 38.8410968608 16.0444710967 0.0 0.0 0.0 0.0
309 1 45.0996968608 19.5277710967 0.0 0.0 0.0 0.0
310 1 48.0001968608 18.9230710967 0.0 0.0 0.0 0.0
311 1 53.4088968608 17.3865710967 0.0 0.0 0.0 0.0
312 1 58.6044968608 16.5114710967 0.0 0.0 0.0 0.0
313 1 66.0826968608 18.4013710967 0.0 0.0 0.0 0.0
314 1 70.1764968608 16.9091710967 0.0 0.0 0.0 0.0
315 1 75.3826968608 16.2960710967 0.0 0.0 0.0 0.0
316 1 0.595496860801 21.0892710967 0.0 0.0 0.0 0.0
317 1 3.6006868608 21.1938710967 0.0 0.0 0.0 0.0
318 1 10.6195968608 21.0685710967 0.0 0.0 0.0 0.0
319 1 16.2851968608 21.8761710967 0.0 0.0 0.0 0.0
320 1 21.6038968608 22.1572710967 0.0 0.0 0.0 0.0
321 1 26.5897968608 21.6757710967 0.0 0.0 0.0 0.0
322 1 31.4410968608 22.2025710967 0.0 0.0 0.0 0.0
323 1 34.4380968608 22.5364710967 0.0 0.0 0.0 0.0
324 1 40.6655968608 20.5782710967 0.0 0.0 0.0 0.0
325 1 45.6187968608 22.4683710967 0.0 0.0 0.0 0.0
326 1 51.4868968608 22.5133710967 0.0 0.0 0.0 0.0
327 1 56.3481968608 22.0294710967 0.0 0.0 0.0 0.0
328 1 59.3368968608 21.6947710967 0.0 0.0 0.0 0.0
329 1 67.1411968608 21.2589710967 0.0 0.0 0.0 0.0
330 1 72.6851968608 21.0099710967 0.0 0.0 0.0 0.0
331 1 2.0943968608 25.3860710967 0.0 0.0 0.0 0.0
332 1 7.5161968608 25.1871710967 0.0 0.0 0.0 0.0
333 1 12.9834968608 25.5038710967 0.0 0.0 0.0 0.0
334 1 18.5240968608 26.4583710967 0.0 0.0 0.0 0.0
335 1 23.9444968608 26.6029710967 0.0 0.0 0.0 0.0
336 1 28.6252968608 26.5205710967 0.0 0.0 0.0 0.0
337 1 33.7385968608 26.9708710967 0.0 0.0 0.0 0.0
338 1 38.7802968608 26.4354710967 0.0 0.0 0.0 0.0
339 1 41.6903968608 25.6397710967 0.0 0.0 0.0 0.0
340 1 47.6461968608 26.3792710967 0.0 0.0 0.0 0.0
341 1 53.0503968608 27.0738710967 0.0 0.0 0.0 0.0
342 1 56.0660968608 27.2819710967 0.0 0.0 0.0 0.0
343 1 63.4321968608 25.6770710967 0.0 0.0 0.0 0.0
344 1 68.5506968608 26.0835710967 0.0 0.0 0.0 0.0
345 1 71.5937968608 26.2871710967 0.0 0.0 0.0 0.0
346 1 76.3942968608 29.6197710967 0.0 0.0 0.0 0.0
347 1 4.8009068608 29.7829710967 0.0 0.0 0.0 0.0
348 1 9.8498968608 29.8866710967 0.0 0.0 0.0 0.0
349 1 14.9179968608 30.2543710967 0.0 0.0 0.0 0.0
350 1 21.6601968608 33.0415710967 0.0 0.0 0.0 0.0
351 1 24.4951968608 32.0864710967 0.0 0.0 0.0 0.0
352 1 30.8875968608 31.3121710967 0.0 0.0 0.0 0.0
353 1 36.3901968608 31.1588710967 0.0 0.0 0.0 0.0
354 1 41.4631968608 30.9787710967 0.0 0.0 0.0 0.0
355 1 46.9907968608 29.3107710967 0.0 0.0 0.0 0.0
356 1 50.8409968608 32.2670710967 0.0 0.0 0.0 0.0
357 1 55.5415968608 31.3286710967 0.0 0.0 0.0 0.0
358 1 60.7280968608 30.8823710967 0.0 0.0 0.0 0.0
359 1 65.2199968608 30.5878710967 0.0 0.0 0.0 0.0
360 1 72.6965968608 31.5006710967 0.0 0.0 0.0 0.0
361 1 2.2099568608 34.4781710967 0.0 0.0 0.0 0.0
362 1 7.1635468608 34.4924710967 0.0 0.0 0.0 0.0
363 1 12.0466968608 34.7832710967 0.0 0.0 0.0 0.0
364 1 17.1836968608 34.7978710967 0.0 0.0 0.0 0.0
365 1 22.6212968608 35.8648710967 0.0 0.0 0.0 0.0
366 1 29.9996968608 36.9696710967 0.0 0.0 0.0 0.0
367 1 34.2212968608 35.3060710967 0.0 0.0 0.0 0.0
368 1 39.3780968608 35.9442710967 0.0 0.0 0.0 0.0
369 1 43.8561968608 36.0188710967 0.0 0.0 0.0 0.0
370 1 48.4403968608 37.2060710967 0.0 0.0 0.0 0.0
371 1 53.3913968608 36.4567710967 0.0 0.0 0.0 0.0
372 1 58.1043968608 35.6819710967 0.0 0.0 0.0 0.0
373 1 65.0837968608 36.5413710967 0.0 0.0 0.0 0.0
374 1 68.6463968608 34.0858710967 0.0 0.0 0.0 0.0
375 1 74.2453968608 34.0834710967 0.0 0.0 0.0 0.0
376 1 76.5466968608 39.2220710967 0.0 0.0 0.0 0.0
377 1 4.4898268608 39.1951710967 0.0 0.0 0.0 0.0
378 1 9.5174968608 39.0759710967 0.0 0.0 0.0 0.0
379 1 14.6668968608 39.5545710967 0.0 0.0 0.0 0.0
380 1 19.5115968608 39.6878710967 0.0 0.0 0.0 0.0
381 1 25.2204968608 39.8770710967 0.0 0.0 0.0 0.0
382 1 31.8966968608 39.3040710967 0.0 0.0 0.0 0.0
383 1 36.9062968608 40.3159710967 0.0 0.0 0.0 0.0
384 1 39.7174968608 41.4123710967 0.0 0.0 0.0 0.0
385 1 45.7693968608 41.3370710967 0.0 0.0 0.0 0.0
386 1 51.4014968608 41.1794710967 0.0 0.0 0.0 0.0
387 1 56.6625968608 38.3370710967 0.0 0.0 0.0 0.0
388 1 61.2707968608 39.5030710967 0.0 0.0 0.0 0.0
389 1 67.1224968608 38.7807710967 0.0 0.0 0.0 0.0
390 1 71.9148968608 38.7473710967 0.0 0.0 0.0 0.0
391 1 1.7471868608 44.0099710967 0.0 0.0 0.0 0.0
392 1 6.7319868608 43.6903710967 0.0 0.0 0.0 0.0
393 1 11.6606968608 43.8589710967 0.0 0.0 0.0 0.0
394 1 16.9536968608 44.1767710967 0.0 0.0 0.0 0.0
395 1 22.3974968608 43.7583710967 0.0 0.0 0.0 0.0
396 1 27.6834968608 44.7632710967 0.0 0.0 0.0 0.0
397 1 30.7010968608 44.7240710967 0.0 0.0 0.0 0.0
398 1 37.6511968608 44.8031710967 0.0 0.0 0.0 0.0
399 1 43.3475968608 45.8004710967 0.0 0.0 0.0 0.0
400 1 48.7651968608 45.6723710967 0.0 0.0 0.0 0.0
401 1 54.3852968608 44.6830710967 0.0 0.0 0.0 0.0
402 1 59.8837968608 44.3534710967 0.0 0.0 0.0 0.0
403 1 64.4583968608 44.2838710967 0.0 0.0 0.0 0.0
404 1 67.4642968608 44.3251710967 0.0 0.0 0.0 0.0
405 1 73.6932968608 43.8024710967 0.0 0.0 0.0 0.0
406 1 76.4231968608 48.4651710967 0.0 0.0 0.0 0.0
407 1 4.6991268608 48.5721710967 0.0 0.0 0.0 0.0
408 1 10.0701968608 46.4209710967 0.0 0.0 0.0 0.0
409 1 14.7097968608 48.9459710967 0.0 0.0 0.0 0.0
410 1 19.6831968608 48.7907710967 0.0 0.0 0.0 0.0
411 1 24.2385968608 48.4971710967 0.0 0.0 0.0 0.0
412 1 30.8931968608 49.3967710967 0.0 0.0 0.0 0.0
413 1 35.7501968608 47.1227710967 0.0 0.0 0.0 0.0
414 1 42.7723968608 51.0942710967 0.0 0.0 0.0 0.0
415 1 46.9892968608 50.3895710967 0.0 0.0 0.0 0.0
416 1 52.3861968608 49.3757710967 0.0 0.0 0.0 0.0
417 1 57.6594968608 48.7400710967 0.0 0.0 0.0 0.0
418 1 63.3033968608 47.0527710967 0.0 0.0 0.0 0.0
419 1 65.1361968608 51.3348710967 0.0 0.0 0.0 0.0
420 1 71.3250968608 48.5030710967 0.0 0.0 0.0 0.0
421 1 2.3102068608 53.2937710967 0.0 0.0 0.0 0.0
422 1 7.5467568608 52.9315710967 0.0 0.0 0.0 0.0
423 1 12.6476968608 53.2499710967 0.0 0.0 0.0 0.0
424 1 17.3486968608 54.0727710967 0.0 0.0 0.0 0.0
425 1 20.3234968608 54.4176710967 0.0 0.0 0.0 0.0
426 1 26.5172968608 53.1603710967 0.0 0.0 0.0 0.0
427 1 32.7823968608 51.6885710967 0.0 0.0 0.0 0.0
428 1 39.4771968608 54.5526710967 0.0 0.0 0.0 0.0
429 1 43.7858968608 53.9220710967 0.0 0.0 0.0 0.0
430 1 50.4001968608 56.1890710967 0.0 0.0 0.0 0.0
431 1 52.7976968608 54.4153710967 0.0 0.0 0.0 0.0
432 1 59.6803968608 53.4635710967 0.0 0.0 0.0 0.0
433 1 64.7160968608 55.2000710967 0.0 0.0 0.0 0.0
434 1 70.1277968608 54.0463710967 0.0 0.0 0.0 0.0
435 1 74.3357968608 53.0605710967 0.0 0.0 0.0 0.0
436 1 76.3804968608 58.0975710967 0.0 0.0 0.0 0.0
437 1 3.8370368608 58.5467710967 0.0 0.0 0.0 0.0
438 1 6.8072368608 58.2667710967 0.0 0.0 0.0 0.0
439 1 10.8028968608 57.7352710967 0.0 0.0 0.0 0.0
440 1 18.4901968608 58.7866710967 0.0 0.0 0.0 0.0
441 1 25.7766968608 59.2136710967 0.0 0.0 0.0 0.0
442 1 29.2401968608 57.0648710967 0.0 0.0 0.0 0.0
443 1 32.2038968608 57.1495710967 0.0 0.0 0.0 0.0
444 1 40.1392968608 57.4899710967 0.0 0.0 0.0 0.0
445 1 47.1455968608 59.4369710967 0.0 0.0 0.0 0.0
446 1 51.6723968608 58.8958710967 0.0 0.0 0.0 0.0
447 1 56.8523968608 58.1056710967 0.0 0.0 0.0 0.0
448 1 63.1480968608 60.3281710967 0.0 0.0 0.0 0.0
449 1 67.3787968608 60.1480710967 0.0 0.0 0.0 0.0
450 1 70.3383968608 59.7320710967 0.0 0.0 0.0 0.0
451 1 1.4674168608 63.1059710967 0.0 0.0 0.0 0.0
452 1 6.4509468608 63.3343710967 0.0 0.0 0.0 0.0
453 1 11.1917968608 60.7150710967 0.0 0.0 0.0 0.0
454 1 16.1252968608 62.9651710967 0.0 0.0 0.0 0.0
455 1 21.7534968608 62.6287710967 0.0 0.0 0.0 0.0
456 1 27.4317968608 61.7833710967 0.0 0.0 0.0 0.0
457 1 32.7773968608 60.0532710967 0.0 0.0 0.0 0.0
458 1 37.4552968608 62.6313710967 0.0 0.0 0.0 0.0
459 1 42.1852968608 61.8987710967 0.0 0.0 0.0 0.0
460 1 48.1921968608 62.2985710967 0.0 0.0 0.0 0.0
461 1 53.4772968608 63.7442710967 0.0 0.0 0.0 0.0
462 1 56.4651968608 63.5243710967 0.0 0.0 0.0 0.0
463 1 65.3352968608 62.3350710967 0.0 0.0 0.0 0.0
464 1 68.7868968608 64.8720710967 0.0 0.0 0.0 0.0
465 1 73.8877968608 63.1102710967 0.0 0.0 0.0 0.0
466 1 0.0720668608006 67.7769710967 0.0 0.0 0.0 0.0
467 1 4.8790568608 67.7528710967 0.0 0.0 0.0 0.0
468 1 9.9489968608 67.8499710967 0.0 0.0 0.0 0.0
469 1 14.5597968608 67.7774710967 0.0 0.0 0.0 0.0
470 1 21.7961968608 68.1926710967 0.0 0.0 0.0 0.0
471 1 25.6562968608 66.7815710967 0.0 0.0 0.0 0.0
472 1 28.6502968608 67.0551710967 0.0 0.0 0.0 0.0
473 1 34.3557968608 66.8535710967 0.0 0.0 0.0 0.0
474 1 39.9661968608 66.6114710967 0.0 0.0 0.0 0.0
475 1 44.9145968608 66.6230710967 0.0 0.0 0.0 0.0
476 1 49.8617968608 67.3475710967 0.0 0.0 0.0 0.0
477 1 55.3166968608 68.2939710967 0.0 0.0 0.0 0.0
478 1 60.3665968608 67.3780710967 0.0 0.0 0.0 0.0
479 1 68.1005968608 70.4646710967 0.0 0.0 0.0 0.0
480 1 72.4496968608 68.1155710967 0.0 0.0 0.0 0.0
481 1 3.1120868608 72.4275710967 0.0 0.0 0.0 0.0
482 1 8.1474868608 72.2308710967 0.0 0.0 0.0 0.0
483 1 13.1145968608 72.7352710967 0.0 0.0 0.0 0.0
484 1 16.1263968608 72.9648710967 0.0 0.0 0.0 0.0
485 1 22.7906968608 71.0399710967 0.0 0.0 0.0 0.0
486 1 27.8812968608 71.5839710967 0.0 0.0 0.0 0.0
487 1 33.2407968608 69.6593710967 0.0 0.0 0.0 0.0
488 1 38.4884968608 71.5777710967 0.0 0.0 0.0 0.0
489 1 43.7015968608 69.3955710967 0.0 0.0 0.0 0.0
490 1 47.8960968608 72.1868710967 0.0 0.0 0.0 0.0
491 1 52.7291968608 72.0763710967 0.0 0.0 0.0 0.0
492 1 58.3255968608 72.6744710967 0.0 0.0 0.0 0.0
493 1 63.2470968608 70.0330710967 0.0 0.0 0.0 0.0
494 1 70.2725968608 72.5246710967 0.0 0.0 0.0 0.0
495 1 75.3755968608 72.7209710967 0.0 0.0 0.0 0.0
496 1 0.683256860801 77.2684710967 0.0 0.0 0.0 0.0
497 1 5.6472568608 76.9621710967 0.0 0.0 0.0 0.0
498 1 10.5598968608 76.9798710967 0.0 0.0 0.0 0.0
499 1 15.7883968608 77.4323710967 0.0 0.0 0.0 0.0
500 1 20.8997968608 76.1228710967 0.0 0.0 0.0 0.0
501 1 26.1568968608 74.0681710967 0.0 0.0 0.0 0.0
502 1 30.8967968608 76.8333710967 0.0 0.0 0.0 0.0
503 1 33.9287968608 77.0474710967 0.0 0.0 0.0 0.0
504 1 41.2119968608 76.3948710967 0.0 0.0 0.0 0.0
505 1 46.4867968608 76.5850710967 0.0 0.0 0.0 0.0
506 1 52.0221968608 74.9989710967 0.0 0.0 0.0 0.0
507 1 56.9635968608 77.3983710967 0.0 0.0 0.0 0.0
508 1 62.2218968608 76.5072710967 0.0 0.0 0.0 0.0
509 1 67.2696968608 76.5290710967 0.0 0.0 0.0 0.0
510 1 72.5298968608 77.2456710967 0.0 0.0 0.0 0.0
511 1 5.5992368608 79.9697710967 0.0 0.0 0.0 0.0
512 1 10.9026968608 79.9539710967 0.0 0.0 0.0 0.0
513 1 16.2165968608 80.4268710967 0.0 0.0 0.0 0.0
514 1 21.1098968608 79.1529710967 0.0 0.0 0.0 0.0
515 1 26.1123968608 78.9973710967 0.0 0.0 0.0 0.0
516 1 30.6764968608 79.8094710967 0.0 0.0 0.0 0.0
517 1 35.5112968608 79.6467710967 0.0 0.0 0.0 0.0
518 1 40.9900968608 79.4180710967 0.0 0.0 0.0 0.0
519 1 46.6759968608 79.5823710967 0.0 0.0 0.0 0.0
520 1 52.3260968608 79.8732710967 0.0 0.0 0.0 0.0
521 1 57.4955968608 80.3569710967 0.0 0.0 0.0 0.0
522 1 63.9246968608 79.0153710967 0.0 0.0 0.0 0.0
523 1 66.9106968608 79.5017710967 0.0 0.0 0.0 0.0
524 1 72.1858968608 80.2288710967 0.0 0.0 0.0 0.0
525 1 0.454286860801 80.2668710967 0.0 0.0 0.0 0.0
526 1 3.1149668608 81.6654710967 0.0 0.0 0.0 0.0
527 1 8.2569168608 81.3698710967 0.0 0.0 0.0 0.0
528 1 13.4240968608 81.5892710967 0.0 0.0 0.0 0.0
529 1 19.0891968608 81.4003710967 0.0 0.0 0.0 0.0
530 1 23.6678968608 80.7581710967 0.0 0.0 0.0 0.0
531 1 28.0608968608 81.2578710967 0.0 0.0 0.0 0.0
532 1 33.1384968608 81.4931710967 0.0 0.0 0.0 0.0
533 1 38.2955968608 80.8619710967 0.0 0.0 0.0 0.0
534 1 43.8108968608 80.5666710967 0.0 0.0 0.0 0.0
535 1 49.4444968608 80.8266710967 0.0 0.0 0.0 0.0
536 1 54.7710968608 81.6324710967 0.0 0.0 0.0 0.0
537 1 59.8917968608 82.1845710967 0.0 0.0 0.0 0.0
538 1 62.8696968608 81.8123710967 0.0 0.0 0.0 0.0
539 1 69.3630968608 81.2874710967 0.0 0.0 0.0 0.0
540 1 74.8008968608 81.7261710967 0.0 0.0 0.0 0.0
541 2 3.2250068608 0.324127096699 0.0 0.0 0.0 0.0
542 2 4.7549568608 2.3410810967 0.0 0.0 0.0 0.0
543 2 2.0048968608 2.5414810967 0.0 0.0 0.0 0.0
544 2 8.4783368608 0.0115180966988 0.0 0.0 0.0 0.0
545 2 10.3516968608 1.5083310967 0.0 0.0 0.0 0.0
546 2 7.5317968608 2.2501010967 0.0 0.0 0.0 0.0
547 2 12.8111968608 2.4920210967 0.0 0.0 0.0 0.0
548 2 15.1700968608 3.9263710967 0.0 0.0 0.0 0.0
549 2 12.6001968608 4.7933710967 0.0 0.0 0.0 0.0
550 2 20.1111968608 2.5857610967 0.0 0.0 0.0 0.0
551 2 19.8001968608 82.7454710967 0.0 0.0 0.0 0.0
552 2 22.1618968608 1.1371640967 0.0 0.0 0.0 0.0
553 2 23.7661968608 82.2743710967 0.0 0.0 0.0 0.0
554 2 24.6887968608 2.1119810967 0.0 0.0 0.0 0.0
555 2 27.1056968608 2.3236510967 0.0 0.0 0.0 0.0
556 2 29.7836968608 1.2930110967 0.0 0.0 0.0 0.0
557 2 28.0302968608 82.7466710967 0.0 0.0 0.0 0.0
558 2 32.1132968608 2.2203810967 0.0 0.0 0.0 0.0
559 2 34.5297968608 3.1290810967 0.0 0.0 0.0 0.0
560 2 32.4290968608 4.7484010967 0.0 0.0 0.0 0.0
561 2 37.1157968608 2.1683710967 0.0 0.0 0.0 0.0
562 2 39.6868968608 1.3432510967 0.0 0.0 0.0 0.0
563 2 38.1774968608 82.3796710967 0.0 0.0 0.0 0.0
564 2 43.9692968608 82.0643710967 0.0 0.0 0.0 0.0
565 2 45.3263968608 1.5644510967 0.0 0.0 0.0 0.0
566 2 42.5930968608 1.1135150967 0.0 0.0 0.0 0.0
567 2 49.4013968608 82.3378710967 0.0 0.0 0.0 0.0
568 2 50.5932968608 1.8477410967 0.0 0.0 0.0 0.0
569 2 47.9725968608 1.6487210967 0.0 0.0 0.0 0.0
570 2 54.7724968608 0.295885496699 0.0 0.0 0.0 0.0
571 2 55.9241968608 2.7003410967 0.0 0.0 0.0 0.0
572 2 53.2785968608 2.2228910967 0.0 0.0 0.0 0.0
573 2 59.8326968608 0.850727096699 0.0 0.0 0.0 0.0
574 2 61.2079968608 3.0970210967 0.0 0.0 0.0 0.0
575 2 58.5329968608 2.9642810967 0.0 0.0 0.0 0.0
576 2 63.8403968608 0.131319096699 0.0 0.0 0.0 0.0
577 2 65.9780968608 2.0728610967 0.0 0.0 0.0 0.0
578 2 63.6063968608 2.5232310967 0.0 0.0 0.0 0.0
579 2 69.5963968608 82.7797710967 0.0 0.0 0.0 0.0
580 2 71.0661968608 2.3313610967 0.0 0.0 0.0 0.0
581 2 68.5489968608 2.1617310967 0.0 0.0 0.0 0.0
582 2 74.8621968608 0.390636096699 0.0 0.0 0.0 0.0
583 2 73.6016968608 2.6087610967 0.0 0.0 0.0 0.0
584 2 76.2870968608 2.5464410967 0.0 0.0 0.0 0.0
585 2 0.612496860801 4.7235410967 0.0 0.0 0.0 0.0
586 2 1.9797468608 6.8180710967 0.0 0.0 0.0 0.0
587 2 76.2478968608 6.9533410967 0.0 0.0 0.0 0.0
588 2 6.0684368608 4.3965010967 0.0 0.0 0.0 0.0
589 2 7.3967268608 6.4337810967 0.0 0.0 0.0 0.0
590 2 4.6802068608 6.6469510967 0.0 0.0 0.0 0.0
591 2 12.5462968608 7.1158410967 0.0 0.0 0.0 0.0
592 2 10.1626968608 6.3260410967 0.0 0.0 0.0 0.0
593 2 14.9550968608 7.9550710967 0.0 0.0 0.0 0.0
594 2 17.6995968608 8.0779710967 0.0 0.0 0.0 0.0
595 2 16.4722968608 5.9199310967 0.0 0.0 0.0 0.0
596 2 20.5333968608 5.2237810967 0.0 0.0 0.0 0.0
597 2 20.2309968608 7.6369310967 0.0 0.0 0.0 0.0
598 2 22.7131968608 7.0772210967 0.0 0.0 0.0 0.0
599 2 26.2205968608 4.6199610967 0.0 0.0 0.0 0.0
600 2 28.0238968608 6.7916410967 0.0 0.0 0.0 0.0
601 2 25.3763968608 6.9307110967 0.0 0.0 0.0 0.0
602 2 33.6478968608 6.4301410967 0.0 0.0 0.0 0.0