# input file

1350 atoms
2 atom types

0.0 77.8057412946 xlo xhi
0.0 81.7619057279 ylo yhi
-10.0 10.0 zlo zhi
0.0 0.0 0.0 xy xz yz

Masses

1 28.0855 #Si
2 15.9994 #O

Atoms

1 1 2.72355842416 81.7580528639 0.0
2 1 9.42020842416 3.15174286394 0.0
3 1 14.3470084242 1.11572286394 0.0
4 1 18.8952084242 1.25308286394 0.0
5 1 22.8692084242 4.22818286394 0.0
6 1 29.1485084242 1.36361286394 0.0
7 1 34.5221084242 1.37563286394 0.0
8 1 38.7603084242 2.52814286394 0.0
9 1 43.8995084242 2.79574286394 0.0
10 1 49.3661084242 2.42700286394 0.0
11 1 54.9101084242 3.81116286394 0.0
12 1 60.4189084242 2.15130286394 0.0
13 1 67.2015084242 0.240247863937 0.0
14 1 70.1989084242 0.169621863937 0.0
15 1 75.1184084242 0.158501863937 0.0
16 1 0.35722842416 4.35113286394 0.0
17 1 4.89205842416 2.07257286394 0.0
18 1 12.3935084242 6.44192286394 0.0
19 1 18.0093084242 5.89815286394 0.0
20 1 20.9609084242 6.51726286394 0.0
21 1 25.4120084242 5.75864286394 0.0
22 1 31.8896084242 7.99592286394 0.0
23 1 36.8498084242 8.39148286394 0.0
24 1 40.9771084242 9.28464286394 0.0
25 1 46.4926084242 7.07175286394 0.0
26 1 54.1834084242 6.71706286394 0.0
27 1 59.3338084242 6.56576286394 0.0
28 1 64.5633084242 6.25885286394 0.0
29 1 67.4806084242 5.54892286394 0.0
30 1 72.6305084242 4.91563286394 0.0
31 1 4.03579842416 7.62070286394 0.0
32 1 8.69438842416 10.6160528639 0.0
33 1 14.2229084242 11.6752528639 0.0
34 1 19.2383084242 11.4027528639 0.0
35 1 24.7299084242 10.8185528639 0.0
36 1 30.2761084242 10.5515528639 0.0
37 1 35.2274084242 10.9768528639 0.0
38 1 39.2890084242 11.8050528639 0.0
39 1 44.1638084242 11.6897528639 0.0
40 1 48.1015084242 9.65421286394 0.0
41 1 55.7197084242 10.9107528639 0.0
42 1 60.3946084242 11.9667528639 0.0
43 1 65.6552084242 11.6958528639 0.0
44 1 70.6876084242 9.77345286394 0.0
45 1 76.0967084242 8.74620286394 0.0
46 1 1.15975842416 11.9987528639 0.0
47 1 6.62840842416 12.7809528639 0.0
48 1 10.9698084242 15.2283528639 0.0
49 1 17.2374084242 16.2489528639 0.0
50 1 24.2644084242 14.6034528639 0.0
51 1 27.2961084242 14.9051528639 0.0
52 1 32.1361084242 15.4719528639 0.0
53 1 36.1515084242 18.9066528639 0.0
54 1 41.2392084242 16.3907528639 0.0
55 1 48.2432084242 15.2157528639 0.0
56 1 51.0698084242 14.2272528639 0.0
57 1 56.1884084242 15.7909528639 0.0
58 1 62.7989084242 16.2498528639 0.0
59 1 69.1368084242 15.0093528639 0.0
60 1 73.9149084242 13.5184528639 0.0
61 1 2.98870842416 16.4235528639 0.0
62 1 7.31549842416 20.0087528639 0.0
63 1 12.3525084242 17.8994528639 0.0
64 1 20.8683084242 20.4857528639 0.0
65 1 23.8529084242 20.0859528639 0.0
66 1 29.2452084242 20.1122528639 0.0
67 1 34.8015084242 21.6281528639 0.0
68 1 42.9290084242 22.7376528639 0.0
69 1 41.7810084242 19.9945528639 0.0
70 1 48.0231084242 20.6621528639 0.0
71 1 53.3676084242 19.3351528639 0.0
72 1 57.8405084242 18.2866528639 0.0
73 1 64.9419084242 18.3281528639 0.0
74 1 71.7665084242 18.8711528639 0.0
75 1 0.0453694241595 16.9629528639 0.0
76 1 0.18392642416 22.4081528639 0.0
77 1 5.84202842416 22.6010528639 0.0
78 1 10.5249084242 23.1065528639 0.0
79 1 14.0813084242 26.3546528639 0.0
80 1 19.9399084242 25.3462528639 0.0
81 1 25.3362084242 24.3769528639 0.0
82 1 30.8243084242 24.8169528639 0.0
83 1 36.7753084242 26.6215528639 0.0
84 1 41.8122084242 26.4867528639 0.0
85 1 47.2218084242 25.5912528639 0.0
86 1 52.2071084242 23.9321528639 0.0
87 1 57.4665084242 23.3677528639 0.0
88 1 63.1064084242 23.5771528639 0.0
89 1 68.5205084242 23.4226528639 0.0
90 1 73.3746084242 23.8872528639 0.0
91 1 2.90796842416 26.4459528639 0.0
92 1 6.23904842416 29.8590528639 0.0
93 1 13.0707084242 29.2198528639 0.0
94 1 17.2360084242 31.8910528639 0.0
95 1 23.0889084242 29.2905528639 0.0
96 1 27.8815084242 28.8380528639 0.0
97 1 32.0282084242 27.5960528639 0.0
98 1 40.0378084242 31.0652528639 0.0
99 1 45.1999084242 30.2315528639 0.0
100 1 52.1730084242 28.4250528639 0.0
101 1 55.1781084242 28.0942528639 0.0
102 1 60.4635084242 27.5750528639 0.0
103 1 65.7682084242 27.8788528639 0.0
104 1 70.8204084242 28.4638528639 0.0
105 1 0.0361634241595 27.3630528639 0.0
106 1 1.04797842416 31.8021528639 0.0
107 1 4.07561842416 31.9443528639 0.0
108 1 8.61544842416 31.6724528639 0.0
109 1 15.3931084242 34.2055528639 0.0
110 1 19.5981084242 33.6598528639 0.0
111 1 25.6812084242 33.8780528639 0.0
112 1 30.6635084242 33.2347528639 0.0
113 1 34.8699084242 31.8749528639 0.0
114 1 42.0600084242 34.9741528639 0.0
115 1 47.3411084242 34.8167528639 0.0
116 1 52.3539084242 33.3937528639 0.0
117 1 59.6140084242 31.8077528639 0.0
118 1 62.6159084242 32.1571528639 0.0
119 1 67.3064084242 32.7484528639 0.0
120 1 72.3692084242 32.9892528639 0.0
121 1 1.36420842416 37.4333528639 0.0
122 1 7.77447842416 36.4894528639 0.0
123 1 13.2905084242 37.8163528639 0.0
124 1 18.4448084242 38.8871528639 0.0
125 1 23.2601084242 39.9720528639 0.0
126 1 28.5982084242 38.1959528639 0.0
127 1 33.7961084242 37.5174528639 0.0
128 1 38.7240084242 38.4730528639 0.0
129 1 43.1011084242 37.7756528639 0.0
130 1 50.0098084242 38.4889528639 0.0
131 1 54.4042084242 37.7017528639 0.0
132 1 59.0749084242 37.0758528639 0.0
133 1 64.3394084242 37.3957528639 0.0
134 1 69.3826084242 37.5254528639 0.0
135 1 74.2840084242 37.4025528639 0.0
136 1 76.9581084242 42.1021528639 0.0
137 1 3.11412842416 39.8867528639 0.0
138 1 8.00344842416 43.3992528639 0.0
139 1 15.3006084242 42.9980528639 0.0
140 1 22.0821084242 42.7382528639 0.0
141 1 27.2696084242 42.9514528639 0.0
142 1 32.1162084242 42.2552528639 0.0
143 1 36.8377084242 42.5210528639 0.0
144 1 41.6390084242 43.0812528639 0.0
145 1 48.4371084242 43.0175528639 0.0
146 1 51.4373084242 42.8362528639 0.0
147 1 56.3334084242 42.1219528639 0.0
148 1 61.3529084242 41.6387528639 0.0
149 1 65.0968084242 40.3547528639 0.0
150 1 72.1456084242 42.1520528639 0.0
151 1 1.74965842416 45.7328528639 0.0
152 1 6.42687842416 45.9144528639 0.0
153 1 10.3805084242 45.1906528639 0.0
154 1 17.0902084242 45.4437528639 0.0
155 1 23.9152084242 47.2310528639 0.0
156 1 31.4651084242 46.9197528639 0.0
157 1 34.4607084242 47.2501528639 0.0
158 1 39.1967084242 47.6087528639 0.0
159 1 44.7573084242 49.4022528639 0.0
160 1 47.6368084242 48.3939528639 0.0
161 1 55.4965084242 46.7943528639 0.0
162 1 58.4726084242 46.4258528639 0.0
163 1 63.6894084242 46.2339528639 0.0
164 1 69.3717084242 46.0114528639 0.0
165 1 74.8232084242 46.8947528639 0.0
166 1 1.21310842416 50.6885528639 0.0
167 1 4.21065842416 50.6636528639 0.0
168 1 8.93425842416 50.7089528639 0.0
169 1 13.2380084242 48.3376528639 0.0
170 1 19.6389084242 50.5083528639 0.0
171 1 24.8513084242 51.5948528639 0.0
172 1 30.0848084242 51.8809528639 0.0
173 1 36.5401084242 52.3861528639 0.0
174 1 41.6642084242 54.4849528639 0.0
175 1 45.8634084242 54.1415528639 0.0
176 1 51.1975084242 52.1135528639 0.0
177 1 55.6509084242 51.3870528639 0.0
178 1 60.9113084242 50.8221528639 0.0
179 1 64.9947084242 48.9834528639 0.0
180 1 72.2872084242 52.6899528639 0.0
181 1 1.76169842416 56.2291528639 0.0
182 1 7.08442842416 55.5238528639 0.0
183 1 12.1679084242 54.1039528639 0.0
184 1 16.1858084242 56.8473528639 0.0
185 1 21.2348084242 55.2674528639 0.0
186 1 27.7595084242 56.1058528639 0.0
187 1 32.0616084242 54.1166528639 0.0
188 1 38.0928084242 57.4462528639 0.0
189 1 41.9102084242 57.5061528639 0.0
190 1 50.1393084242 56.5863528639 0.0
191 1 54.8671084242 56.4905528639 0.0
192 1 59.1466084242 55.4974528639 0.0
193 1 63.9368084242 54.8044528639 0.0
194 1 71.6480084242 55.6188528639 0.0
195 1 74.5137084242 56.4677528639 0.0
196 1 77.0596084242 60.9771528639 0.0
197 1 4.83955842416 60.2895528639 0.0
198 1 10.0195084242 59.3596528639 0.0
199 1 15.8028084242 59.8389528639 0.0
200 1 21.0527084242 59.6748528639 0.0
201 1 23.1333084242 57.5520528639 0.0
202 1 30.2337084242 59.7063528639 0.0
203 1 34.7147084242 61.0305528639 0.0
204 1 41.2339084242 65.0935528639 0.0
205 1 48.7071084242 60.8002528639 0.0
206 1 51.6648084242 61.1918528639 0.0
207 1 58.3754084242 60.8707528639 0.0
208 1 61.2583084242 59.9349528639 0.0
209 1 65.9333084242 59.9105528639 0.0
210 1 71.1488084242 62.1510528639 0.0
211 1 2.23589842416 64.7978528639 0.0
212 1 7.96926842416 64.4052528639 0.0
213 1 13.0498084242 63.4886528639 0.0
214 1 17.5857084242 66.5695528639 0.0
215 1 23.7480084242 64.2457528639 0.0
216 1 26.7956084242 63.8823528639 0.0
217 1 32.0610084242 66.3737528639 0.0
218 1 36.3733084242 63.5728528639 0.0
219 1 46.3411084242 66.5873528639 0.0
220 1 48.8884084242 65.0768528639 0.0
221 1 53.7437084242 68.2152528639 0.0
222 1 58.7225084242 66.1311528639 0.0
223 1 63.9477084242 64.8421528639 0.0
224 1 69.4797084242 64.6838528639 0.0
225 1 74.5562084242 64.9623528639 0.0
226 1 77.5850084242 69.0710528639 0.0
227 1 3.86925842416 67.3288528639 0.0
228 1 10.7388084242 68.4596528639 0.0
229 1 15.6831084242 68.8857528639 0.0
230 1 20.1986084242 70.2084528639 0.0
231 1 24.9639084242 69.9554528639 0.0
232 1 30.6457084242 69.0231528639 0.0
233 1 36.0841084242 69.2508528639 0.0
234 1 41.0166084242 70.9170528639 0.0
235 1 46.2617084242 71.6209528639 0.0
236 1 51.8821084242 70.6456528639 0.0
237 1 56.9315084242 71.3927528639 0.0
238 1 61.6859084242 69.8597528639 0.0
239 1 66.7551084242 69.0393528639 0.0
240 1 72.1636084242 69.3932528639 0.0
241 1 3.12474842416 73.0445528639 0.0
242 1 8.31890842416 73.0644528639 0.0
243 1 12.8544084242 73.3409528639 0.0
244 1 18.0464084242 75.7886528639 0.0
245 1 22.9242084242 76.3072528639 0.0
246 1 29.7769084242 72.9059528639 0.0
247 1 32.7732084242 73.3624528639 0.0
248 1 38.1876084242 74.6293528639 0.0
249 1 43.3827084242 75.7151528639 0.0
250 1 48.7931084242 75.2032528639 0.0
251 1 54.2399084242 75.6093528639 0.0
252 1 59.3979084242 75.2292528639 0.0
253 1 64.3113084242 74.0286528639 0.0
254 1 69.8326084242 73.4841528639 0.0
255 1 75.4352084242 73.4602528639 0.0
256 1 0.0548904241595 1.36993286394 0.0
257 1 7.60850842416 0.740882863937 0.0
258 1 12.4045084242 3.41900286394 0.0
259 1 16.6074084242 3.18107286394 0.0
260 1 21.8768084242 1.43717286394 0.0
261 1 27.8507084242 4.04650286394 0.0
262 1 31.8323084242 2.66102286394 0.0
263 1 36.0900084242 3.92382286394 0.0
264 1 41.2086084242 4.26748286394 0.0
265 1 46.7243084242 4.02003286394 0.0
266 1 52.4283084242 2.07650286394 0.0
267 1 57.9545084242 3.88519286394 0.0
268 1 63.0658084242 3.64561286394 0.0
269 1 65.9873084242 2.95384286394 0.0
270 1 72.6547084242 1.89978286394 0.0
271 1 3.35900842416 4.68284286394 0.0
272 1 9.37820842416 6.15824286394 0.0
273 1 14.4718084242 8.67569286394 0.0
274 1 17.4924084242 8.87702286394 0.0
275 1 23.5311084242 8.07997286394 0.0
276 1 30.5320084242 5.34585286394 0.0
277 1 34.5290084242 6.51356286394 0.0
278 1 39.4182084242 6.74323286394 0.0
279 1 43.9378084242 8.70111286394 0.0
280 1 53.0883084242 9.49397286394 0.0
281 1 56.8094084242 8.14312286394 0.0
282 1 61.0320084242 9.03853286394 0.0
283 1 64.0200084242 9.18917286394 0.0
284 1 70.2425084242 6.77823286394 0.0
285 1 75.5155084242 5.80223286394 0.0
286 1 1.31683842416 9.00385286394 0.0
287 1 7.04920842416 8.08032286394 0.0
288 1 11.2614084242 12.2308528639 0.0
289 1 16.8260084242 13.2443528639 0.0
290 1 22.1631084242 12.3994528639 0.0
291 1 27.5659084242 11.8939528639 0.0
292 1 32.5855084242 12.4689528639 0.0
293 1 36.7999084242 13.5290528639 0.0
294 1 41.7603084242 13.4614528639 0.0
295 1 47.0239084242 12.4699528639 0.0
296 1 50.6637084242 11.2285528639 0.0
297 1 57.6536084242 13.1852528639 0.0
298 1 63.0999084242 13.2763528639 0.0
299 1 68.6503084242 12.0255528639 0.0
300 1 73.6239084242 10.5142528639 0.0
301 1 3.72915842416 13.5179528639 0.0
302 1 7.98617842416 15.4429528639 0.0
303 1 15.2910084242 18.5608528639 0.0
304 1 19.9178084242 17.6339528639 0.0
305 1 22.8864084242 17.2486528639 0.0
306 1 29.5018084242 17.0371528639 0.0
307 1 35.1100084242 16.0632528639 0.0
308 1 39.1532084242 18.5519528639 0.0
309 1 43.8552084242 17.8425528639 0.0
310 1 46.8611084242 17.8856528639 0.0
311 1 53.2367084242 16.3231528639 0.0
312 1 60.8239084242 18.4907528639 0.0
313 1 67.8724084242 17.7547528639 0.0
314 1 72.0137084242 15.8611528639 0.0
315 1 76.8483084242 14.1330528639 0.0
316 1 76.6791084242 19.7245528639 0.0
317 1 5.78117842416 17.4629528639 0.0
318 1 10.3057084242 20.1088528639 0.0
319 1 15.8845084242 21.5299528639 0.0
320 1 18.7265084242 22.5841528639 0.0
321 1 26.5054084242 21.5416528639 0.0
322 1 31.7394084242 21.9161528639 0.0
323 1 37.1317084242 23.6229528639 0.0
324 1 40.1718084242 23.9641528639 0.0
325 1 45.9546084242 22.8626528639 0.0
326 1 50.9968084242 21.1778528639 0.0
327 1 56.0659084242 20.6936528639 0.0
328 1 62.9730084242 20.5790528639 0.0
329 1 69.2055084242 20.4573528639 0.0
330 1 73.9338084242 20.9284528639 0.0
331 1 2.97660842416 23.4501528639 0.0
332 1 7.96673842416 24.7119528639 0.0
333 1 13.5133084242 23.4130528639 0.0
334 1 17.1135084242 26.4264528639 0.0
335 1 22.8687084242 26.2300528639 0.0
336 1 27.9779084242 25.8286528639 0.0
337 1 34.7500084242 28.8470528639 0.0
338 1 39.3492084242 28.1629528639 0.0
339 1 44.7254084242 27.2705528639 0.0
340 1 50.1902084242 26.1553528639 0.0
341 1 54.9980084242 25.0885528639 0.0
342 1 60.2510084242 24.5695528639 0.0
343 1 65.8495084242 24.8556528639 0.0
344 1 70.7860084242 25.4315528639 0.0
345 1 76.2195084242 24.8356528639 0.0
346 1 76.4017084242 30.0050528639 0.0
347 1 5.88975842416 26.8924528639 0.0
348 1 11.6174084242 31.9155528639 0.0
349 1 16.0637084242 29.1963528639 0.0
350 1 22.1685084242 32.1841528639 0.0
351 1 25.6617084242 30.8480528639 0.0
352 1 30.5350084242 30.2145528639 0.0
353 1 37.6784084242 32.8980528639 0.0
354 1 42.8513084242 32.0913528639 0.0
355 1 47.7220084242 31.8404528639 0.0
356 1 50.6010084242 30.9741528639 0.0
357 1 57.9755084242 29.2716528639 0.0
358 1 63.0389084242 29.1667528639 0.0
359 1 68.0952084242 29.8110528639 0.0
360 1 73.3524084242 30.1386528639 0.0
361 1 0.16678442416 34.6684528639 0.0
362 1 6.47433842416 33.7773528639 0.0
363 1 12.5024084242 34.8436528639 0.0
364 1 17.7585084242 35.9986528639 0.0
365 1 22.9531084242 35.1248528639 0.0
366 1 28.3785084242 35.1937528639 0.0
367 1 33.3844084242 34.5084528639 0.0
368 1 39.1149084242 35.5091528639 0.0
369 1 46.0683084242 37.5445528639 0.0
370 1 50.2468084242 35.5149528639 0.0
371 1 55.0018084242 34.7617528639 0.0
372 1 57.9590084242 34.2991528639 0.0
373 1 64.7227084242 34.3532528639 0.0
374 1 69.7504084242 34.5173528639 0.0
375 1 74.9668084242 34.5006528639 0.0
376 1 76.7106084242 39.1279528639 0.0
377 1 5.91745842416 38.8372528639 0.0
378 1 10.3019084242 38.1451528639 0.0
379 1 15.5642084242 39.9332528639 0.0
380 1 21.2818084242 37.7103528639 0.0
381 1 26.2760084242 40.1104528639 0.0
382 1 31.3919084242 39.3269528639 0.0
383 1 35.9706084242 39.6238528639 0.0
384 1 41.2338084242 40.1108528639 0.0
385 1 47.5318084242 40.1563528639 0.0
386 1 52.5376084242 40.0459528639 0.0
387 1 56.9749084242 39.2008528639 0.0
388 1 61.6157084242 38.6334528639 0.0
389 1 68.0747084242 40.2417528639 0.0
390 1 71.8873084242 39.1629528639 0.0
391 1 2.07575842416 42.7295528639 0.0
392 1 8.41779842416 40.4554528639 0.0
393 1 13.3399084242 45.3012528639 0.0
394 1 20.0445084242 44.9526528639 0.0
395 1 24.6160084242 44.3295528639 0.0
396 1 29.9497084242 44.3140528639 0.0
397 1 34.3926084242 44.2317528639 0.0
398 1 39.0376084242 44.5845528639 0.0
399 1 43.7781084242 45.1696528639 0.0
400 1 46.7670084242 45.5115528639 0.0
401 1 54.1185084242 44.1392528639 0.0
402 1 58.9907084242 43.4777528639 0.0
403 1 63.9283084242 43.1758528639 0.0
404 1 69.2801084242 43.0067528639 0.0
405 1 74.5768084242 43.9065528639 0.0
406 1 77.6022084242 48.0219528639 0.0
407 1 4.03121842416 47.6703528639 0.0
408 1 8.80210842416 47.7207528639 0.0
409 1 16.2249084242 48.3701528639 0.0
410 1 20.9761084242 47.8105528639 0.0
411 1 26.3226084242 48.9908528639 0.0
412 1 29.3208084242 48.9986528639 0.0
413 1 36.6847084242 49.3290528639 0.0
414 1 42.2282084242 47.7450528639 0.0
415 1 43.6170084242 52.1877528639 0.0
416 1 50.5910084242 49.1795528639 0.0
417 1 53.6260084242 49.1292528639 0.0
418 1 61.1207084242 47.8177528639 0.0
419 1 67.9785084242 48.6719528639 0.0
420 1 71.9155084242 47.6040528639 0.0
421 1 0.35508842416 53.5583528639 0.0
422 1 6.56075842416 52.5511528639 0.0
423 1 11.9055084242 51.0801528639 0.0
424 1 16.7574084242 51.3575528639 0.0
425 1 21.9662084242 52.3775528639 0.0
426 1 27.3804084242 53.1617528639 0.0
427 1 34.9156084242 54.9603528639 0.0
428 1 38.6866084242 54.4795528639 0.0
429 1 44.8250084242 56.9482528639 0.0
430 1 48.8367084242 53.9084528639 0.0
431 1 53.7557084242 53.6972528639 0.0
432 1 58.4423084242 52.5508528639 0.0
433 1 63.7624084242 51.7676528639 0.0
434 1 70.5268084242 50.2546528639 0.0
435 1 75.1602084242 53.5418528639 0.0
436 1 77.1102084242 57.9766528639 0.0
437 1 4.60711842416 57.2714528639 0.0
438 1 10.0189084242 56.3038528639 0.0
439 1 15.1943084242 53.9887528639 0.0
440 1 19.1255084242 57.3793528639 0.0
441 1 25.9513084242 58.4653528639 0.0
442 1 30.6661084242 56.7571528639 0.0
443 1 35.1593084242 58.0046528639 0.0
444 1 39.9626084242 59.8051528639 0.0
445 1 47.5628084242 58.0751528639 0.0
446 1 52.5488084242 58.3529528639 0.0
447 1 57.4579084242 57.9910528639 0.0
448 1 61.7839084242 56.9350528639 0.0
449 1 66.0898084242 56.9001528639 0.0
450 1 69.0695084242 57.1340528639 0.0
451 1 2.18935842416 61.7854528639 0.0
452 1 7.68982842416 61.3610528639 0.0
453 1 12.8373084242 60.4938528639 0.0
454 1 18.0818084242 61.8929528639 0.0
455 1 21.0714084242 62.6664528639 0.0
456 1 27.5227084242 60.9820528639 0.0
457 1 31.9189084242 62.1567528639 0.0
458 1 39.2922084242 62.7731528639 0.0
459 1 44.1737084242 64.5017528639 0.0
460 1 46.7219084242 62.9914528639 0.0
461 1 51.7432084242 64.1694528639 0.0
462 1 57.0626084242 63.6236528639 0.0
463 1 63.6094084242 61.8305528639 0.0
464 1 68.9294084242 60.1238528639 0.0
465 1 74.1881084242 61.9914528639 0.0
466 1 77.3345084242 66.0835528639 0.0
467 1 6.86378842416 67.2465528639 0.0
468 1 10.7827084242 65.4525528639 0.0
469 1 15.9979084242 64.0422528639 0.0
470 1 20.5105084242 67.2439528639 0.0
471 1 23.5223084242 67.2616528639 0.0
472 1 29.8236084242 64.3421528639 0.0
473 1 35.1134084242 66.3548528639 0.0
474 1 41.8776084242 68.0451528639 0.0
475 1 44.7142084242 69.0585528639 0.0
476 1 54.5102084242 65.2831528639 0.0
477 1 56.7471084242 68.4149528639 0.0
478 1 61.6540084242 66.8294528639 0.0
479 1 66.7452084242 66.0072528639 0.0
480 1 71.9319084242 66.4116528639 0.0
481 1 2.61112842416 70.0674528639 0.0
482 1 8.16557842416 70.0020528639 0.0
483 1 13.0607084242 70.3370528639 0.0
484 1 17.4260084242 71.3032528639 0.0
485 1 22.6353084242 71.9201528639 0.0
486 1 27.9853084242 70.4626528639 0.0
487 1 33.3125084242 70.4249528639 0.0
488 1 38.0786084242 71.5771528639 0.0
489 1 43.4548084242 72.7187528639 0.0
490 1 49.2370084242 72.1979528639 0.0
491 1 54.1798084242 72.6019528639 0.0
492 1 59.8014084242 72.2350528639 0.0
493 1 64.4589084242 71.0094528639 0.0
494 1 69.3825084242 70.5178528639 0.0
495 1 74.9545084242 70.5051528639 0.0
496 1 0.46710842416 74.4832528639 0.0
497 1 5.72201842416 74.6025528639 0.0
498 1 10.4959084242 75.2140528639 0.0
499 1 15.8091084242 73.8125528639 0.0
500 1 20.7247084242 74.2950528639 0.0
501 1 25.9104084242 76.4772528639 0.0
502 1 28.8123084242 75.7304528639 0.0
503 1 35.2042084242 75.1702528639 0.0
504 1 40.5085084242 76.6579528639 0.0
505 1 46.2062084242 76.8182528639 0.0
506 1 51.4234084242 76.6886528639 0.0
507 1 56.9275084242 76.9950528639 0.0
508 1 62.2295084242 76.2313528639 0.0
509 1 67.1848084242 74.9043528639 0.0
510 1 72.6428084242 74.5815528639 0.0
511 1 5.96547842416 77.6236528639 0.0
512 1 11.0639084242 78.2302528639 0.0
513 1 16.2633084242 78.2572528639 0.0
514 1 21.4312084242 78.8959528639 0.0
515 1 26.3177084242 79.4381528639 0.0
516 1 31.0317084242 77.7677528639 0.0
517 1 35.7492084242 80.4054528639 0.0
518 1 41.1491084242 79.6420528639 0.0
519 1 46.1108084242 79.8482528639 0.0
520 1 51.4077084242 79.6938528639 0.0
521 1 56.8145084242 80.0275528639 0.0
522 1 62.2095084242 79.2493528639 0.0
523 1 67.4880084242 77.8780528639 0.0
524 1 72.9611084242 77.5593528639 0.0
525 1 0.46112842416 77.4924528639 0.0
526 1 3.18020842416 78.7888528639 0.0
527 1 8.32068842416 79.5434528639 0.0
528 1 13.6745084242 79.8632528639 0.0
529 1 18.6588084242 80.0384528639 0.0
530 1 23.6926084242 80.8475528639 0.0
531 1 29.2184084242 80.1449528639 0.0
532 1 34.0377084242 77.9336528639 0.0
533 1 38.6247084242 81.2795528639 0.0
534 1 43.5705084242 81.5082528639 0.0
535 1 48.8021084242 81.2237528639 0.0
536 1 53.9994084242 81.2323528639 0.0
537 1 59.7109084242 80.9734528639 0.0
538 1 65.1763084242 79.7911528639 0.0
539 1 70.3016084242 78.9417528639 0.0
540 1 75.6237084242 78.9514528639 0.0
541 2 2.97865842416 80.2818528639 0.0
542 2 3.82869842416 1.00686286394 0.0
543 2 1.35399842416 0.617543863937 0.0
544 2 10.9261084242 3.14009286394 0.0
545 2 8.55728842416 1.92381286394 0.0
546 2 9.21447842416 4.65327286394 0.0
547 2 13.9921084242 81.3801528639 0.0
548 2 15.4931084242 2.14574286394 0.0
549 2 13.3117084242 2.22737286394 0.0
550 2 18.6786084242 81.5299528639 0.0
551 2 20.3862084242 1.38923286394 0.0
552 2 17.8002084242 2.25501286394 0.0
553 2 22.4339084242 2.81413286394 0.0
554 2 24.2231084242 4.83769286394 0.0
555 2 21.8286084242 5.29415286394 0.0
556 2 29.1891084242 81.6384528639 0.0
557 2 30.5439084242 1.90540286394 0.0
558 2 28.2805084242 2.59964286394 0.0
559 2 35.0546084242 81.7442528639 0.0
560 2 35.3215084242 2.63673286394 0.0
561 2 33.1356084242 1.94751286394 0.0
562 2 38.7168084242 1.02261286394 0.0
563 2 40.0373084242 3.30922286394 0.0
564 2 37.4915084242 3.35314286394 0.0
565 2 43.7150084242 1.27048286394 0.0
566 2 45.3158084242 3.39489286394 0.0
567 2 42.5943084242 3.61939286394 0.0
568 2 50.9200084242 2.37825286394 0.0
569 2 49.0133084242 0.954452863937 0.0
570 2 48.0854084242 3.29299286394 0.0
571 2 53.6541084242 2.98062286394 0.0
572 2 56.4403084242 3.73159286394 0.0
573 2 54.4224084242 5.24360286394 0.0
574 2 60.0992084242 0.676268863937 0.0
575 2 61.7522084242 2.89820286394 0.0
576 2 59.1389084242 2.94652286394 0.0
577 2 66.5939084242 1.60112286394 0.0
578 2 66.1353084242 80.9520528639 0.0
579 2 68.6993084242 0.273231863937 0.0
580 2 70.3462084242 80.4376528639 0.0
581 2 71.3835084242 1.08651286394 0.0
582 2 75.3488084242 80.4320528639 0.0
583 2 76.4847084242 0.784822863937 0.0
584 2 73.8922084242 1.03183286394 0.0
585 2 0.16629742416 2.86132286394 0.0
586 2 1.84581842416 4.58905286394 0.0
587 2 76.8466084242 5.08477286394 0.0
588 2 6.25071842416 1.41727286394 0.0
589 2 4.22492842416 3.43757286394 0.0
590 2 12.6009084242 4.93001286394 0.0
591 2 13.4361084242 7.55190286394 0.0
592 2 10.8683084242 6.48796286394 0.0
593 2 17.7311084242 7.38383286394 0.0
594 2 17.2010084242 4.60258286394 0.0
595 2 19.5091084242 6.16266286394 0.0
596 2 22.1268084242 7.50895286394 0.0
597 2 26.6522084242 4.93160286394 0.0
598 2 24.6214084242 7.02842286394 0.0
599 2 31.1013084242 6.71307286394 0.0
600 2 33.2426084242 7.30586286394 0.0
601 2 31.0451084242 9.24117286394 0.0
602 2 35.6790084242 7.46321286394 0.0
603 2 38.0872084242 7.51173286394 0.0
604 2 36.1038084242 9.73385286394 0.0
605 2 40.2373084242 7.99411286394 0.0
606 2 42.4376084242 8.89581286394 0.0
607 2 40.0383084242 10.4782528639 0.0
608 2 46.6674084242 5.56144286394 0.0
609 2 47.4257084242 8.29469286394 0.0
610 2 45.1316084242 7.77376286394 0.0
611 2 55.5427084242 7.35370286394 0.0
612 2 53.3937084242 8.01264286394 0.0
613 2 58.7261084242 5.19528286394 0.0
614 2 60.3131084242 7.71709286394 0.0
615 2 58.0897084242 7.40735286394 0.0
616 2 64.3231084242 7.72767286394 0.0
617 2 63.6234084242 5.07028286394 0.0
618 2 66.0587084242 6.05750286394 0.0
619 2 66.9067084242 4.14587286394 0.0
620 2 68.8539084242 6.16459286394 0.0
621 2 72.5990084242 3.40242286394 0.0
622 2 74.0750084242 5.36052286394 0.0
623 2 71.4346084242 5.84050286394 0.0
624 2 3.76839842416 6.13159286394 0.0
625 2 5.53574842416 7.91563286394 0.0
626 2 2.68505842416 8.33813286394 0.0
627 2 7.89649842416 9.33714286394 0.0
628 2 10.0462084242 11.3157528639 0.0
629 2 7.60501842416 11.6586528639 0.0
630 2 14.2664084242 10.1699528639 0.0
631 2 15.4877084242 12.5180528639 0.0
632 2 12.7446084242 11.9696528639 0.0
633 2 18.4590084242 10.0665528639 0.0
634 2 20.7019084242 11.9020528639 0.0
635 2 18.0763084242 12.3886528639 0.0
636 2 24.1789084242 9.42306286394 0.0
637 2 26.1590084242 11.3096528639 0.0
638 2 23.4126084242 11.5448528639 0.0
639 2 28.8779084242 11.1318528639 0.0
640 2 31.3859084242 11.5630528639 0.0
641 2 35.9888084242 12.2669528639 0.0
642 2 33.8483084242 11.6241528639 0.0
643 2 40.5092084242 12.6681528639 0.0
644 2 38.0971084242 12.7287528639 0.0
645 2 44.1318084242 10.1984528639 0.0
646 2 45.5495084242 12.2286528639 0.0
647 2 42.9914084242 12.6156528639 0.0
648 2 49.4646084242 10.3225528639 0.0
649 2 47.5212084242 11.0542528639 0.0
650 2 56.6159084242 12.0972528639 0.0
651 2 56.4381084242 9.58783286394 0.0
652 2 54.3233084242 10.3642528639 0.0
653 2 60.5765084242 10.4751528639 0.0
654 2 59.0565084242 12.6535528639 0.0
655 2 61.7382084242 12.6417528639 0.0
656 2 64.9248084242 10.3754528639 0.0
657 2 67.1461084242 11.8346528639 0.0
658 2 64.4357084242 12.5915528639 0.0
659 2 70.4206084242 8.28034286394 0.0
660 2 72.1620084242 10.1149528639 0.0
661 2 69.6540084242 10.8915528639 0.0
662 2 75.7504084242 7.28308286394 0.0
663 2 77.6107084242 8.82163286394 0.0
664 2 74.8790084242 9.65982286394 0.0
665 2 1.26808842416 10.5126528639 0.0
666 2 2.49008842416 12.6879528639 0.0
667 2 0.0459394241595 13.0119528639 0.0
668 2 7.33398842416 14.0981528639 0.0
669 2 5.14778842416 13.0347528639 0.0
670 2 11.1655084242 13.7403528639 0.0
671 2 11.7507084242 16.5151528639 0.0
672 2 9.47830842416 15.4377528639 0.0
673 2 16.9965084242 14.7562528639 0.0
674 2 16.2359084242 17.3836528639 0.0
675 2 18.6144084242 16.8869528639 0.0
676 2 23.6082084242 15.9517528639 0.0
677 2 23.1333084242 13.5902528639 0.0
678 2 25.7714084242 14.7987528639 0.0
679 2 27.5559084242 13.4034528639 0.0
680 2 28.3494084242 16.0121528639 0.0
681 2 32.3053084242 13.9571528639 0.0
682 2 33.6069084242 15.8730528639 0.0
683 2 30.8520084242 16.2953528639 0.0
684 2 35.5993084242 17.4974528639 0.0
685 2 37.6711084242 18.7801528639 0.0
686 2 35.4379084242 20.2391528639 0.0
687 2 41.4645084242 14.9183528639 0.0
688 2 42.6359084242 16.9591528639 0.0
689 2 40.0525084242 17.3182528639 0.0
690 2 47.5836084242 16.5637528639 0.0
691 2 47.5821084242 13.8589528639 0.0
692 2 49.6958084242 14.8417528639 0.0
693 2 50.9087084242 12.7231528639 0.0
694 2 52.1790084242 15.2513528639 0.0
695 2 56.9612084242 14.5083528639 0.0
696 2 57.0499084242 17.0166528639 0.0
697 2 54.7003084242 15.9621528639 0.0
698 2 62.9546084242 14.7690528639 0.0
699 2 63.9735084242 17.1825528639 0.0
700 2 61.6670084242 17.2413528639 0.0
701 2 68.8787084242 13.5229528639 0.0
702 2 70.5927084242 15.3772528639 0.0
703 2 68.4254084242 16.3498528639 0.0
704 2 73.7353084242 12.0236528639 0.0
705 2 75.3819084242 13.8470528639 0.0
706 2 72.9929084242 14.7133528639 0.0
707 2 3.35235842416 14.9673528639 0.0
708 2 4.33553842416 17.0897528639 0.0
709 2 1.54540842416 16.8079528639 0.0
710 2 6.47672842416 18.7787528639 0.0
711 2 8.80826842416 19.9575528639 0.0
712 2 6.52229842416 21.2736528639 0.0
713 2 13.8195084242 18.2149528639 0.0
714 2 11.3419084242 19.0234528639 0.0
715 2 19.8245084242 21.5580528639 0.0
716 2 20.2469084242 19.1098528639 0.0
717 2 22.3825084242 20.5029528639 0.0
718 2 23.5315084242 18.6080528639 0.0
719 2 25.1983084242 20.7494528639 0.0
720 2 29.3633084242 18.5702528639 0.0
721 2 30.5294084242 20.9680528639 0.0
722 2 27.8778084242 20.8432528639 0.0
723 2 35.9599084242 22.6437528639 0.0
724 2 33.2718084242 21.7476528639 0.0
725 2 42.3854084242 21.3444528639 0.0
726 2 41.5414084242 23.3152528639 0.0
727 2 44.4383084242 22.8524528639 0.0
728 2 40.3683084242 19.4624528639 0.0
729 2 42.9201084242 19.0193528639 0.0
730 2 49.5140084242 20.9084528639 0.0
731 2 47.4866084242 19.2511528639 0.0
732 2 46.9709084242 21.7428528639 0.0
733 2 53.2181084242 17.8334528639 0.0
734 2 54.6811084242 20.0857528639 0.0
735 2 52.1309084242 20.1902528639 0.0
736 2 59.3330084242 18.3995528639 0.0
737 2 57.0047084242 19.5203528639 0.0
738 2 66.3953084242 18.0167528639 0.0
739 2 64.1050084242 19.5805528639 0.0
740 2 71.9721084242 17.3745528639 0.0
741 2 72.8812084242 19.8684528639 0.0
742 2 70.5285084242 19.7251528639 0.0
743 2 77.2309084242 18.3300528639 0.0
744 2 77.2783084242 15.5764528639 0.0
745 2 1.62922842416 22.8051528639 0.0
746 2 77.4569084242 21.0124528639 0.0
747 2 77.0855084242 23.6049528639 0.0
748 2 6.89754842416 23.6549528639 0.0
749 2 4.38207842416 22.9307528639 0.0
750 2 10.4341084242 21.6039528639 0.0
751 2 12.0166084242 23.2803528639 0.0
752 2 9.32490842416 24.0365528639 0.0
753 2 13.7238084242 24.9000528639 0.0
754 2 15.6040084242 26.2383528639 0.0
755 2 13.3241084242 27.6818528639 0.0
756 2 19.3706084242 23.9416528639 0.0
757 2 21.3969084242 25.7769528639 0.0
758 2 18.5454084242 25.9726528639 0.0
759 2 25.9016084242 22.9519528639 0.0
760 2 26.6481084242 25.1345528639 0.0
761 2 24.0617084242 25.2524528639 0.0
762 2 31.3133084242 23.3858528639 0.0
763 2 31.5261084242 26.1711528639 0.0
764 2 29.3618084242 25.2232528639 0.0
765 2 36.8314084242 25.1165528639 0.0
766 2 38.0746084242 27.3860528639 0.0
767 2 35.7553084242 27.7274528639 0.0
768 2 40.9612084242 25.2557528639 0.0
769 2 43.2843084242 26.8180528639 0.0
770 2 40.6513084242 27.4307528639 0.0
771 2 46.6344084242 24.2055528639 0.0
772 2 48.6932084242 25.9318528639 0.0
773 2 45.9962084242 26.4727528639 0.0
774 2 51.6108084242 22.5536528639 0.0
775 2 53.6246084242 24.4522528639 0.0
776 2 51.1464084242 24.9961528639 0.0
777 2 56.8001084242 22.0076528639 0.0
778 2 58.8857084242 23.9008528639 0.0
779 2 56.2562084242 24.2700528639 0.0
780 2 63.0681084242 22.0673528639 0.0
781 2 64.4714084242 24.2214528639 0.0
782 2 61.6755084242 24.0611528639 0.0
783 2 68.8336084242 21.9297528639 0.0
784 2 69.6390084242 24.4457528639 0.0
785 2 67.1557084242 24.0877528639 0.0
786 2 73.5918084242 22.3918528639 0.0
787 2 74.7582084242 24.4887528639 0.0