ITEM: TIMESTEP
0
ITEM: NUMBER OF ATOMS
1350
ITEM: BOX BOUNDS xy xz yz pp pp pp
0.0 77.5899593241 0
0.0 81.9105293492 0
-10.0 10.0 0
ITEM: ATOMS id type x y z vx vy vz
1 1 3.90614743889 2.01155467458 0.0 0.0 0.0 0.0
2 1 9.06048743889 2.75195467458 0.0 0.0 0.0 0.0
3 1 14.2587174389 2.42267467458 0.0 0.0 0.0 0.0
4 1 21.2594174389 1.74386467458 0.0 0.0 0.0 0.0
5 1 24.2563174389 1.53810467458 0.0 0.0 0.0 0.0
6 1 29.8055174389 2.20835467458 0.0 0.0 0.0 0.0
7 1 36.9702174389 1.45894467458 0.0 0.0 0.0 0.0
8 1 39.8966174389 0.785354674577 0.0 0.0 0.0 0.0
9 1 44.5271174389 0.629013674577 0.0 0.0 0.0 0.0
10 1 49.6867174389 0.995124674577 0.0 0.0 0.0 0.0
11 1 54.7180174389 0.685369674577 0.0 0.0 0.0 0.0
12 1 59.3247174389 3.26421467458 0.0 0.0 0.0 0.0
13 1 64.6074174389 1.03818467458 0.0 0.0 0.0 0.0
14 1 70.5311174389 0.735474674577 0.0 0.0 0.0 0.0
15 1 75.8957174389 1.34731467458 0.0 0.0 0.0 0.0
16 1 0.714897438889 5.75897467458 0.0 0.0 0.0 0.0
17 1 6.03955743889 6.85565467458 0.0 0.0 0.0 0.0
18 1 13.0766174389 6.79769467458 0.0 0.0 0.0 0.0
19 1 16.0735174389 6.93974467458 0.0 0.0 0.0 0.0
20 1 21.1212174389 7.04972467458 0.0 0.0 0.0 0.0
21 1 25.0232174389 4.50154467458 0.0 0.0 0.0 0.0
22 1 31.6807174389 6.82991467458 0.0 0.0 0.0 0.0
23 1 36.2235174389 6.77757467458 0.0 0.0 0.0 0.0
24 1 41.3600174389 5.54939467458 0.0 0.0 0.0 0.0
25 1 46.5903174389 5.31323467458 0.0 0.0 0.0 0.0
26 1 52.1532174389 5.48359467458 0.0 0.0 0.0 0.0
27 1 57.6686174389 5.78264467458 0.0 0.0 0.0 0.0
28 1 62.8420174389 6.02892467458 0.0 0.0 0.0 0.0
29 1 67.9442174389 4.64274467458 0.0 0.0 0.0 0.0
30 1 73.1365174389 5.38023467458 0.0 0.0 0.0 0.0
31 1 2.17335743889 10.4300646746 0.0 0.0 0.0 0.0
32 1 7.46330743889 11.1854646746 0.0 0.0 0.0 0.0
33 1 13.0479174389 11.9107646746 0.0 0.0 0.0 0.0
34 1 18.3754174389 11.6190646746 0.0 0.0 0.0 0.0
35 1 25.2269174389 10.3035646746 0.0 0.0 0.0 0.0
36 1 28.2540174389 10.6029646746 0.0 0.0 0.0 0.0
37 1 33.2339174389 11.6846646746 0.0 0.0 0.0 0.0
38 1 38.3648174389 10.5503646746 0.0 0.0 0.0 0.0
39 1 43.5094174389 9.88496467458 0.0 0.0 0.0 0.0
40 1 48.7310174389 9.49363467458 0.0 0.0 0.0 0.0
41 1 54.0910174389 9.76842467458 0.0 0.0 0.0 0.0
42 1 59.9085174389 10.4046646746 0.0 0.0 0.0 0.0
43 1 67.2445174389 9.32966467458 0.0 0.0 0.0 0.0
44 1 70.2326174389 9.47139467458 0.0 0.0 0.0 0.0
45 1 75.0835174389 10.0513646746 0.0 0.0 0.0 0.0
46 1 76.4305174389 14.9817646746 0.0 0.0 0.0 0.0
47 1 5.93656743889 14.7873646746 0.0 0.0 0.0 0.0
48 1 8.76868743889 13.8670646746 0.0 0.0 0.0 0.0
49 1 16.0611174389 16.1519646746 0.0 0.0 0.0 0.0
50 1 20.6528174389 16.4398646746 0.0 0.0 0.0 0.0
51 1 25.3013174389 18.5278646746 0.0 0.0 0.0 0.0
52 1 30.5969174389 15.8817646746 0.0 0.0 0.0 0.0
53 1 36.0595174389 15.6445646746 0.0 0.0 0.0 0.0
54 1 40.9849174389 14.7365646746 0.0 0.0 0.0 0.0
55 1 46.0068174389 14.1403646746 0.0 0.0 0.0 0.0
56 1 50.9923174389 13.9421646746 0.0 0.0 0.0 0.0
57 1 55.4031174389 12.4626646746 0.0 0.0 0.0 0.0
58 1 62.2430174389 14.6897646746 0.0 0.0 0.0 0.0
59 1 66.2528174389 17.5244646746 0.0 0.0 0.0 0.0
60 1 73.4911174389 14.3290646746 0.0 0.0 0.0 0.0
61 1 77.5210174389 17.7997646746 0.0 0.0 0.0 0.0
62 1 6.97245743889 20.1638646746 0.0 0.0 0.0 0.0
63 1 12.5942174389 20.0632646746 0.0 0.0 0.0 0.0
64 1 18.9387174389 23.6042646746 0.0 0.0 0.0 0.0
65 1 24.0084174389 21.3099646746 0.0 0.0 0.0 0.0
66 1 28.8527174389 20.8773646746 0.0 0.0 0.0 0.0
67 1 34.2390174389 20.0684646746 0.0 0.0 0.0 0.0
68 1 40.5458174389 19.3559646746 0.0 0.0 0.0 0.0
69 1 43.5393174389 19.0320646746 0.0 0.0 0.0 0.0
70 1 48.3995174389 18.6858646746 0.0 0.0 0.0 0.0
71 1 53.9228174389 17.9799646746 0.0 0.0 0.0 0.0
72 1 58.8699174389 18.6920646746 0.0 0.0 0.0 0.0
73 1 64.1682174389 19.6833646746 0.0 0.0 0.0 0.0
74 1 69.0117174389 20.7607646746 0.0 0.0 0.0 0.0
75 1 73.4890174389 19.6560646746 0.0 0.0 0.0 0.0
76 1 77.1975174389 23.4732646746 0.0 0.0 0.0 0.0
77 1 4.49806743889 24.4870646746 0.0 0.0 0.0 0.0
78 1 9.83841743889 24.1113646746 0.0 0.0 0.0 0.0
79 1 14.4561174389 22.4255646746 0.0 0.0 0.0 0.0
80 1 21.4648174389 26.5988646746 0.0 0.0 0.0 0.0
81 1 26.1578174389 25.8649646746 0.0 0.0 0.0 0.0
82 1 31.3499174389 24.7457646746 0.0 0.0 0.0 0.0
83 1 36.3971174389 24.7445646746 0.0 0.0 0.0 0.0
84 1 41.4195174389 24.8640646746 0.0 0.0 0.0 0.0
85 1 47.1481174389 23.4478646746 0.0 0.0 0.0 0.0
86 1 51.9279174389 22.3620646746 0.0 0.0 0.0 0.0
87 1 55.3593174389 25.6647646746 0.0 0.0 0.0 0.0
88 1 60.7264174389 23.4336646746 0.0 0.0 0.0 0.0
89 1 66.0090174389 24.8080646746 0.0 0.0 0.0 0.0
90 1 72.2539174389 24.9684646746 0.0 0.0 0.0 0.0
91 1 1.93480743889 28.6128646746 0.0 0.0 0.0 0.0
92 1 7.03812743889 28.6432646746 0.0 0.0 0.0 0.0
93 1 12.1973174389 27.9090646746 0.0 0.0 0.0 0.0
94 1 17.4025174389 29.4285646746 0.0 0.0 0.0 0.0
95 1 22.0825174389 29.5693646746 0.0 0.0 0.0 0.0
96 1 28.7971174389 29.6608646746 0.0 0.0 0.0 0.0
97 1 34.1393174389 29.3336646746 0.0 0.0 0.0 0.0
98 1 38.8936174389 29.4313646746 0.0 0.0 0.0 0.0
99 1 43.5935174389 27.0317646746 0.0 0.0 0.0 0.0
100 1 49.3186174389 27.5268646746 0.0 0.0 0.0 0.0
101 1 53.9584174389 28.3489646746 0.0 0.0 0.0 0.0
102 1 58.9381174389 28.1546646746 0.0 0.0 0.0 0.0
103 1 63.6980174389 28.2317646746 0.0 0.0 0.0 0.0
104 1 67.6876174389 27.2840646746 0.0 0.0 0.0 0.0
105 1 75.0040174389 28.6565646746 0.0 0.0 0.0 0.0
106 1 76.5566174389 33.5125646746 0.0 0.0 0.0 0.0
107 1 3.94993743889 33.1736646746 0.0 0.0 0.0 0.0
108 1 9.13700743889 32.7136646746 0.0 0.0 0.0 0.0
109 1 13.9055174389 32.8501646746 0.0 0.0 0.0 0.0
110 1 18.1604174389 32.3732646746 0.0 0.0 0.0 0.0
111 1 25.1619174389 34.1194646746 0.0 0.0 0.0 0.0
112 1 31.1968174389 33.7618646746 0.0 0.0 0.0 0.0
113 1 36.5759174389 34.2013646746 0.0 0.0 0.0 0.0
114 1 40.9179174389 34.1290646746 0.0 0.0 0.0 0.0
115 1 45.3804174389 32.7907646746 0.0 0.0 0.0 0.0
116 1 51.5117174389 32.8566646746 0.0 0.0 0.0 0.0
117 1 58.2389174389 32.3676646746 0.0 0.0 0.0 0.0
118 1 61.1793174389 32.9505646746 0.0 0.0 0.0 0.0
119 1 66.2511174389 32.8589646746 0.0 0.0 0.0 0.0
120 1 71.6100174389 32.8642646746 0.0 0.0 0.0 0.0
121 1 1.30254743889 38.0062646746 0.0 0.0 0.0 0.0
122 1 6.73373743889 37.4363646746 0.0 0.0 0.0 0.0
123 1 11.9622174389 37.5563646746 0.0 0.0 0.0 0.0
124 1 16.0027174389 40.3566646746 0.0 0.0 0.0 0.0
125 1 22.3832174389 38.3545646746 0.0 0.0 0.0 0.0
126 1 26.6311174389 36.7318646746 0.0 0.0 0.0 0.0
127 1 33.6397174389 40.2990646746 0.0 0.0 0.0 0.0
128 1 39.5069174389 39.1281646746 0.0 0.0 0.0 0.0
129 1 45.4351174389 37.6848646746 0.0 0.0 0.0 0.0
130 1 47.1680174389 35.2108646746 0.0 0.0 0.0 0.0
131 1 53.5479174389 37.5329646746 0.0 0.0 0.0 0.0
132 1 58.7795174389 37.3985646746 0.0 0.0 0.0 0.0
133 1 64.0870174389 37.4874646746 0.0 0.0 0.0 0.0
134 1 69.3337174389 37.1618646746 0.0 0.0 0.0 0.0
135 1 73.5731174389 40.1554646746 0.0 0.0 0.0 0.0
136 1 77.2392174389 42.8800646746 0.0 0.0 0.0 0.0
137 1 4.78572743889 41.9205646746 0.0 0.0 0.0 0.0
138 1 9.05046743889 44.3385646746 0.0 0.0 0.0 0.0
139 1 14.6057174389 43.0269646746 0.0 0.0 0.0 0.0
140 1 18.6014174389 41.8792646746 0.0 0.0 0.0 0.0
141 1 25.9531174389 42.2853646746 0.0 0.0 0.0 0.0
142 1 31.6070174389 42.5102646746 0.0 0.0 0.0 0.0
143 1 36.6754174389 42.9689646746 0.0 0.0 0.0 0.0
144 1 41.5346174389 43.9728646746 0.0 0.0 0.0 0.0
145 1 46.1181174389 43.4778646746 0.0 0.0 0.0 0.0
146 1 50.6821174389 41.5754646746 0.0 0.0 0.0 0.0
147 1 56.1039174389 41.8790646746 0.0 0.0 0.0 0.0
148 1 61.4403174389 41.8598646746 0.0 0.0 0.0 0.0
149 1 66.7061174389 41.7800646746 0.0 0.0 0.0 0.0
150 1 72.0641174389 42.7699646746 0.0 0.0 0.0 0.0
151 1 2.39297743889 46.8923646746 0.0 0.0 0.0 0.0
152 1 7.47942743889 46.9067646746 0.0 0.0 0.0 0.0
153 1 12.1194174389 47.6175646746 0.0 0.0 0.0 0.0
154 1 17.4490174389 47.5524646746 0.0 0.0 0.0 0.0
155 1 23.7570174389 46.8269646746 0.0 0.0 0.0 0.0
156 1 29.1750174389 46.3972646746 0.0 0.0 0.0 0.0
157 1 34.8961174389 47.1296646746 0.0 0.0 0.0 0.0
158 1 37.8050174389 47.9210646746 0.0 0.0 0.0 0.0
159 1 42.4883174389 46.8240646746 0.0 0.0 0.0 0.0
160 1 49.6031174389 47.1261646746 0.0 0.0 0.0 0.0
161 1 54.3091174389 45.8413646746 0.0 0.0 0.0 0.0
162 1 58.9865174389 48.3345646746 0.0 0.0 0.0 0.0
163 1 64.3481174389 46.2774646746 0.0 0.0 0.0 0.0
164 1 69.1092174389 48.4518646746 0.0 0.0 0.0 0.0
165 1 74.8928174389 47.3634646746 0.0 0.0 0.0 0.0
166 1 0.726477438889 51.6715646746 0.0 0.0 0.0 0.0
167 1 5.06034743889 51.5151646746 0.0 0.0 0.0 0.0
168 1 9.71041743889 54.2131646746 0.0 0.0 0.0 0.0
169 1 15.0336174389 51.9368646746 0.0 0.0 0.0 0.0
170 1 19.1368174389 50.0567646746 0.0 0.0 0.0 0.0
171 1 27.7179174389 50.7544646746 0.0 0.0 0.0 0.0
172 1 30.4215174389 52.0852646746 0.0 0.0 0.0 0.0
173 1 35.2253174389 52.3810646746 0.0 0.0 0.0 0.0
174 1 41.0743174389 52.1146646746 0.0 0.0 0.0 0.0
175 1 46.4979174389 51.9137646746 0.0 0.0 0.0 0.0
176 1 54.0441174389 50.7417646746 0.0 0.0 0.0 0.0
177 1 57.0781174389 50.6771646746 0.0 0.0 0.0 0.0
178 1 61.8204174389 51.2344646746 0.0 0.0 0.0 0.0
179 1 67.4479174389 50.9661646746 0.0 0.0 0.0 0.0
180 1 72.7508174389 51.4850646746 0.0 0.0 0.0 0.0
181 1 3.25039743889 56.7695646746 0.0 0.0 0.0 0.0
182 1 9.91211743889 57.2034646746 0.0 0.0 0.0 0.0
183 1 12.8723174389 56.7650646746 0.0 0.0 0.0 0.0
184 1 17.8417174389 55.8848646746 0.0 0.0 0.0 0.0
185 1 22.2879174389 55.2555646746 0.0 0.0 0.0 0.0
186 1 26.7473174389 58.5034646746 0.0 0.0 0.0 0.0
187 1 32.5108174389 56.9936646746 0.0 0.0 0.0 0.0
188 1 38.0166174389 56.0725646746 0.0 0.0 0.0 0.0
189 1 42.9687174389 56.4333646746 0.0 0.0 0.0 0.0
190 1 48.9601174389 56.1206646746 0.0 0.0 0.0 0.0
191 1 54.0252174389 55.7913646746 0.0 0.0 0.0 0.0
192 1 58.6654174389 55.7873646746 0.0 0.0 0.0 0.0
193 1 64.2281174389 55.1506646746 0.0 0.0 0.0 0.0
194 1 69.8824174389 55.5773646746 0.0 0.0 0.0 0.0
195 1 75.4568174389 55.6834646746 0.0 0.0 0.0 0.0
196 1 77.2699174389 62.3573646746 0.0 0.0 0.0 0.0
197 1 5.17041743889 62.0856646746 0.0 0.0 0.0 0.0
198 1 9.76401743889 62.3978646746 0.0 0.0 0.0 0.0
199 1 15.1969174389 60.9265646746 0.0 0.0 0.0 0.0
200 1 20.6769174389 60.5707646746 0.0 0.0 0.0 0.0
201 1 25.8587174389 61.3837646746 0.0 0.0 0.0 0.0
202 1 30.4782174389 60.9435646746 0.0 0.0 0.0 0.0
203 1 35.9351174389 60.5596646746 0.0 0.0 0.0 0.0
204 1 40.3818174389 60.9909646746 0.0 0.0 0.0 0.0
205 1 44.0428174389 59.2805646746 0.0 0.0 0.0 0.0
206 1 51.3843174389 60.5108646746 0.0 0.0 0.0 0.0
207 1 56.3475174389 60.8788646746 0.0 0.0 0.0 0.0
208 1 61.7195174389 59.5814646746 0.0 0.0 0.0 0.0
209 1 67.2944174389 59.3172646746 0.0 0.0 0.0 0.0
210 1 72.8502174389 59.7431646746 0.0 0.0 0.0 0.0
211 1 2.30517743889 66.4047646746 0.0 0.0 0.0 0.0
212 1 8.20861743889 69.7161646746 0.0 0.0 0.0 0.0
213 1 14.7599174389 65.1331646746 0.0 0.0 0.0 0.0
214 1 17.7913174389 64.9941646746 0.0 0.0 0.0 0.0
215 1 23.3123174389 65.4805646746 0.0 0.0 0.0 0.0
216 1 30.4290174389 65.2330646746 0.0 0.0 0.0 0.0
217 1 33.4241174389 64.9171646746 0.0 0.0 0.0 0.0
218 1 37.3226174389 68.2314646746 0.0 0.0 0.0 0.0
219 1 43.6337174389 65.2434646746 0.0 0.0 0.0 0.0
220 1 48.3243174389 63.7161646746 0.0 0.0 0.0 0.0
221 1 55.4364174389 63.8561646746 0.0 0.0 0.0 0.0
222 1 60.0337174389 64.3053646746 0.0 0.0 0.0 0.0
223 1 65.2442174389 63.4702646746 0.0 0.0 0.0 0.0
224 1 69.5848174389 65.7814646746 0.0 0.0 0.0 0.0
225 1 75.2334174389 64.5423646746 0.0 0.0 0.0 0.0
226 1 77.2197174389 72.2686646746 0.0 0.0 0.0 0.0
227 1 4.02493743889 68.8566646746 0.0 0.0 0.0 0.0
228 1 11.2972174389 72.2460646746 0.0 0.0 0.0 0.0
229 1 15.2256174389 70.6985646746 0.0 0.0 0.0 0.0
230 1 20.3391174389 69.4758646746 0.0 0.0 0.0 0.0
231 1 25.8076174389 70.2226646746 0.0 0.0 0.0 0.0
232 1 30.7766174389 70.0591646746 0.0 0.0 0.0 0.0
233 1 35.8240174389 70.8614646746 0.0 0.0 0.0 0.0
234 1 40.1988174389 69.1436646746 0.0 0.0 0.0 0.0
235 1 48.1031174389 68.6371646746 0.0 0.0 0.0 0.0
236 1 52.3897174389 70.9798646746 0.0 0.0 0.0 0.0
237 1 57.7512174389 69.0280646746 0.0 0.0 0.0 0.0
238 1 62.7370174389 68.2875646746 0.0 0.0 0.0 0.0
239 1 68.2805174389 68.4685646746 0.0 0.0 0.0 0.0
240 1 72.8885174389 68.8352646746 0.0 0.0 0.0 0.0
241 1 3.07284743889 74.5109646746 0.0 0.0 0.0 0.0
242 1 8.22218743889 75.7517646746 0.0 0.0 0.0 0.0
243 1 13.9332174389 76.4423646746 0.0 0.0 0.0 0.0
244 1 19.6024174389 74.0683646746 0.0 0.0 0.0 0.0
245 1 21.8216174389 72.0742646746 0.0 0.0 0.0 0.0
246 1 29.2526174389 76.6885646746 0.0 0.0 0.0 0.0
247 1 34.0710174389 76.7567646746 0.0 0.0 0.0 0.0
248 1 39.7176174389 74.5693646746 0.0 0.0 0.0 0.0
249 1 45.4014174389 73.2683646746 0.0 0.0 0.0 0.0
250 1 50.9460174389 73.6553646746 0.0 0.0 0.0 0.0
251 1 56.4196174389 73.7839646746 0.0 0.0 0.0 0.0
252 1 62.2339174389 72.7721646746 0.0 0.0 0.0 0.0
253 1 65.2181174389 72.4602646746 0.0 0.0 0.0 0.0
254 1 70.3692174389 73.5160646746 0.0 0.0 0.0 0.0
255 1 75.4032174389 74.6867646746 0.0 0.0 0.0 0.0
256 1 0.978527438889 2.76071467458 0.0 0.0 0.0 0.0
257 1 6.27044743889 3.87023467458 0.0 0.0 0.0 0.0
258 1 11.7639174389 4.09262467458 0.0 0.0 0.0 0.0
259 1 16.8018174389 4.03239467458 0.0 0.0 0.0 0.0
260 1 19.7896174389 4.34946467458 0.0 0.0 0.0 0.0
261 1 28.0212174389 4.67165467458 0.0 0.0 0.0 0.0
262 1 32.2893174389 3.89068467458 0.0 0.0 0.0 0.0
263 1 35.2828174389 3.92982467458 0.0 0.0 0.0 0.0
264 1 42.2416174389 2.64100467458 0.0 0.0 0.0 0.0
265 1 46.9944174389 2.33523467458 0.0 0.0 0.0 0.0
266 1 52.3088174389 2.48447467458 0.0 0.0 0.0 0.0
267 1 57.7434174389 0.720289674577 0.0 0.0 0.0 0.0
268 1 62.3467174389 3.06581467458 0.0 0.0 0.0 0.0
269 1 67.6102174389 1.64169467458 0.0 0.0 0.0 0.0
270 1 73.0636174389 2.38561467458 0.0 0.0 0.0 0.0
271 1 3.11121743889 7.57730467458 0.0 0.0 0.0 0.0
272 1 8.60467743889 8.43409467458 0.0 0.0 0.0 0.0
273 1 11.4825174389 9.32549467458 0.0 0.0 0.0 0.0
274 1 18.5627174389 8.62836467458 0.0 0.0 0.0 0.0
275 1 24.1174174389 7.43301467458 0.0 0.0 0.0 0.0
276 1 28.7950174389 7.61017467458 0.0 0.0 0.0 0.0
277 1 33.9637174389 8.76223467458 0.0 0.0 0.0 0.0
278 1 39.1038174389 7.59947467458 0.0 0.0 0.0 0.0
279 1 44.0315174389 6.92110467458 0.0 0.0 0.0 0.0
280 1 49.3298174389 6.55490467458 0.0 0.0 0.0 0.0
281 1 54.8402174389 6.85434467458 0.0 0.0 0.0 0.0
282 1 60.1753174389 7.42820467458 0.0 0.0 0.0 0.0
283 1 65.7680174389 6.71251467458 0.0 0.0 0.0 0.0
284 1 70.3474174389 6.46572467458 0.0 0.0 0.0 0.0
285 1 75.6052174389 7.08960467458 0.0 0.0 0.0 0.0
286 1 77.2772174389 12.0999646746 0.0 0.0 0.0 0.0
287 1 4.62977743889 12.1195646746 0.0 0.0 0.0 0.0
288 1 11.6636174389 14.5746646746 0.0 0.0 0.0 0.0
289 1 15.7944174389 13.1447646746 0.0 0.0 0.0 0.0
290 1 20.7614174389 13.4331646746 0.0 0.0 0.0 0.0
291 1 23.7334174389 12.9688646746 0.0 0.0 0.0 0.0
292 1 30.4038174389 12.8118646746 0.0 0.0 0.0 0.0
293 1 36.1128174389 12.6130646746 0.0 0.0 0.0 0.0
294 1 41.1244174389 11.7323646746 0.0 0.0 0.0 0.0
295 1 46.2246174389 11.1505646746 0.0 0.0 0.0 0.0
296 1 51.3358174389 10.9612646746 0.0 0.0 0.0 0.0
297 1 58.3417174389 12.9603646746 0.0 0.0 0.0 0.0
298 1 62.5768174389 11.7178646746 0.0 0.0 0.0 0.0
299 1 65.5548174389 11.7834646746 0.0 0.0 0.0 0.0
300 1 72.4572174389 11.5003646746 0.0 0.0 0.0 0.0
301 1 2.66402743889 19.0091646746 0.0 0.0 0.0 0.0
302 1 5.33124743889 17.6879646746 0.0 0.0 0.0 0.0
303 1 13.2271174389 17.1308646746 0.0 0.0 0.0 0.0
304 1 18.2220174389 18.2587646746 0.0 0.0 0.0 0.0
305 1 23.6390174389 16.0049646746 0.0 0.0 0.0 0.0
306 1 28.2917174389 17.9122646746 0.0 0.0 0.0 0.0
307 1 33.4065174389 17.1332646746 0.0 0.0 0.0 0.0
308 1 38.8404174389 16.8496646746 0.0 0.0 0.0 0.0
309 1 43.6867174389 16.0356646746 0.0 0.0 0.0 0.0
310 1 48.5596174389 15.6927646746 0.0 0.0 0.0 0.0
311 1 53.7924174389 14.9887646746 0.0 0.0 0.0 0.0
312 1 59.4518174389 15.7490646746 0.0 0.0 0.0 0.0
313 1 65.2227174389 14.7405646746 0.0 0.0 0.0 0.0
314 1 69.2287174389 17.7840646746 0.0 0.0 0.0 0.0
315 1 72.1079174389 16.9849646746 0.0 0.0 0.0 0.0
316 1 76.3422174389 20.5699646746 0.0 0.0 0.0 0.0
317 1 4.29982743889 21.5101646746 0.0 0.0 0.0 0.0
318 1 9.79841743889 21.1193646746 0.0 0.0 0.0 0.0
319 1 17.2054174389 21.1370646746 0.0 0.0 0.0 0.0
320 1 21.9577174389 23.5915646746 0.0 0.0 0.0 0.0
321 1 26.5707174389 22.8720646746 0.0 0.0 0.0 0.0
322 1 31.7286174389 21.7593646746 0.0 0.0 0.0 0.0
323 1 36.7749174389 21.7717646746 0.0 0.0 0.0 0.0
324 1 39.7835174389 22.2688646746 0.0 0.0 0.0 0.0
325 1 46.0976174389 20.6230646746 0.0 0.0 0.0 0.0
326 1 51.3004174389 19.4381646746 0.0 0.0 0.0 0.0
327 1 56.1608174389 19.9788646746 0.0 0.0 0.0 0.0
328 1 61.2746174389 20.4809646746 0.0 0.0 0.0 0.0
329 1 66.2344174389 21.8408646746 0.0 0.0 0.0 0.0
330 1 71.6904174389 22.0437646746 0.0 0.0 0.0 0.0
331 1 1.72989743889 25.6107646746 0.0 0.0 0.0 0.0
332 1 7.25766743889 25.6544646746 0.0 0.0 0.0 0.0
333 1 12.7310174389 24.9297646746 0.0 0.0 0.0 0.0
334 1 18.4696174389 26.5842646746 0.0 0.0 0.0 0.0
335 1 24.9279174389 28.6341646746 0.0 0.0 0.0 0.0
336 1 29.0378174389 26.6682646746 0.0 0.0 0.0 0.0
337 1 33.8772174389 26.3500646746 0.0 0.0 0.0 0.0
338 1 38.8722174389 26.4393646746 0.0 0.0 0.0 0.0
339 1 46.5258174389 26.3802646746 0.0 0.0 0.0 0.0
340 1 49.9256174389 24.5818646746 0.0 0.0 0.0 0.0
341 1 54.8941174389 22.7020646746 0.0 0.0 0.0 0.0
342 1 58.3347174389 25.2392646746 0.0 0.0 0.0 0.0
343 1 63.0670174389 25.3107646746 0.0 0.0 0.0 0.0
344 1 70.6514174389 27.4819646746 0.0 0.0 0.0 0.0
345 1 75.1525174389 25.6637646746 0.0 0.0 0.0 0.0
346 1 77.2738174389 30.5939646746 0.0 0.0 0.0 0.0
347 1 4.47206743889 30.2086646746 0.0 0.0 0.0 0.0
348 1 9.81231743889 29.7734646746 0.0 0.0 0.0 0.0
349 1 14.4428174389 29.8932646746 0.0 0.0 0.0 0.0
350 1 21.1635174389 32.4870646746 0.0 0.0 0.0 0.0
351 1 26.2975174389 31.3121646746 0.0 0.0 0.0 0.0
352 1 31.5426174389 30.8054646746 0.0 0.0 0.0 0.0
353 1 36.4832174389 31.1993646746 0.0 0.0 0.0 0.0
354 1 41.3211174389 31.1688646746 0.0 0.0 0.0 0.0
355 1 44.0915174389 30.0391646746 0.0 0.0 0.0 0.0
356 1 51.3091174389 29.8150646746 0.0 0.0 0.0 0.0
357 1 56.5215174389 29.9093646746 0.0 0.0 0.0 0.0
358 1 61.3031174389 29.9764646746 0.0 0.0 0.0 0.0
359 1 66.1998174389 29.8653646746 0.0 0.0 0.0 0.0
360 1 72.3103174389 29.9580646746 0.0 0.0 0.0 0.0
361 1 1.56031743889 35.0089646746 0.0 0.0 0.0 0.0
362 1 6.66987743889 34.4321646746 0.0 0.0 0.0 0.0
363 1 11.4680174389 34.5916646746 0.0 0.0 0.0 0.0
364 1 16.2439174389 34.7276646746 0.0 0.0 0.0 0.0
365 1 22.3786174389 35.2803646746 0.0 0.0 0.0 0.0
366 1 29.5678174389 36.2569646746 0.0 0.0 0.0 0.0
367 1 33.7832174389 35.2436646746 0.0 0.0 0.0 0.0
368 1 38.7935174389 36.2131646746 0.0 0.0 0.0 0.0
369 1 43.6614174389 35.2666646746 0.0 0.0 0.0 0.0
370 1 50.1281174389 35.5622646746 0.0 0.0 0.0 0.0
371 1 53.9757174389 34.5682646746 0.0 0.0 0.0 0.0
372 1 56.9374174389 35.0322646746 0.0 0.0 0.0 0.0
373 1 63.7437174389 34.5072646746 0.0 0.0 0.0 0.0
374 1 68.9290174389 34.1943646746 0.0 0.0 0.0 0.0
375 1 73.8583174389 34.8440646746 0.0 0.0 0.0 0.0
376 1 76.5819174389 39.9507646746 0.0 0.0 0.0 0.0
377 1 4.14609743889 38.9887646746 0.0 0.0 0.0 0.0
378 1 9.30251743889 39.0111646746 0.0 0.0 0.0 0.0
379 1 14.9953174389 37.5044646746 0.0 0.0 0.0 0.0
380 1 21.5587174389 41.2963646746 0.0 0.0 0.0 0.0
381 1 25.2163174389 39.3649646746 0.0 0.0 0.0 0.0
382 1 32.1493174389 37.7322646746 0.0 0.0 0.0 0.0
383 1 36.6304174389 39.9991646746 0.0 0.0 0.0 0.0
384 1 41.9058174389 40.9802646746 0.0 0.0 0.0 0.0
385 1 44.9067174389 40.6766646746 0.0 0.0 0.0 0.0
386 1 50.7379174389 38.5393646746 0.0 0.0 0.0 0.0
387 1 56.2039174389 38.9082646746 0.0 0.0 0.0 0.0
388 1 61.4115174389 38.8538646746 0.0 0.0 0.0 0.0
389 1 66.8016174389 38.7812646746 0.0 0.0 0.0 0.0
390 1 72.3262174389 37.4321646746 0.0 0.0 0.0 0.0
391 1 2.48979743889 43.8843646746 0.0 0.0 0.0 0.0
392 1 7.78835743889 41.6234646746 0.0 0.0 0.0 0.0
393 1 12.0423174389 44.6128646746 0.0 0.0 0.0 0.0
394 1 17.2060174389 44.5433646746 0.0 0.0 0.0 0.0
395 1 23.3404174389 43.7893646746 0.0 0.0 0.0 0.0
396 1 28.7456174389 43.4196646746 0.0 0.0 0.0 0.0
397 1 34.0062174389 44.2839646746 0.0 0.0 0.0 0.0
398 1 38.7664174389 45.0843646746 0.0 0.0 0.0 0.0
399 1 45.4527174389 46.4396646746 0.0 0.0 0.0 0.0
400 1 49.0551174389 44.1271646746 0.0 0.0 0.0 0.0
401 1 53.3301174389 43.0059646746 0.0 0.0 0.0 0.0
402 1 58.7698174389 43.2379646746 0.0 0.0 0.0 0.0
403 1 64.0897174389 43.2794646746 0.0 0.0 0.0 0.0
404 1 69.1306174389 43.5515646746 0.0 0.0 0.0 0.0
405 1 74.6196174389 44.3709646746 0.0 0.0 0.0 0.0
406 1 0.00859143888942 48.7273646746 0.0 0.0 0.0 0.0
407 1 4.92529743889 48.5001646746 0.0 0.0 0.0 0.0
408 1 9.51411743889 49.1057646746 0.0 0.0 0.0 0.0
409 1 14.7974174389 48.9493646746 0.0 0.0 0.0 0.0
410 1 22.0691174389 49.3643646746 0.0 0.0 0.0 0.0
411 1 26.5870174389 47.9478646746 0.0 0.0 0.0 0.0
412 1 32.9240174389 50.4527646746 0.0 0.0 0.0 0.0
413 1 31.9334174389 47.6435646746 0.0 0.0 0.0 0.0
414 1 40.5562174389 49.1450646746 0.0 0.0 0.0 0.0
415 1 47.1659174389 48.9287646746 0.0 0.0 0.0 0.0
416 1 52.4346174389 48.1865646746 0.0 0.0 0.0 0.0
417 1 57.3196174389 45.8554646746 0.0 0.0 0.0 0.0
418 1 62.0019174389 48.2229646746 0.0 0.0 0.0 0.0
419 1 67.3696174389 46.0114646746 0.0 0.0 0.0 0.0
420 1 72.1286174389 48.5584646746 0.0 0.0 0.0 0.0
421 1 2.98674743889 53.7120646746 0.0 0.0 0.0 0.0
422 1 8.05074743889 51.7284646746 0.0 0.0 0.0 0.0
423 1 12.6716174389 53.7822646746 0.0 0.0 0.0 0.0
424 1 17.8986174389 52.8390646746 0.0 0.0 0.0 0.0
425 1 22.8289174389 52.2897646746 0.0 0.0 0.0 0.0
426 1 25.7377174389 52.9971646746 0.0 0.0 0.0 0.0
427 1 32.6954174389 54.0233646746 0.0 0.0 0.0 0.0
428 1 38.1860174389 53.0707646746 0.0 0.0 0.0 0.0
429 1 43.8141174389 53.4712646746 0.0 0.0 0.0 0.0
430 1 49.2954174389 53.1430646746 0.0 0.0 0.0 0.0
431 1 52.3530174389 53.2437646746 0.0 0.0 0.0 0.0
432 1 59.2105174389 52.8026646746 0.0 0.0 0.0 0.0
433 1 64.6763174389 52.1796646746 0.0 0.0 0.0 0.0
434 1 69.9667174389 52.5968646746 0.0 0.0 0.0 0.0
435 1 75.4980174389 52.6953646746 0.0 0.0 0.0 0.0
436 1 0.292657438889 57.4611646746 0.0 0.0 0.0 0.0
437 1 5.31531743889 59.0610646746 0.0 0.0 0.0 0.0
438 1 8.28321743889 59.7280646746 0.0 0.0 0.0 0.0
439 1 15.6210174389 57.9418646746 0.0 0.0 0.0 0.0
440 1 20.3487174389 57.5562646746 0.0 0.0 0.0 0.0
441 1 25.2054174389 55.9357646746 0.0 0.0 0.0 0.0
442 1 29.7130174389 58.0658646746 0.0 0.0 0.0 0.0
443 1 35.4462174389 57.6133646746 0.0 0.0 0.0 0.0
444 1 40.3630174389 57.9497646746 0.0 0.0 0.0 0.0
445 1 46.8359174389 58.2223646746 0.0 0.0 0.0 0.0
446 1 51.6055174389 57.5408646746 0.0 0.0 0.0 0.0
447 1 56.3411174389 57.7738646746 0.0 0.0 0.0 0.0
448 1 61.5703174389 56.5857646746 0.0 0.0 0.0 0.0
449 1 66.9839174389 56.3508646746 0.0 0.0 0.0 0.0
450 1 72.6446174389 56.7577646746 0.0 0.0 0.0 0.0
451 1 2.48639743889 63.4127646746 0.0 0.0 0.0 0.0
452 1 7.32951743889 64.2226646746 0.0 0.0 0.0 0.0
453 1 12.8099174389 62.7991646746 0.0 0.0 0.0 0.0
454 1 18.0175174389 62.0001646746 0.0 0.0 0.0 0.0
455 1 23.0497174389 62.4617646746 0.0 0.0 0.0 0.0
456 1 28.3626174389 63.0462646746 0.0 0.0 0.0 0.0
457 1 33.2907174389 61.9331646746 0.0 0.0 0.0 0.0
458 1 37.9535174389 62.7715646746 0.0 0.0 0.0 0.0
459 1 43.1353174389 62.2043646746 0.0 0.0 0.0 0.0
460 1 48.4039174389 60.7510646746 0.0 0.0 0.0 0.0
461 1 51.2988174389 63.4818646746 0.0 0.0 0.0 0.0
462 1 59.3165174389 61.3903646746 0.0 0.0 0.0 0.0
463 1 64.5576174389 60.5622646746 0.0 0.0 0.0 0.0
464 1 69.9742174389 60.6876646746 0.0 0.0 0.0 0.0
465 1 75.8770174389 59.7167646746 0.0 0.0 0.0 0.0
466 1 76.9695174389 66.9739646746 0.0 0.0 0.0 0.0
467 1 6.56440743889 67.1939646746 0.0 0.0 0.0 0.0
468 1 11.1650174389 69.2602646746 0.0 0.0 0.0 0.0
469 1 13.8780174389 68.0079646746 0.0 0.0 0.0 0.0
470 1 20.4450174389 66.4687646746 0.0 0.0 0.0 0.0
471 1 25.8171174389 67.2294646746 0.0 0.0 0.0 0.0
472 1 28.8191174389 67.7450646746 0.0 0.0 0.0 0.0
473 1 36.4031174389 65.3667646746 0.0 0.0 0.0 0.0
474 1 43.1049174389 68.2523646746 0.0 0.0 0.0 0.0
475 1 46.5169174389 66.0820646746 0.0 0.0 0.0 0.0
476 1 53.1020174389 65.8504646746 0.0 0.0 0.0 0.0
477 1 57.5644174389 66.0061646746 0.0 0.0 0.0 0.0
478 1 62.8626174389 65.2961646746 0.0 0.0 0.0 0.0
479 1 68.2304174389 63.1338646746 0.0 0.0 0.0 0.0
480 1 72.5631174389 65.8597646746 0.0 0.0 0.0 0.0
481 1 2.57447743889 71.5424646746 0.0 0.0 0.0 0.0
482 1 8.35202743889 72.7347646746 0.0 0.0 0.0 0.0
483 1 14.0187174389 73.4482646746 0.0 0.0 0.0 0.0
484 1 18.1058174389 71.4718646746 0.0 0.0 0.0 0.0
485 1 24.6479174389 72.9786646746 0.0 0.0 0.0 0.0
486 1 28.3552174389 71.7888646746 0.0 0.0 0.0 0.0
487 1 33.0203174389 72.0751646746 0.0 0.0 0.0 0.0
488 1 38.7034174389 71.7507646746 0.0 0.0 0.0 0.0
489 1 45.4848174389 70.2063646746 0.0 0.0 0.0 0.0
490 1 51.1460174389 68.2248646746 0.0 0.0 0.0 0.0
491 1 55.4232174389 70.9478646746 0.0 0.0 0.0 0.0
492 1 60.5009174389 70.2959646746 0.0 0.0 0.0 0.0
493 1 65.4781174389 69.4852646746 0.0 0.0 0.0 0.0
494 1 70.4384174389 70.5335646746 0.0 0.0 0.0 0.0
495 1 75.7376174389 69.6870646746 0.0 0.0 0.0 0.0
496 1 0.477937438889 76.0643646746 0.0 0.0 0.0 0.0
497 1 5.29360743889 76.5425646746 0.0 0.0 0.0 0.0
498 1 10.9584174389 77.1106646746 0.0 0.0 0.0 0.0
499 1 16.7742174389 77.5156646746 0.0 0.0 0.0 0.0
500 1 19.7814174389 77.0702646746 0.0 0.0 0.0 0.0
501 1 27.1832174389 74.5368646746 0.0 0.0 0.0 0.0
502 1 31.7345174389 74.8640646746 0.0 0.0 0.0 0.0
503 1 37.0294174389 76.0129646746 0.0 0.0 0.0 0.0
504 1 42.7633174389 74.8412646746 0.0 0.0 0.0 0.0
505 1 48.0815174389 74.7715646746 0.0 0.0 0.0 0.0
506 1 53.6587174389 75.0177646746 0.0 0.0 0.0 0.0
507 1 58.9444174389 75.4717646746 0.0 0.0 0.0 0.0
508 1 61.9627174389 75.7655646746 0.0 0.0 0.0 0.0
509 1 67.5055174389 74.4043646746 0.0 0.0 0.0 0.0
510 1 72.5042174389 75.6117646746 0.0 0.0 0.0 0.0
511 1 5.47915743889 81.3560646746 0.0 0.0 0.0 0.0
512 1 11.0556174389 80.1223646746 0.0 0.0 0.0 0.0
513 1 16.7114174389 80.5050646746 0.0 0.0 0.0 0.0
514 1 21.9871174389 79.1771646746 0.0 0.0 0.0 0.0
515 1 27.6883174389 79.3213646746 0.0 0.0 0.0 0.0
516 1 32.7401174389 79.4992646746 0.0 0.0 0.0 0.0
517 1 37.7660174389 78.9060646746 0.0 0.0 0.0 0.0
518 1 42.9435174389 77.8571646746 0.0 0.0 0.0 0.0
519 1 47.8378174389 77.8197646746 0.0 0.0 0.0 0.0
520 1 54.8647174389 77.7673646746 0.0 0.0 0.0 0.0
521 1 57.8370174389 78.2506646746 0.0 0.0 0.0 0.0
522 1 64.2955174389 77.7466646746 0.0 0.0 0.0 0.0
523 1 67.3419174389 77.3974646746 0.0 0.0 0.0 0.0
524 1 72.2725174389 80.1643646746 0.0 0.0 0.0 0.0
525 1 0.527237438889 79.0600646746 0.0 0.0 0.0 0.0
526 1 3.56767743889 79.0311646746 0.0 0.0 0.0 0.0
527 1 8.48557743889 81.7076646746 0.0 0.0 0.0 0.0
528 1 13.8191174389 81.3662646746 0.0 0.0 0.0 0.0
529 1 19.6704174389 81.1178646746 0.0 0.0 0.0 0.0
530 1 24.8065174389 80.4321646746 0.0 0.0 0.0 0.0
531 1 30.1382174389 81.0958646746 0.0 0.0 0.0 0.0
532 1 35.4397174389 80.8007646746 0.0 0.0 0.0 0.0
533 1 40.6264174389 79.7826646746 0.0 0.0 0.0 0.0
534 1 45.3819174389 79.6139646746 0.0 0.0 0.0 0.0
535 1 50.0184174389 79.9136646746 0.0 0.0 0.0 0.0
536 1 53.0184174389 80.1144646746 0.0 0.0 0.0 0.0
537 1 59.8629174389 80.4820646746 0.0 0.0 0.0 0.0
538 1 62.9077174389 80.4372646746 0.0 0.0 0.0 0.0
539 1 70.3878174389 77.7980646746 0.0 0.0 0.0 0.0
540 1 75.3340174389 80.3059646746 0.0 0.0 0.0 0.0
541 2 4.64283743889 0.700509674577 0.0 0.0 0.0 0.0
542 2 5.04135743889 3.00890467458 0.0 0.0 0.0 0.0
543 2 2.42686743889 2.31755467458 0.0 0.0 0.0 0.0
544 2 8.83691743889 1.26419467458 0.0 0.0 0.0 0.0
545 2 10.3889174389 3.47258467458 0.0 0.0 0.0 0.0
546 2 7.68631743889 3.36366467458 0.0 0.0 0.0 0.0
547 2 14.0105174389 0.948704674577 0.0 0.0 0.0 0.0
548 2 15.5944174389 3.12902467458 0.0 0.0 0.0 0.0
549 2 12.9887174389 3.22134467458 0.0 0.0 0.0 0.0
550 2 20.5642174389 3.06881467458 0.0 0.0 0.0 0.0
551 2 20.3834174389 0.528923674577 0.0 0.0 0.0 0.0
552 2 22.7487174389 1.63149467458 0.0 0.0 0.0 0.0
553 2 24.6495174389 0.0532256745765 0.0 0.0 0.0 0.0
554 2 24.6583174389 3.01425467458 0.0 0.0 0.0 0.0
555 2 29.9373174389 0.696662674577 0.0 0.0 0.0 0.0
556 2 31.1263174389 2.95084467458 0.0 0.0 0.0 0.0
557 2 28.8390174389 3.38572467458 0.0 0.0 0.0 0.0
558 2 36.1790174389 2.73009467458 0.0 0.0 0.0 0.0
559 2 36.1085174389 0.230300674577 0.0 0.0 0.0 0.0
560 2 38.4462174389 1.18655467458 0.0 0.0 0.0 0.0
561 2 40.3593174389 81.2649646746 0.0 0.0 0.0 0.0
562 2 41.0238174389 1.75867467458 0.0 0.0 0.0 0.0
563 2 44.9372174389 81.0719646746 0.0 0.0 0.0 0.0
564 2 45.7784174389 1.46746467458 0.0 0.0 0.0 0.0
565 2 43.3896174389 1.64069467458 0.0 0.0 0.0 0.0
566 2 49.7522174389 81.4031646746 0.0 0.0 0.0 0.0
567 2 50.9886174389 1.75472467458 0.0 0.0 0.0 0.0
568 2 48.3508174389 1.68623467458 0.0 0.0 0.0 0.0
569 2 53.5970174389 1.70368467458 0.0 0.0 0.0 0.0
570 2 56.2276174389 0.706099674577 0.0 0.0 0.0 0.0
571 2 53.8867174389 81.3402646746 0.0 0.0 0.0 0.0
572 2 58.4935174389 2.01752467458 0.0 0.0 0.0 0.0
573 2 60.8260174389 3.09056467458 0.0 0.0 0.0 0.0
574 2 58.4260174389 4.47773467458 0.0 0.0 0.0 0.0
575 2 63.8071174389 81.6561646746 0.0 0.0 0.0 0.0
576 2 66.1236174389 1.25455467458 0.0 0.0 0.0 0.0
577 2 63.4881174389 2.07640467458 0.0 0.0 0.0 0.0
578 2 69.0417174389 1.08156467458 0.0 0.0 0.0 0.0
579 2 71.7483174389 1.65317467458 0.0 0.0 0.0 0.0
580 2 71.3483174389 81.3686646746 0.0 0.0 0.0 0.0
581 2 75.6782174389 81.7735646746 0.0 0.0 0.0 0.0
582 2 77.2520174389 2.01833467458 0.0 0.0 0.0 0.0
583 2 74.4911174389 1.89420467458 0.0 0.0 0.0 0.0
584 2 0.837787438889 4.26249467458 0.0 0.0 0.0 0.0
585 2 76.9574174389 6.43566467458 0.0 0.0 0.0 0.0
586 2 1.94365743889 6.62631467458 0.0 0.0 0.0 0.0
587 2 6.15206743889 5.36105467458 0.0 0.0 0.0 0.0
588 2 7.36969743889 7.56752467458 0.0 0.0 0.0 0.0
589 2 4.58334743889 7.26250467458 0.0 0.0 0.0 0.0
590 2 12.3093174389 8.07635467458 0.0 0.0 0.0 0.0
591 2 12.3290174389 5.49014467458 0.0 0.0 0.0 0.0
592 2 14.5708174389 6.96288467458 0.0 0.0 0.0 0.0
593 2 16.4286174389 5.48544467458 0.0 0.0 0.0 0.0
594 2 17.2713174389 7.84865467458 0.0 0.0 0.0 0.0
595 2 20.5080174389 5.66639467458 0.0 0.0 0.0 0.0
596 2 22.5979174389 7.31954467458 0.0 0.0 0.0 0.0
597 2 19.8952174389 7.93210467458 0.0 0.0 0.0 0.0
598 2 26.5269174389 4.54172467458 0.0 0.0 0.0 0.0