ITEM: TIMESTEP
0
ITEM: NUMBER OF ATOMS
1350
ITEM: BOX BOUNDS xy xz yz pp pp pp
0.0 77.333705603 0
0.0 82.2810777939 0
-10.0 10.0 0
ITEM: ATOMS id type x y z vx vy vz
1 1 4.88531057835 0.490642896953 0.0 0.0 0.0 0.0
2 1 7.92710057835 0.478571896953 0.0 0.0 0.0 0.0
3 1 13.1358905783 1.51255889695 0.0 0.0 0.0 0.0
4 1 17.9610905783 1.53197889695 0.0 0.0 0.0 0.0
5 1 23.3756905783 0.576737896953 0.0 0.0 0.0 0.0
6 1 30.0218905783 1.03752889695 0.0 0.0 0.0 0.0
7 1 33.0283905783 1.30201889695 0.0 0.0 0.0 0.0
8 1 38.0874905783 2.52684889695 0.0 0.0 0.0 0.0
9 1 43.9634905783 2.66320889695 0.0 0.0 0.0 0.0
10 1 49.2701905783 1.87272889695 0.0 0.0 0.0 0.0
11 1 54.5313905783 1.29487889695 0.0 0.0 0.0 0.0
12 1 59.3293905783 1.93085889695 0.0 0.0 0.0 0.0
13 1 63.8709905783 1.31872889695 0.0 0.0 0.0 0.0
14 1 68.9305905783 0.779899896953 0.0 0.0 0.0 0.0
15 1 74.6565905783 1.13279889695 0.0 0.0 0.0 0.0
16 1 76.8816905783 5.61923889695 0.0 0.0 0.0 0.0
17 1 4.08385057835 5.62150889695 0.0 0.0 0.0 0.0
18 1 9.56889057835 5.44160889695 0.0 0.0 0.0 0.0
19 1 15.9181905783 6.33930889695 0.0 0.0 0.0 0.0
20 1 20.6802905783 5.26887889695 0.0 0.0 0.0 0.0
21 1 24.6566905783 7.83151889695 0.0 0.0 0.0 0.0
22 1 29.9631905783 6.20781889695 0.0 0.0 0.0 0.0
23 1 35.5024905783 6.39996889695 0.0 0.0 0.0 0.0
24 1 39.6012905783 5.12908889695 0.0 0.0 0.0 0.0
25 1 46.7979905783 6.57380889695 0.0 0.0 0.0 0.0
26 1 51.9846905783 5.99312889695 0.0 0.0 0.0 0.0
27 1 57.1685905783 6.27448889695 0.0 0.0 0.0 0.0
28 1 61.4421905783 8.67746889695 0.0 0.0 0.0 0.0
29 1 66.3497905783 5.69804889695 0.0 0.0 0.0 0.0
30 1 71.4363905783 4.90118889695 0.0 0.0 0.0 0.0
31 1 1.12610057835 10.531638897 0.0 0.0 0.0 0.0
32 1 6.70910057835 9.81633889695 0.0 0.0 0.0 0.0
33 1 11.2878905783 7.93989889695 0.0 0.0 0.0 0.0
34 1 18.5526905783 10.558238897 0.0 0.0 0.0 0.0
35 1 23.5587905783 10.616538897 0.0 0.0 0.0 0.0
36 1 28.1359905783 13.380338897 0.0 0.0 0.0 0.0
37 1 33.9806905783 10.250938897 0.0 0.0 0.0 0.0
38 1 39.5248905783 10.546938897 0.0 0.0 0.0 0.0
39 1 44.0965905783 10.960938897 0.0 0.0 0.0 0.0
40 1 49.1857905783 10.733238897 0.0 0.0 0.0 0.0
41 1 54.4384905783 10.611738897 0.0 0.0 0.0 0.0
42 1 59.6762905783 11.117538897 0.0 0.0 0.0 0.0
43 1 64.5371905783 11.001538897 0.0 0.0 0.0 0.0
44 1 70.4248905783 9.55545889695 0.0 0.0 0.0 0.0
45 1 73.4120905783 9.37364889695 0.0 0.0 0.0 0.0
46 1 75.3929905783 14.416938897 0.0 0.0 0.0 0.0
47 1 2.51308057835 13.205038897 0.0 0.0 0.0 0.0
48 1 9.71759057835 13.465038897 0.0 0.0 0.0 0.0
49 1 14.8642905783 14.401138897 0.0 0.0 0.0 0.0
50 1 21.5239905783 15.267538897 0.0 0.0 0.0 0.0
51 1 26.5629905783 15.900938897 0.0 0.0 0.0 0.0
52 1 30.7830905783 14.733338897 0.0 0.0 0.0 0.0
53 1 37.0689905783 17.236438897 0.0 0.0 0.0 0.0
54 1 42.3177905783 15.744838897 0.0 0.0 0.0 0.0
55 1 47.3806905783 15.398938897 0.0 0.0 0.0 0.0
56 1 52.2617905783 15.073738897 0.0 0.0 0.0 0.0
57 1 56.2297905783 17.657138897 0.0 0.0 0.0 0.0
58 1 61.4803905783 15.744438897 0.0 0.0 0.0 0.0
59 1 66.2297905783 15.789838897 0.0 0.0 0.0 0.0
60 1 70.7908905783 15.332138897 0.0 0.0 0.0 0.0
61 1 1.87953057835 20.668738897 0.0 0.0 0.0 0.0
62 1 7.11979057835 18.084738897 0.0 0.0 0.0 0.0
63 1 12.3203905783 19.912838897 0.0 0.0 0.0 0.0
64 1 16.6561905783 16.846838897 0.0 0.0 0.0 0.0
65 1 24.3528905783 20.158538897 0.0 0.0 0.0 0.0
66 1 29.4611905783 20.217138897 0.0 0.0 0.0 0.0
67 1 35.1662905783 19.570238897 0.0 0.0 0.0 0.0
68 1 39.7387905783 20.757438897 0.0 0.0 0.0 0.0
69 1 46.7480905783 19.743538897 0.0 0.0 0.0 0.0
70 1 49.7925905783 20.026138897 0.0 0.0 0.0 0.0
71 1 54.7867905783 20.281838897 0.0 0.0 0.0 0.0
72 1 60.1438905783 20.548338897 0.0 0.0 0.0 0.0
73 1 64.9324905783 20.364538897 0.0 0.0 0.0 0.0
74 1 69.7405905783 22.741138897 0.0 0.0 0.0 0.0
75 1 74.2903905783 19.585338897 0.0 0.0 0.0 0.0
76 1 1.33908057835 23.652438897 0.0 0.0 0.0 0.0
77 1 6.58602057835 25.123238897 0.0 0.0 0.0 0.0
78 1 11.8875905783 22.875438897 0.0 0.0 0.0 0.0
79 1 16.9267905783 22.094238897 0.0 0.0 0.0 0.0
80 1 21.6752905783 25.122538897 0.0 0.0 0.0 0.0
81 1 28.8671905783 24.194638897 0.0 0.0 0.0 0.0
82 1 31.8909905783 23.734138897 0.0 0.0 0.0 0.0
83 1 36.0265905783 26.990838897 0.0 0.0 0.0 0.0
84 1 41.2405905783 25.174238897 0.0 0.0 0.0 0.0
85 1 46.6006905783 25.141238897 0.0 0.0 0.0 0.0
86 1 53.9815905783 24.440738897 0.0 0.0 0.0 0.0
87 1 57.0118905783 24.706138897 0.0 0.0 0.0 0.0
88 1 62.5461905783 25.243438897 0.0 0.0 0.0 0.0
89 1 68.2536905783 25.371538897 0.0 0.0 0.0 0.0
90 1 73.5272905783 25.094038897 0.0 0.0 0.0 0.0
91 1 6.66949057835 28.114438897 0.0 0.0 0.0 0.0
92 1 9.63359057835 27.753038897 0.0 0.0 0.0 0.0
93 1 14.5793905783 27.043538897 0.0 0.0 0.0 0.0
94 1 19.6814905783 27.376138897 0.0 0.0 0.0 0.0
95 1 24.0387905783 29.246938897 0.0 0.0 0.0 0.0
96 1 28.4203905783 29.752338897 0.0 0.0 0.0 0.0
97 1 34.2358905783 29.412638897 0.0 0.0 0.0 0.0
98 1 40.7680905783 29.680238897 0.0 0.0 0.0 0.0
99 1 43.7545905783 29.481538897 0.0 0.0 0.0 0.0
100 1 48.4342905783 27.553938897 0.0 0.0 0.0 0.0
101 1 56.3116905783 29.396938897 0.0 0.0 0.0 0.0
102 1 59.3387905783 29.180438897 0.0 0.0 0.0 0.0
103 1 64.6014905783 29.286438897 0.0 0.0 0.0 0.0
104 1 70.1934905783 29.640438897 0.0 0.0 0.0 0.0
105 1 76.3143905783 28.866638897 0.0 0.0 0.0 0.0
106 1 1.12351057835 33.079438897 0.0 0.0 0.0 0.0
107 1 5.80834057835 33.170938897 0.0 0.0 0.0 0.0
108 1 13.2957905783 31.854938897 0.0 0.0 0.0 0.0
109 1 16.2876905783 31.676838897 0.0 0.0 0.0 0.0
110 1 20.7213905783 32.921838897 0.0 0.0 0.0 0.0
111 1 22.8093905783 36.459138897 0.0 0.0 0.0 0.0
112 1 32.5364905783 33.239938897 0.0 0.0 0.0 0.0
113 1 35.3049905783 34.434138897 0.0 0.0 0.0 0.0
114 1 39.9297905783 35.153538897 0.0 0.0 0.0 0.0
115 1 47.4419905783 32.925238897 0.0 0.0 0.0 0.0
116 1 50.2929905783 33.876238897 0.0 0.0 0.0 0.0
117 1 56.4606905783 34.924738897 0.0 0.0 0.0 0.0
118 1 62.2278905783 33.776738897 0.0 0.0 0.0 0.0
119 1 67.4777905783 33.553638897 0.0 0.0 0.0 0.0
120 1 71.7659905783 32.208938897 0.0 0.0 0.0 0.0
121 1 1.66600057835 37.414838897 0.0 0.0 0.0 0.0
122 1 9.01989057835 37.510938897 0.0 0.0 0.0 0.0
123 1 12.0005905783 37.138938897 0.0 0.0 0.0 0.0
124 1 17.3343905783 37.098038897 0.0 0.0 0.0 0.0
125 1 25.6954905783 37.281738897 0.0 0.0 0.0 0.0
126 1 30.2988905783 39.424438897 0.0 0.0 0.0 0.0
127 1 33.1487905783 38.600238897 0.0 0.0 0.0 0.0
128 1 37.5945905783 39.687538897 0.0 0.0 0.0 0.0
129 1 43.1931905783 39.246638897 0.0 0.0 0.0 0.0
130 1 47.5189905783 37.451438897 0.0 0.0 0.0 0.0
131 1 52.3758905783 39.189538897 0.0 0.0 0.0 0.0
132 1 59.7060905783 38.080538897 0.0 0.0 0.0 0.0
133 1 66.7978905783 37.587838897 0.0 0.0 0.0 0.0
134 1 69.8323905783 37.822938897 0.0 0.0 0.0 0.0
135 1 75.9856905783 37.343538897 0.0 0.0 0.0 0.0
136 1 76.1192905783 42.802638897 0.0 0.0 0.0 0.0
137 1 3.54240057835 42.581638897 0.0 0.0 0.0 0.0
138 1 8.72125057835 44.423938897 0.0 0.0 0.0 0.0
139 1 13.9561905783 41.499938897 0.0 0.0 0.0 0.0
140 1 19.5261905783 41.000238897 0.0 0.0 0.0 0.0
141 1 24.6539905783 43.015538897 0.0 0.0 0.0 0.0
142 1 29.8616905783 45.969038897 0.0 0.0 0.0 0.0
143 1 35.3702905783 44.041038897 0.0 0.0 0.0 0.0
144 1 39.1056905783 42.294038897 0.0 0.0 0.0 0.0
145 1 46.5456905783 43.016338897 0.0 0.0 0.0 0.0
146 1 51.5120905783 42.118938897 0.0 0.0 0.0 0.0
147 1 56.5590905783 42.564238897 0.0 0.0 0.0 0.0
148 1 61.7976905783 42.815438897 0.0 0.0 0.0 0.0
149 1 66.3434905783 45.610638897 0.0 0.0 0.0 0.0
150 1 71.3653905783 43.317438897 0.0 0.0 0.0 0.0
151 1 2.30801057835 47.411938897 0.0 0.0 0.0 0.0
152 1 7.33675057835 47.126538897 0.0 0.0 0.0 0.0
153 1 12.0198905783 46.413538897 0.0 0.0 0.0 0.0
154 1 17.0495905783 45.391138897 0.0 0.0 0.0 0.0
155 1 22.2162905783 46.053538897 0.0 0.0 0.0 0.0
156 1 27.6977905783 48.018138897 0.0 0.0 0.0 0.0
157 1 33.6189905783 48.602838897 0.0 0.0 0.0 0.0
158 1 40.1068905783 47.572038897 0.0 0.0 0.0 0.0
159 1 43.1411905783 47.330138897 0.0 0.0 0.0 0.0
160 1 48.4377905783 47.120838897 0.0 0.0 0.0 0.0
161 1 53.5508905783 46.954738897 0.0 0.0 0.0 0.0
162 1 58.8841905783 47.132038897 0.0 0.0 0.0 0.0
163 1 64.6204905783 48.082938897 0.0 0.0 0.0 0.0
164 1 69.9390905783 48.543238897 0.0 0.0 0.0 0.0
165 1 74.9971905783 47.737738897 0.0 0.0 0.0 0.0
166 1 0.54072057835 52.510238897 0.0 0.0 0.0 0.0
167 1 4.96356057835 52.024538897 0.0 0.0 0.0 0.0
168 1 9.77149057835 51.594938897 0.0 0.0 0.0 0.0
169 1 14.4195905783 50.369738897 0.0 0.0 0.0 0.0
170 1 19.5842905783 50.155638897 0.0 0.0 0.0 0.0
171 1 24.5372905783 50.712738897 0.0 0.0 0.0 0.0
172 1 28.5833905783 50.856038897 0.0 0.0 0.0 0.0
173 1 35.0639905783 53.145338897 0.0 0.0 0.0 0.0
174 1 41.3590905783 55.145038897 0.0 0.0 0.0 0.0
175 1 46.1344905783 51.748938897 0.0 0.0 0.0 0.0
176 1 51.1124905783 51.653438897 0.0 0.0 0.0 0.0
177 1 55.9451905783 51.436538897 0.0 0.0 0.0 0.0
178 1 61.1153905783 51.303038897 0.0 0.0 0.0 0.0
179 1 65.5854905783 50.935838897 0.0 0.0 0.0 0.0
180 1 72.7891905783 52.679338897 0.0 0.0 0.0 0.0
181 1 3.19193057835 57.395938897 0.0 0.0 0.0 0.0
182 1 8.54226057835 56.448138897 0.0 0.0 0.0 0.0
183 1 13.4730905783 55.552638897 0.0 0.0 0.0 0.0
184 1 17.6790905783 54.647238897 0.0 0.0 0.0 0.0
185 1 22.5892905783 54.968938897 0.0 0.0 0.0 0.0
186 1 27.0805905783 55.918138897 0.0 0.0 0.0 0.0
187 1 32.0542905783 56.677238897 0.0 0.0 0.0 0.0
188 1 36.7616905783 55.600238897 0.0 0.0 0.0 0.0
189 1 44.6015905783 56.948338897 0.0 0.0 0.0 0.0
190 1 49.3758905783 56.353038897 0.0 0.0 0.0 0.0
191 1 54.0448905783 56.318938897 0.0 0.0 0.0 0.0
192 1 59.3020905783 55.781038897 0.0 0.0 0.0 0.0
193 1 64.0127905783 58.303938897 0.0 0.0 0.0 0.0
194 1 69.6427905783 56.854538897 0.0 0.0 0.0 0.0
195 1 75.1125905783 57.198338897 0.0 0.0 0.0 0.0
196 1 0.10302057835 61.649538897 0.0 0.0 0.0 0.0
197 1 5.17109057835 59.750638897 0.0 0.0 0.0 0.0
198 1 10.9807905783 60.562138897 0.0 0.0 0.0 0.0
199 1 20.4081905783 61.116838897 0.0 0.0 0.0 0.0
200 1 18.3587905783 58.947138897 0.0 0.0 0.0 0.0
201 1 25.5941905783 61.873138897 0.0 0.0 0.0 0.0
202 1 31.0591905783 62.136138897 0.0 0.0 0.0 0.0
203 1 35.8749905783 62.890638897 0.0 0.0 0.0 0.0
204 1 41.2604905783 61.068838897 0.0 0.0 0.0 0.0
205 1 46.5536905783 61.343438897 0.0 0.0 0.0 0.0
206 1 51.5834905783 61.283438897 0.0 0.0 0.0 0.0
207 1 57.0204905783 60.467638897 0.0 0.0 0.0 0.0
208 1 62.4053905783 60.852138897 0.0 0.0 0.0 0.0
209 1 67.0056905783 61.380538897 0.0 0.0 0.0 0.0
210 1 72.2648905783 61.337238897 0.0 0.0 0.0 0.0
211 1 2.67516057835 66.446538897 0.0 0.0 0.0 0.0
212 1 7.31374057835 65.195638897 0.0 0.0 0.0 0.0
213 1 12.4604905783 65.495538897 0.0 0.0 0.0 0.0
214 1 16.0469905783 63.779438897 0.0 0.0 0.0 0.0
215 1 24.3554905783 64.615038897 0.0 0.0 0.0 0.0
216 1 29.8061905783 64.881538897 0.0 0.0 0.0 0.0
217 1 34.4899905783 65.565938897 0.0 0.0 0.0 0.0
218 1 39.5391905783 65.878138897 0.0 0.0 0.0 0.0
219 1 44.2793905783 65.635038897 0.0 0.0 0.0 0.0
220 1 48.3321905783 68.291338897 0.0 0.0 0.0 0.0
221 1 55.9992905783 64.710438897 0.0 0.0 0.0 0.0
222 1 59.0058905783 64.939938897 0.0 0.0 0.0 0.0
223 1 63.7160905783 65.930738897 0.0 0.0 0.0 0.0
224 1 68.8944905783 65.720238897 0.0 0.0 0.0 0.0
225 1 74.2952905783 66.012238897 0.0 0.0 0.0 0.0
226 1 75.4678905783 68.786938897 0.0 0.0 0.0 0.0
227 1 5.29027057835 70.545638897 0.0 0.0 0.0 0.0
228 1 10.9859905783 69.728538897 0.0 0.0 0.0 0.0
229 1 16.3235905783 69.480838897 0.0 0.0 0.0 0.0
230 1 21.0207905783 68.575238897 0.0 0.0 0.0 0.0
231 1 26.3343905783 68.945438897 0.0 0.0 0.0 0.0
232 1 30.8934905783 69.918438897 0.0 0.0 0.0 0.0
233 1 36.1285905783 70.216538897 0.0 0.0 0.0 0.0
234 1 41.1567905783 70.566338897 0.0 0.0 0.0 0.0
235 1 46.3186905783 70.575038897 0.0 0.0 0.0 0.0
236 1 52.8590905783 70.500238897 0.0 0.0 0.0 0.0
237 1 55.7424905783 69.768938897 0.0 0.0 0.0 0.0
238 1 60.6552905783 70.235538897 0.0 0.0 0.0 0.0
239 1 66.6524905783 70.333038897 0.0 0.0 0.0 0.0
240 1 71.8019905783 70.129638897 0.0 0.0 0.0 0.0
241 1 2.31913057835 74.613138897 0.0 0.0 0.0 0.0
242 1 6.83858057835 73.103938897 0.0 0.0 0.0 0.0
243 1 14.0983905783 73.999538897 0.0 0.0 0.0 0.0
244 1 20.4105905783 73.546738897 0.0 0.0 0.0 0.0
245 1 23.4119905783 73.123938897 0.0 0.0 0.0 0.0
246 1 27.8732905783 76.330638897 0.0 0.0 0.0 0.0
247 1 33.5296905783 74.524538897 0.0 0.0 0.0 0.0
248 1 37.9885905783 77.055238897 0.0 0.0 0.0 0.0
249 1 43.2012905783 75.155738897 0.0 0.0 0.0 0.0
250 1 47.9804905783 75.876838897 0.0 0.0 0.0 0.0
251 1 53.1377905783 75.180938897 0.0 0.0 0.0 0.0
252 1 58.5189905783 74.723838897 0.0 0.0 0.0 0.0
253 1 62.2048905783 72.825138897 0.0 0.0 0.0 0.0
254 1 69.7706905783 74.685138897 0.0 0.0 0.0 0.0
255 1 74.7630905783 74.604538897 0.0 0.0 0.0 0.0
256 1 77.2853905783 2.64453889695 0.0 0.0 0.0 0.0
257 1 2.96964057835 2.81493889695 0.0 0.0 0.0 0.0
258 1 10.2351905783 2.46594889695 0.0 0.0 0.0 0.0
259 1 15.5389905783 3.33930889695 0.0 0.0 0.0 0.0
260 1 20.8611905783 2.26783889695 0.0 0.0 0.0 0.0
261 1 25.5354905783 2.69049889695 0.0 0.0 0.0 0.0
262 1 28.4323905783 3.58468889695 0.0 0.0 0.0 0.0
263 1 35.2101905783 3.39346889695 0.0 0.0 0.0 0.0
264 1 42.5879905783 5.34109889695 0.0 0.0 0.0 0.0
265 1 46.8119905783 3.57878889695 0.0 0.0 0.0 0.0
266 1 52.0495905783 2.98430889695 0.0 0.0 0.0 0.0
267 1 56.6962905783 3.33673889695 0.0 0.0 0.0 0.0
268 1 61.8435905783 3.53031889695 0.0 0.0 0.0 0.0
269 1 66.5622905783 2.66817889695 0.0 0.0 0.0 0.0
270 1 71.7301905783 1.91526889695 0.0 0.0 0.0 0.0
271 1 1.81309057835 7.59463889695 0.0 0.0 0.0 0.0
272 1 6.85536057835 6.79641889695 0.0 0.0 0.0 0.0
273 1 14.1810905783 8.80477889695 0.0 0.0 0.0 0.0
274 1 18.6821905783 7.53230889695 0.0 0.0 0.0 0.0
275 1 23.6591905783 5.03347889695 0.0 0.0 0.0 0.0
276 1 27.6387905783 8.11322889695 0.0 0.0 0.0 0.0
277 1 32.7052905783 7.52097889695 0.0 0.0 0.0 0.0
278 1 38.2086905783 7.79376889695 0.0 0.0 0.0 0.0
279 1 44.1235905783 7.93667889695 0.0 0.0 0.0 0.0
280 1 49.5463905783 7.75459889695 0.0 0.0 0.0 0.0
281 1 54.5020905783 7.62415889695 0.0 0.0 0.0 0.0
282 1 60.1517905783 6.00145889695 0.0 0.0 0.0 0.0
283 1 64.3816905783 8.00691889695 0.0 0.0 0.0 0.0
284 1 69.1364905783 6.83624889695 0.0 0.0 0.0 0.0
285 1 74.0060905783 6.44351889695 0.0 0.0 0.0 0.0
286 1 75.5930905783 11.423938897 0.0 0.0 0.0 0.0
287 1 5.44552057835 12.565938897 0.0 0.0 0.0 0.0
288 1 9.63779057835 10.458638897 0.0 0.0 0.0 0.0
289 1 15.6609905783 11.459238897 0.0 0.0 0.0 0.0
290 1 21.0429905783 12.278338897 0.0 0.0 0.0 0.0
291 1 26.5433905783 10.884238897 0.0 0.0 0.0 0.0
292 1 33.3021905783 13.160338897 0.0 0.0 0.0 0.0
293 1 36.7036905783 11.535138897 0.0 0.0 0.0 0.0
294 1 41.6616905783 12.739238897 0.0 0.0 0.0 0.0
295 1 46.7204905783 12.451338897 0.0 0.0 0.0 0.0
296 1 51.8409905783 12.111838897 0.0 0.0 0.0 0.0
297 1 56.9053905783 12.310838897 0.0 0.0 0.0 0.0
298 1 62.1330905783 12.818938897 0.0 0.0 0.0 0.0
299 1 66.8570905783 12.871538897 0.0 0.0 0.0 0.0
300 1 69.8193905783 12.491838897 0.0 0.0 0.0 0.0
301 1 0.77620057835 15.670438897 0.0 0.0 0.0 0.0
302 1 7.15004057835 15.051038897 0.0 0.0 0.0 0.0
303 1 11.9984905783 15.402238897 0.0 0.0 0.0 0.0
304 1 19.5939905783 17.565538897 0.0 0.0 0.0 0.0
305 1 23.8709905783 17.168438897 0.0 0.0 0.0 0.0
306 1 29.2166905783 17.257238897 0.0 0.0 0.0 0.0
307 1 35.9972905783 14.438538897 0.0 0.0 0.0 0.0
308 1 40.0354905783 17.748938897 0.0 0.0 0.0 0.0
309 1 44.9978905783 17.233738897 0.0 0.0 0.0 0.0
310 1 49.9499905783 17.002838897 0.0 0.0 0.0 0.0
311 1 55.2590905783 14.833138897 0.0 0.0 0.0 0.0
312 1 59.2266905783 17.700838897 0.0 0.0 0.0 0.0
313 1 63.8419905783 17.574338897 0.0 0.0 0.0 0.0
314 1 68.6986905783 17.469838897 0.0 0.0 0.0 0.0
315 1 73.4445905783 16.700638897 0.0 0.0 0.0 0.0
316 1 77.1238905783 18.527138897 0.0 0.0 0.0 0.0
317 1 4.87280057835 20.196038897 0.0 0.0 0.0 0.0
318 1 10.1606905783 17.823238897 0.0 0.0 0.0 0.0
319 1 15.3135905783 19.542138897 0.0 0.0 0.0 0.0
320 1 21.3259905783 20.064438897 0.0 0.0 0.0 0.0
321 1 26.9296905783 21.835138897 0.0 0.0 0.0 0.0
322 1 32.4051905783 20.776238897 0.0 0.0 0.0 0.0
323 1 36.9562905783 21.982038897 0.0 0.0 0.0 0.0
324 1 42.2871905783 22.363738897 0.0 0.0 0.0 0.0
325 1 45.3200905783 22.398838897 0.0 0.0 0.0 0.0
326 1 52.2445905783 21.896538897 0.0 0.0 0.0 0.0
327 1 57.4057905783 21.752138897 0.0 0.0 0.0 0.0
328 1 62.6129905783 22.247238897 0.0 0.0 0.0 0.0
329 1 67.9284905783 20.360538897 0.0 0.0 0.0 0.0
330 1 72.7143905783 22.188138897 0.0 0.0 0.0 0.0
331 1 4.32533057835 23.171838897 0.0 0.0 0.0 0.0
332 1 9.55229057835 24.757538897 0.0 0.0 0.0 0.0
333 1 14.6487905783 24.049638897 0.0 0.0 0.0 0.0
334 1 19.8851905783 22.693138897 0.0 0.0 0.0 0.0
335 1 24.4757905783 26.285638897 0.0 0.0 0.0 0.0
336 1 27.4486905783 26.858938897 0.0 0.0 0.0 0.0
337 1 34.8867905783 24.208638897 0.0 0.0 0.0 0.0
338 1 39.0364905783 27.214838897 0.0 0.0 0.0 0.0
339 1 43.9273905783 26.500538897 0.0 0.0 0.0 0.0
340 1 51.2258905783 28.729438897 0.0 0.0 0.0 0.0
341 1 53.9565905783 27.460538897 0.0 0.0 0.0 0.0
342 1 59.6631905783 26.187938897 0.0 0.0 0.0 0.0
343 1 65.3611905783 26.363838897 0.0 0.0 0.0 0.0
344 1 70.9597905783 26.727838897 0.0 0.0 0.0 0.0
345 1 76.4733905783 25.812638897 0.0 0.0 0.0 0.0
346 1 1.70216057835 30.141038897 0.0 0.0 0.0 0.0
347 1 4.69780057835 30.370938897 0.0 0.0 0.0 0.0
348 1 12.3325905783 29.022938897 0.0 0.0 0.0 0.0
349 1 17.0267905783 28.759838897 0.0 0.0 0.0 0.0
350 1 21.1459905783 29.974238897 0.0 0.0 0.0 0.0
351 1 25.9583905783 31.544638897 0.0 0.0 0.0 0.0
352 1 31.3909905783 30.444838897 0.0 0.0 0.0 0.0
353 1 36.3028905783 31.613038897 0.0 0.0 0.0 0.0
354 1 39.2313905783 32.237438897 0.0 0.0 0.0 0.0
355 1 46.6986905783 30.020738897 0.0 0.0 0.0 0.0
356 1 52.2227905783 31.579038897 0.0 0.0 0.0 0.0
357 1 55.1735905783 32.188338897 0.0 0.0 0.0 0.0
358 1 61.9437905783 30.753438897 0.0 0.0 0.0 0.0
359 1 67.3295905783 30.557138897 0.0 0.0 0.0 0.0
360 1 74.6885905783 31.471338897 0.0 0.0 0.0 0.0
361 1 3.42152057835 34.981738897 0.0 0.0 0.0 0.0
362 1 8.46717057835 34.561238897 0.0 0.0 0.0 0.0
363 1 11.4340905783 34.197138897 0.0 0.0 0.0 0.0
364 1 17.9795905783 34.157238897 0.0 0.0 0.0 0.0
365 1 23.6648905783 33.561138897 0.0 0.0 0.0 0.0
366 1 28.6746905783 36.908838897 0.0 0.0 0.0 0.0
367 1 31.5381905783 36.043438897 0.0 0.0 0.0 0.0
368 1 37.3396905783 36.675438897 0.0 0.0 0.0 0.0
369 1 42.7090905783 36.285238897 0.0 0.0 0.0 0.0
370 1 45.5136905783 35.218838897 0.0 0.0 0.0 0.0
371 1 54.9381905783 37.558638897 0.0 0.0 0.0 0.0
372 1 59.4899905783 35.087038897 0.0 0.0 0.0 0.0
373 1 64.9467905783 35.173638897 0.0 0.0 0.0 0.0
374 1 70.2175905783 34.814138897 0.0 0.0 0.0 0.0
375 1 75.7340905783 34.319938897 0.0 0.0 0.0 0.0
376 1 74.7019905783 40.101338897 0.0 0.0 0.0 0.0
377 1 3.70855057835 39.594738897 0.0 0.0 0.0 0.0
378 1 6.70265057835 39.421938897 0.0 0.0 0.0 0.0
379 1 14.6595905783 38.552338897 0.0 0.0 0.0 0.0
380 1 20.2059905783 38.056738897 0.0 0.0 0.0 0.0
381 1 25.7735905783 40.259538897 0.0 0.0 0.0 0.0
382 1 28.3981905783 41.662538897 0.0 0.0 0.0 0.0
383 1 34.9264905783 41.040138897 0.0 0.0 0.0 0.0
384 1 42.0771905783 42.024838897 0.0 0.0 0.0 0.0
385 1 46.0748905783 40.060838897 0.0 0.0 0.0 0.0
386 1 50.4549905783 36.874938897 0.0 0.0 0.0 0.0
387 1 57.1235905783 39.611338897 0.0 0.0 0.0 0.0
388 1 62.1251905783 39.840438897 0.0 0.0 0.0 0.0
389 1 65.1098905783 40.067138897 0.0 0.0 0.0 0.0
390 1 71.6663905783 40.282238897 0.0 0.0 0.0 0.0
391 1 1.27750057835 44.547638897 0.0 0.0 0.0 0.0
392 1 6.52509057835 42.405638897 0.0 0.0 0.0 0.0
393 1 11.5933905783 43.440438897 0.0 0.0 0.0 0.0
394 1 16.8417905783 42.392438897 0.0 0.0 0.0 0.0
395 1 21.6705905783 43.111138897 0.0 0.0 0.0 0.0
396 1 27.3009905783 44.411338897 0.0 0.0 0.0 0.0
397 1 32.8616905783 45.705538897 0.0 0.0 0.0 0.0
398 1 38.1929905783 45.172238897 0.0 0.0 0.0 0.0
399 1 43.8933905783 44.415938897 0.0 0.0 0.0 0.0
400 1 49.2929905783 44.203038897 0.0 0.0 0.0 0.0
401 1 53.8911905783 43.958638897 0.0 0.0 0.0 0.0
402 1 59.1088905783 44.145938897 0.0 0.0 0.0 0.0
403 1 64.7850905783 43.047638897 0.0 0.0 0.0 0.0
404 1 69.3507905783 45.579538897 0.0 0.0 0.0 0.0
405 1 73.9550905783 44.888038897 0.0 0.0 0.0 0.0
406 1 0.13233057835 49.492338897 0.0 0.0 0.0 0.0
407 1 4.91474057835 48.960938897 0.0 0.0 0.0 0.0
408 1 9.94189057835 48.595038897 0.0 0.0 0.0 0.0
409 1 14.8294905783 47.404838897 0.0 0.0 0.0 0.0
410 1 19.4550905783 47.172838897 0.0 0.0 0.0 0.0
411 1 24.7202905783 47.716938897 0.0 0.0 0.0 0.0
412 1 31.5505905783 50.769838897 0.0 0.0 0.0 0.0
413 1 36.0641905783 50.317638897 0.0 0.0 0.0 0.0
414 1 39.0496905783 50.417638897 0.0 0.0 0.0 0.0
415 1 45.8439905783 48.724838897 0.0 0.0 0.0 0.0
416 1 51.0434905783 48.636938897 0.0 0.0 0.0 0.0
417 1 56.1700905783 48.438638897 0.0 0.0 0.0 0.0
418 1 61.6279905783 48.353738897 0.0 0.0 0.0 0.0
419 1 68.5633905783 51.227038897 0.0 0.0 0.0 0.0
420 1 72.7122905783 49.674838897 0.0 0.0 0.0 0.0
421 1 2.97686057835 54.322838897 0.0 0.0 0.0 0.0
422 1 7.53727057835 53.597938897 0.0 0.0 0.0 0.0
423 1 12.5468905783 52.701638897 0.0 0.0 0.0 0.0
424 1 17.0629905783 51.734338897 0.0 0.0 0.0 0.0
425 1 21.8864905783 52.061038897 0.0 0.0 0.0 0.0
426 1 26.5074905783 52.977638897 0.0 0.0 0.0 0.0
427 1 32.1374905783 53.693338897 0.0 0.0 0.0 0.0
428 1 38.9025905783 53.455638897 0.0 0.0 0.0 0.0
429 1 44.1254905783 53.992338897 0.0 0.0 0.0 0.0
430 1 48.6680905783 53.404538897 0.0 0.0 0.0 0.0
431 1 53.6120905783 53.329138897 0.0 0.0 0.0 0.0
432 1 58.5714905783 52.874338897 0.0 0.0 0.0 0.0
433 1 63.5097905783 53.096638897 0.0 0.0 0.0 0.0
434 1 70.0264905783 53.860238897 0.0 0.0 0.0 0.0
435 1 75.3787905783 54.197438897 0.0 0.0 0.0 0.0
436 1 0.43155057835 58.649838897 0.0 0.0 0.0 0.0
437 1 8.16176057835 59.430538897 0.0 0.0 0.0 0.0
438 1 11.3067905783 57.586338897 0.0 0.0 0.0 0.0
439 1 16.0067905783 57.119438897 0.0 0.0 0.0 0.0
440 1 20.0241905783 56.467338897 0.0 0.0 0.0 0.0
441 1 24.4406905783 57.305738897 0.0 0.0 0.0 0.0
442 1 29.3201905783 57.892738897 0.0 0.0 0.0 0.0
443 1 34.7955905783 57.907038897 0.0 0.0 0.0 0.0
444 1 41.8372905783 58.108238897 0.0 0.0 0.0 0.0
445 1 47.1965905783 58.414138897 0.0 0.0 0.0 0.0
446 1 51.7241905783 58.246138897 0.0 0.0 0.0 0.0
447 1 56.8237905783 57.474938897 0.0 0.0 0.0 0.0
448 1 62.3072905783 55.843638897 0.0 0.0 0.0 0.0
449 1 67.0239905783 58.373638897 0.0 0.0 0.0 0.0
450 1 72.2975905783 58.317938897 0.0 0.0 0.0 0.0
451 1 2.50644057835 63.461538897 0.0 0.0 0.0 0.0
452 1 5.43792057835 62.779738897 0.0 0.0 0.0 0.0
453 1 13.2486905783 62.598938897 0.0 0.0 0.0 0.0
454 1 19.0705905783 63.794838897 0.0 0.0 0.0 0.0
455 1 23.2204905783 60.045738897 0.0 0.0 0.0 0.0
456 1 28.3952905783 60.744738897 0.0 0.0 0.0 0.0
457 1 33.7669905783 60.753938897 0.0 0.0 0.0 0.0
458 1 38.8928905783 62.936138897 0.0 0.0 0.0 0.0
459 1 43.8310905783 62.651538897 0.0 0.0 0.0 0.0
460 1 49.0619905783 62.995938897 0.0 0.0 0.0 0.0
461 1 54.4972905783 62.104738897 0.0 0.0 0.0 0.0
462 1 59.6197905783 61.990638897 0.0 0.0 0.0 0.0
463 1 64.4773905783 63.017138897 0.0 0.0 0.0 0.0
464 1 69.6368905783 62.808538897 0.0 0.0 0.0 0.0
465 1 74.7585905783 63.033038897 0.0 0.0 0.0 0.0
466 1 1.09930057835 68.981438897 0.0 0.0 0.0 0.0
467 1 5.45669057835 67.550038897 0.0 0.0 0.0 0.0
468 1 9.82149057835 66.917438897 0.0 0.0 0.0 0.0
469 1 15.2224905783 66.670238897 0.0 0.0 0.0 0.0
470 1 21.4870905783 65.601038897 0.0 0.0 0.0 0.0
471 1 27.0123905783 66.023538897 0.0 0.0 0.0 0.0
472 1 31.8656905783 67.058138897 0.0 0.0 0.0 0.0
473 1 36.9087905783 67.326538897 0.0 0.0 0.0 0.0
474 1 41.9859905783 67.633738897 0.0 0.0 0.0 0.0
475 1 47.3062905783 65.469938897 0.0 0.0 0.0 0.0
476 1 51.3447905783 67.928238897 0.0 0.0 0.0 0.0
477 1 54.2556905783 67.143038897 0.0 0.0 0.0 0.0
478 1 60.9908905783 67.223338897 0.0 0.0 0.0 0.0
479 1 66.3628905783 67.344838897 0.0 0.0 0.0 0.0
480 1 71.5262905783 67.145338897 0.0 0.0 0.0 0.0
481 1 2.49479057835 71.621138897 0.0 0.0 0.0 0.0
482 1 9.75829057835 72.475638897 0.0 0.0 0.0 0.0
483 1 13.7338905783 71.004038897 0.0 0.0 0.0 0.0
484 1 19.0291905783 70.834438897 0.0 0.0 0.0 0.0
485 1 23.5810905783 70.125838897 0.0 0.0 0.0 0.0
486 1 28.2016905783 71.287438897 0.0 0.0 0.0 0.0
487 1 33.4214905783 71.527238897 0.0 0.0 0.0 0.0
488 1 38.4939905783 72.057738897 0.0 0.0 0.0 0.0
489 1 43.7203905783 72.157738897 0.0 0.0 0.0 0.0
490 1 48.1960905783 72.903038897 0.0 0.0 0.0 0.0
491 1 51.1801905783 72.937538897 0.0 0.0 0.0 0.0
492 1 58.0436905783 71.723538897 0.0 0.0 0.0 0.0
493 1 65.1895905783 72.944338897 0.0 0.0 0.0 0.0
494 1 69.2963905783 71.730838897 0.0 0.0 0.0 0.0
495 1 74.4051905783 71.602438897 0.0 0.0 0.0 0.0
496 1 77.2139905783 76.356938897 0.0 0.0 0.0 0.0
497 1 5.15663057835 75.587638897 0.0 0.0 0.0 0.0
498 1 11.2870905783 75.057138897 0.0 0.0 0.0 0.0
499 1 16.0217905783 76.311838897 0.0 0.0 0.0 0.0
500 1 19.0544905783 76.263138897 0.0 0.0 0.0 0.0
501 1 26.3845905783 73.708838897 0.0 0.0 0.0 0.0
502 1 30.9121905783 76.086738897 0.0 0.0 0.0 0.0
503 1 36.5699905783 74.413438897 0.0 0.0 0.0 0.0
504 1 40.9887905783 77.210438897 0.0 0.0 0.0 0.0
505 1 45.3440905783 77.271638897 0.0 0.0 0.0 0.0
506 1 50.7570905783 76.989538897 0.0 0.0 0.0 0.0
507 1 55.9243905783 76.254838897 0.0 0.0 0.0 0.0
508 1 61.3759905783 75.727638897 0.0 0.0 0.0 0.0
509 1 66.8773905783 75.434838897 0.0 0.0 0.0 0.0
510 1 72.2873905783 76.314938897 0.0 0.0 0.0 0.0
511 1 5.62986057835 78.551738897 0.0 0.0 0.0 0.0
512 1 10.8646905783 78.030538897 0.0 0.0 0.0 0.0
513 1 14.8282905783 81.262138897 0.0 0.0 0.0 0.0
514 1 20.3118905783 79.026038897 0.0 0.0 0.0 0.0
515 1 26.2025905783 78.882538897 0.0 0.0 0.0 0.0
516 1 31.2856905783 79.059938897 0.0 0.0 0.0 0.0
517 1 36.6676905783 79.753838897 0.0 0.0 0.0 0.0
518 1 41.2873905783 80.213038897 0.0 0.0 0.0 0.0
519 1 46.1526905783 80.168138897 0.0 0.0 0.0 0.0
520 1 51.6748905783 79.819938897 0.0 0.0 0.0 0.0
521 1 56.4325905783 81.242138897 0.0 0.0 0.0 0.0
522 1 63.3385905783 78.076538897 0.0 0.0 0.0 0.0
523 1 66.3612905783 78.389038897 0.0 0.0 0.0 0.0
524 1 71.8920905783 79.298538897 0.0 0.0 0.0 0.0
525 1 0.24714057835 79.353138897 0.0 0.0 0.0 0.0
526 1 3.15717057835 80.281438897 0.0 0.0 0.0 0.0
527 1 8.39049057835 79.774438897 0.0 0.0 0.0 0.0
528 1 13.8546905783 78.428538897 0.0 0.0 0.0 0.0
529 1 17.8328905783 80.817038897 0.0 0.0 0.0 0.0
530 1 23.2794905783 79.826738897 0.0 0.0 0.0 0.0
531 1 28.6997905783 80.603638897 0.0 0.0 0.0 0.0
532 1 33.8134905783 80.681638897 0.0 0.0 0.0 0.0
533 1 38.7852905783 81.879938897 0.0 0.0 0.0 0.0
534 1 43.7356905783 81.948238897 0.0 0.0 0.0 0.0
535 1 48.9937905783 81.175138897 0.0 0.0 0.0 0.0
536 1 54.5544905783 78.934938897 0.0 0.0 0.0 0.0
537 1 59.4306905783 81.232338897 0.0 0.0 0.0 0.0
538 1 62.4191905783 80.941938897 0.0 0.0 0.0 0.0
539 1 68.9305905783 80.039438897 0.0 0.0 0.0 0.0
540 1 74.7280905783 80.408638897 0.0 0.0 0.0 0.0
541 2 3.96323057835 1.68671889695 0.0 0.0 0.0 0.0
542 2 3.96705057835 81.565238897 0.0 0.0 0.0 0.0
543 2 6.40332057835 0.565300896953 0.0 0.0 0.0 0.0
544 2 8.25895057835 81.278038897 0.0 0.0 0.0 0.0
545 2 9.06109057835 1.49089889695 0.0 0.0 0.0 0.0
546 2 13.9171905783 0.200166896953 0.0 0.0 0.0 0.0
547 2 14.2668905783 2.52781889695 0.0 0.0 0.0 0.0
548 2 11.6773905783 1.95635889695 0.0 0.0 0.0 0.0
549 2 17.9600905783 0.0366002969535 0.0 0.0 0.0 0.0
550 2 19.4164905783 1.87377889695 0.0 0.0 0.0 0.0
551 2 16.7714905783 2.45828889695 0.0 0.0 0.0 0.0
552 2 23.3453905783 81.348338897 0.0 0.0 0.0 0.0
553 2 24.5761905783 1.51140889695 0.0 0.0 0.0 0.0
554 2 22.0945905783 1.39795889695 0.0 0.0 0.0 0.0
555 2 29.2452905783 2.31999889695 0.0 0.0 0.0 0.0
556 2 29.2630905783 82.011638897 0.0 0.0 0.0 0.0
557 2 31.5204905783 1.23389889695 0.0 0.0 0.0 0.0
558 2 33.4989905783 82.149938897 0.0 0.0 0.0 0.0
559 2 34.0561905783 2.41136889695 0.0 0.0 0.0 0.0
560 2 38.5033905783 1.07830889695 0.0 0.0 0.0 0.0
561 2 36.6251905783 2.87455889695 0.0 0.0 0.0 0.0
562 2 38.9051905783 3.79403889695 0.0 0.0 0.0 0.0
563 2 43.7605905783 1.17164889695 0.0 0.0 0.0 0.0
564 2 43.2182905783 3.96891889695 0.0 0.0 0.0 0.0
565 2 45.4175905783 3.04429889695 0.0 0.0 0.0 0.0
566 2 49.1067905783 0.389268896953 0.0 0.0 0.0 0.0
567 2 50.6616905783 2.42095889695 0.0 0.0 0.0 0.0
568 2 48.0475905783 2.73483889695 0.0 0.0 0.0 0.0
569 2 55.4318905783 0.0966308969535 0.0 0.0 0.0 0.0
570 2 55.5528905783 2.39509889695 0.0 0.0 0.0 0.0
571 2 53.2213905783 2.03882889695 0.0 0.0 0.0 0.0
572 2 59.3920905783 0.451620896953 0.0 0.0 0.0 0.0
573 2 60.5927905783 2.70251889695 0.0 0.0 0.0 0.0
574 2 58.0177905783 2.63444889695 0.0 0.0 0.0 0.0
575 2 63.2274905783 82.228338897 0.0 0.0 0.0 0.0
576 2 65.2530905783 1.91325889695 0.0 0.0 0.0 0.0
577 2 62.9409905783 2.51423889695 0.0 0.0 0.0 0.0
578 2 68.8519905783 81.553738897 0.0 0.0 0.0 0.0
579 2 70.3534905783 1.29524889695 0.0 0.0 0.0 0.0
580 2 67.7625905783 1.74532889695 0.0 0.0 0.0 0.0
581 2 74.7247905783 81.913538897 0.0 0.0 0.0 0.0
582 2 73.1904905783 1.52736889695 0.0 0.0 0.0 0.0
583 2 75.9920905783 1.85575889695 0.0 0.0 0.0 0.0
584 2 77.0614905783 4.13417889695 0.0 0.0 0.0 0.0
585 2 75.4364905783 6.01892889695 0.0 0.0 0.0 0.0
586 2 0.64196057835 6.64236889695 0.0 0.0 0.0 0.0
587 2 3.56138057835 4.20794889695 0.0 0.0 0.0 0.0
588 2 5.50029057835 6.12917889695 0.0 0.0 0.0 0.0
589 2 3.01797057835 6.69353889695 0.0 0.0 0.0 0.0
590 2 9.91409057835 3.96005889695 0.0 0.0 0.0 0.0
591 2 10.5291905783 6.62697889695 0.0 0.0 0.0 0.0
592 2 8.17368057835 6.05335889695 0.0 0.0 0.0 0.0
593 2 15.6734905783 4.84619889695 0.0 0.0 0.0 0.0
594 2 17.3198905783 6.89037889695 0.0 0.0 0.0 0.0
595 2 15.0100905783 7.54023889695 0.0 0.0 0.0 0.0
596 2 20.6861905783 3.76216889695 0.0 0.0 0.0 0.0
597 2 22.1811905783 5.23292889695 0.0 0.0 0.0 0.0
598 2 19.7311905783 6.43720889695 0.0 0.0 0.0 0.0
599 2 24.1649905783 6.43583889695 0.0 0.0 0.0 0.0
600 2 26.1593905783 7.82447889695 0.0 0.0 0.0 0.0
601 2 23.9105905783 9.13959889695 0.0 0.0 0.0 0.0
602 2 29.2377905783 4.87219889695 0.0 0.0 0.0 0.0
603 2 31.3541905783 6.82944889695 0.0 0.0 0.0 0.0
604 2 28.8350905783 7.22054889695 0.0 0.0 0.0 0.0
605 2 35.3303905783 4.89417889695 0.0 0.0 0.0 0.0
606 2 36.7856905783 7.20702889695 0.0 0.0 0.0 0.0
607 2 34.0856905783 6.91750889695 0.0 0.0 0.0 0.0
608 2 41.0953905783 5.23115889695 0.0 0.0 0.0 0.0