ITEM: TIMESTEP
0
ITEM: NUMBER OF ATOMS
2232
ITEM: BOX BOUNDS xy xz yz pp pp pp
0.0 82.68810555352132 0
0.0 83.16 0
-10.0 10.0 0
ITEM: ATOMS id type x y z vx vy vz
1 1 1.6422105573770494 0.5256247213114754 6.45361231155e-05 0.0 0.0 0.0
2 1 4.341891147540984 0.6039779016393444 3.49808492356e-05 0.0 0.0 0.0
3 1 6.9923573770491805 0.816896786885246 8.19128033558e-05 0.0 0.0 0.0
4 1 9.576729836065574 1.0946320000000003 3.5905641203e-05 0.0 0.0 0.0
5 1 12.32616 0.8894838032786887 5.81893977084e-05 0.0 0.0 0.0
6 1 15.12784918032787 0.737776131147541 1.14178621754e-05 0.0 0.0 0.0
7 1 17.786192131147544 0.7644156065573772 7.91970167427e-05 0.0 0.0 0.0
8 1 20.36930229508197 0.77924 6.11601160171e-05 0.0 0.0 0.0
9 1 22.957461639344263 0.9012180983606558 6.26220168012e-05 0.0 0.0 0.0
10 1 25.580106885245904 1.4059695081967214 1.10018046758e-06 0.0 0.0 0.0
11 1 28.33706032786886 1.4027026885245903 4.08005729021e-05 0.0 0.0 0.0
12 1 30.935822950819674 0.8867572459016394 6.674433536e-06 0.0 0.0 0.0
13 1 33.5236793442623 0.7582505573770493 7.61538523093e-05 0.0 0.0 0.0
14 1 36.119816393442626 0.8331551475409836 4.07030405324e-05 0.0 0.0 0.0
15 1 38.73822032786886 0.8142257704918033 3.58811338924e-05 0.0 0.0 0.0
16 1 41.35101967213115 0.5213531147540984 4.82533041368e-05 0.0 0.0 0.0
17 1 44.104893114754105 0.21638413770491807 7.40007099882e-05 0.0 0.0 0.0
18 1 46.80655803278689 0.5947025573770492 5.52525098685e-05 0.0 0.0 0.0
19 1 49.33432918032787 0.7670361311475411 1.88174423298e-06 0.0 0.0 0.0
20 1 51.972727868852466 0.5329712786885247 7.12481268053e-05 0.0 0.0 0.0
21 1 54.626072131147545 0.4981152721311476 2.77178912e-05 0.0 0.0 0.0
22 1 57.272852459016406 0.504729193442623 2.80801387131e-06 0.0 0.0 0.0
23 1 59.89893114754099 0.5597218360655739 3.2202861956e-05 0.0 0.0 0.0
24 1 62.55177049180329 0.726036786885246 5.35112816371e-06 0.0 0.0 0.0
25 1 65.29751475409837 0.8951994754098362 8.81791301653e-05 0.0 0.0 0.0
26 1 68.02003278688525 0.7280867540983608 1.16934010556e-05 0.0 0.0 0.0
27 1 70.71377049180329 0.8370581639344263 9.44201600617e-05 0.0 0.0 0.0
28 1 73.47668196721311 0.893396918032787 2.78903637232e-05 0.0 0.0 0.0
29 1 76.23605901639345 0.8855959344262296 9.90887783612e-05 0.0 0.0 0.0
30 1 78.93080655737707 0.8193961311475411 8.19786979828e-05 0.0 0.0 0.0
31 1 81.5548655737705 0.6519905573770493 9.97575367022e-05 0.0 0.0 0.0
32 1 0.3100459278688525 2.803047409836066 4.55555921631e-06 0.0 0.0 0.0
33 1 3.0067565901639344 2.8717465573770493 6.07954547051e-05 0.0 0.0 0.0
34 1 5.618475409836066 3.070108655737705 7.9867921452e-05 0.0 0.0 0.0
35 1 8.408147540983608 3.352978885245902 5.95818268607e-05 0.0 0.0 0.0
36 1 11.108247213114755 3.1962977704918036 8.28478639648e-05 0.0 0.0 0.0
37 1 13.790927213114754 2.9470197377049185 4.17117750222e-05 0.0 0.0 0.0
38 1 16.415592131147545 3.0537796065573772 3.52544462867e-05 0.0 0.0 0.0
39 1 18.87848131147541 3.1437560000000007 6.8957816118e-05 0.0 0.0 0.0
40 1 21.463712131147545 3.2020386885245906 5.54614437542e-05 0.0 0.0 0.0
41 1 24.143211147540985 3.4227282622950823 4.37794429227e-05 0.0 0.0 0.0
42 1 26.891782950819675 3.5914769180327872 5.3188932268e-06 0.0 0.0 0.0
43 1 29.618289836065575 3.4343615737704924 4.14972585552e-05 0.0 0.0 0.0
44 1 32.2516393442623 3.202089180327869 3.68953348042e-05 0.0 0.0 0.0
45 1 34.91977770491804 3.177706688524591 2.4666424922e-05 0.0 0.0 0.0
46 1 37.57736327868853 3.1908295081967215 6.36558777996e-05 0.0 0.0 0.0
47 1 40.2172262295082 3.0114220327868853 6.60543001741e-05 0.0 0.0 0.0
48 1 42.969130491803284 2.542247147540984 8.3334052092e-05 0.0 0.0 0.0
49 1 45.224498360655744 3.793883409836066 5.53492409772e-05 0.0 0.0 0.0
50 1 48.0259855737705 3.0786316721311477 8.8193144098e-05 0.0 0.0 0.0
51 1 50.725580327868855 2.9616977049180333 8.82020360765e-05 0.0 0.0 0.0
52 1 53.37892459016394 2.8419412459016398 8.22185429919e-05 0.0 0.0 0.0
53 1 56.017121311475414 2.831964065573771 2.83533994559e-05 0.0 0.0 0.0
54 1 58.63916065573771 2.874538754098361 9.54716569003e-05 0.0 0.0 0.0
55 1 61.24504262295083 2.9453989508196727 5.87275881479e-05 0.0 0.0 0.0
56 1 63.93575081967214 3.019536065573771 3.00097680497e-05 0.0 0.0 0.0
57 1 66.72289836065573 3.055253967213115 6.10258144549e-05 0.0 0.0 0.0
58 1 69.35907540983607 3.0817369180327874 5.24515901229e-05 0.0 0.0 0.0
59 1 72.10885901639344 3.102261836065574 8.58630852477e-05 0.0 0.0 0.0
60 1 74.8904524590164 3.135172393442623 7.15769071425e-05 0.0 0.0 0.0
61 1 77.64932459016394 3.169143278688525 6.23489467338e-05 0.0 0.0 0.0
62 1 80.34255737704919 3.120388393442623 5.77466530491e-05 0.0 0.0 0.0
63 1 1.3671261639344263 5.086998688524591 4.28976447093e-05 0.0 0.0 0.0
64 1 3.9885848524590166 5.337539016393443 7.51507991658e-05 0.0 0.0 0.0
65 1 6.654163278688525 5.419588196721311 7.5689868992e-05 0.0 0.0 0.0
66 1 10.659021639344262 5.3998459016393445 7.89458653529e-06 0.0 0.0 0.0
67 1 13.1978 5.168088524590164 5.68910383902e-05 0.0 0.0 0.0
68 1 14.736032786885247 5.267052459016393 7.1491654472e-06 0.0 0.0 0.0
69 1 17.32959475409836 5.540263606557377 4.7847686649e-05 0.0 0.0 0.0
70 1 19.91846098360656 5.5282970491803285 5.80130049973e-05 0.0 0.0 0.0
71 1 22.69086491803279 5.580253114754099 4.69672788947e-05 0.0 0.0 0.0
72 1 25.43272131147541 5.718752131147542 9.17610608763e-05 0.0 0.0 0.0
73 1 28.141859016393447 5.747784918032787 5.54821044235e-06 0.0 0.0 0.0
74 1 30.83428393442623 5.633622950819673 2.73054996187e-05 0.0 0.0 0.0
75 1 33.51499475409836 5.504919344262295 3.79276939728e-05 0.0 0.0 0.0
76 1 36.28820655737705 5.534103606557378 8.41339397759e-05 0.0 0.0 0.0
77 1 38.983408524590175 5.480380327868852 8.79741846036e-05 0.0 0.0 0.0
78 1 41.707441311475414 4.989206163934427 6.98083991016e-05 0.0 0.0 0.0
79 1 44.481713442622954 5.137389508196722 7.30969370936e-05 0.0 0.0 0.0
80 1 46.92677901639345 5.453518688524591 8.50385791674e-05 0.0 0.0 0.0
81 1 49.51251475409837 5.291187540983607 5.02224772654e-05 0.0 0.0 0.0
82 1 52.133291803278695 5.215399344262296 1.31811637948e-05 0.0 0.0 0.0
83 1 54.77704262295082 5.16940131147541 2.67717041244e-05 0.0 0.0 0.0
84 1 57.41927868852459 5.196161967213115 9.63930586913e-05 0.0 0.0 0.0
85 1 60.04182295081968 5.261296393442623 1.60500321339e-05 0.0 0.0 0.0
86 1 62.608321311475414 5.2522583606557385 9.32636121692e-05 0.0 0.0 0.0
87 1 65.29751475409837 5.2086334426229515 4.30176423514e-05 0.0 0.0 0.0
88 1 67.906931147541 5.410247213114754 1.40138312962e-05 0.0 0.0 0.0
89 1 70.67792131147543 5.336983606557378 6.98933294735e-05 0.0 0.0 0.0
90 1 73.4776918032787 5.338498360655739 9.57091977391e-05 0.0 0.0 0.0
91 1 76.20929836065575 5.408580983606558 9.78610321797e-05 0.0 0.0 0.0
92 1 78.92222295081967 5.485429508196722 2.40901812199e-05 0.0 0.0 0.0
93 1 82.50512131147542 5.099369180327869 7.24427422453e-05 0.0 0.0 0.0
94 1 82.3713180327869 7.794318688524591 5.37453546707e-05 0.0 0.0 0.0
95 1 2.4412534426229513 7.59992524590164 4.45630084851e-05 0.0 0.0 0.0
96 1 5.114112786885246 7.727568524590165 6.76119821706e-05 0.0 0.0 0.0
97 1 7.6233534426229514 7.728628852459017 6.10790592988e-05 0.0 0.0 0.0
98 1 10.192729836065576 7.740595409836066 8.02759399709e-05 0.0 0.0 0.0
99 1 12.809316065573771 7.551958032786886 2.33465451954e-05 0.0 0.0 0.0
100 1 15.725015737704918 7.770840000000001 6.09602329597e-05 0.0 0.0 0.0
101 1 18.5278662295082 7.928374426229508 6.31974245289e-06 0.0 0.0 0.0
102 1 21.227360000000004 7.739787540983607 2.14872323126e-05 0.0 0.0 0.0
103 1 23.97744655737705 7.871975081967214 8.32776241842e-06 0.0 0.0 0.0
104 1 26.62892262295082 7.997144262295083 3.21757372396e-05 0.0 0.0 0.0
105 1 29.32356918032787 7.964779016393443 3.18643589746e-05 0.0 0.0 0.0
106 1 31.985345573770495 7.854504918032787 7.82318916649e-05 0.0 0.0 0.0
107 1 34.60597114754099 7.722822295081968 3.60346558272e-05 0.0 0.0 0.0
108 1 37.32192524590164 7.846931147540984 6.80013317825e-05 0.0 0.0 0.0
109 1 41.3054255737705 7.242746229508198 6.86827445628e-05 0.0 0.0 0.0
110 1 42.85002032786886 7.239767213114755 9.45126866269e-05 0.0 0.0 0.0
111 1 45.44817704918033 7.710199344262296 6.33354350873e-05 0.0 0.0 0.0
112 1 48.1643331147541 7.713127868852459 7.7071947878e-05 0.0 0.0 0.0
113 1 50.81747540983607 7.589826885245903 1.84387022008e-05 0.0 0.0 0.0
114 1 53.47132459016394 7.513937704918034 7.72341173868e-05 0.0 0.0 0.0
115 1 56.1600131147541 7.507676721311476 5.6884130361e-05 0.0 0.0 0.0
116 1 58.845167213114756 7.565590819672132 3.86875689267e-05 0.0 0.0 0.0
117 1 61.5384 7.630472786885246 8.23587968371e-05 0.0 0.0 0.0
118 1 64.22910819672131 7.46480918032787 9.22234528161e-05 0.0 0.0 0.0
119 1 66.6087868852459 8.771284590163935 9.18862707117e-05 0.0 0.0 0.0
120 1 69.28636721311477 7.595734426229509 4.7441884081e-05 0.0 0.0 0.0
121 1 72.08159344262295 7.526358688524591 7.57604003884e-06 0.0 0.0 0.0
122 1 74.73544262295081 7.644610491803279 3.47383662357e-05 0.0 0.0 0.0
123 1 77.35697704918033 7.739888524590165 4.21275956842e-05 0.0 0.0 0.0
124 1 79.88308196721313 7.959022950819673 1.19781664423e-05 0.0 0.0 0.0
125 1 1.0287351475409838 9.961628852459016 6.36365966806e-05 0.0 0.0 0.0
126 1 3.7099256393442626 10.003537049180329 2.51484207087e-05 0.0 0.0 0.0
127 1 7.116617704918033 9.971828196721313 5.91561722785e-06 0.0 0.0 0.0
128 1 8.662878688524591 10.037417049180329 9.85669237904e-05 0.0 0.0 0.0
129 1 11.482391475409838 9.978442622950821 3.83448261995e-05 0.0 0.0 0.0
130 1 14.287261639344264 9.827270163934427 3.12179509307e-05 0.0 0.0 0.0
131 1 17.070420327868856 10.106439344262295 9.72025942078e-05 0.0 0.0 0.0
132 1 20.733600655737707 9.916741639344263 3.4086532059e-05 0.0 0.0 0.0
133 1 22.285264262295087 9.979149508196722 1.12757540823e-06 0.0 0.0 0.0
134 1 25.01772918032787 10.235748852459016 2.51641823777e-05 0.0 0.0 0.0
135 1 27.80634098360656 10.258975081967215 4.79948366006e-05 0.0 0.0 0.0
136 1 30.52330491803279 10.216057049180328 4.1900277516e-05 0.0 0.0 0.0
137 1 33.16857049180328 10.125222295081969 7.05391560261e-05 0.0 0.0 0.0
138 1 35.760920655737706 10.018583606557378 2.79576055597e-05 0.0 0.0 0.0
139 1 37.94226754098361 9.266508196721311 5.04753930925e-05 0.0 0.0 0.0
140 1 41.50592852459017 10.015554098360656 7.38964201068e-05 0.0 0.0 0.0
141 1 44.12746295081968 9.812880000000002 9.34770086632e-05 0.0 0.0 0.0
142 1 46.80034754098361 9.969101639344263 1.55013250695e-05 0.0 0.0 0.0
143 1 49.493984262295086 9.959811147540984 5.68780402832e-05 0.0 0.0 0.0
144 1 52.13076721311476 9.863119344262296 5.58611881399e-05 0.0 0.0 0.0
145 1 54.79017049180329 9.792784262295083 7.95012791641e-05 0.0 0.0 0.0
146 1 57.51470819672132 9.827472131147541 3.56600797034e-05 0.0 0.0 0.0
147 1 60.156944262295085 9.896292459016394 8.15557863023e-05 0.0 0.0 0.0
148 1 62.9324786885246 9.864179672131149 6.64113471418e-05 0.0 0.0 0.0
149 1 65.7812262295082 10.083112131147542 5.42315534439e-05 0.0 0.0 0.0
150 1 69.11469508196723 9.848830163934428 9.36271417542e-05 0.0 0.0 0.0
151 1 70.64106229508198 9.72249967213115 6.08162730312e-06 0.0 0.0 0.0
152 1 73.22068852459016 9.900533770491805 3.18525961641e-05 0.0 0.0 0.0
153 1 75.94724590163935 10.047969836065576 9.99802112373e-05 0.0 0.0 0.0
154 1 78.49354754098361 10.260843278688526 6.57615974513e-06 0.0 0.0 0.0
155 1 81.13325901639345 10.305074098360658 1.46474917137e-07 0.0 0.0 0.0
156 1 82.51521967213115 12.507779016393442 7.34744213353e-05 0.0 0.0 0.0
157 1 2.421834295081968 12.277132459016395 3.80872180142e-05 0.0 0.0 0.0
158 1 4.755828 13.79148262295082 5.5863919555e-05 0.0 0.0 0.0
159 1 7.208462295081969 12.50368918032787 1.25520406568e-05 0.0 0.0 0.0
160 1 10.050393442622953 12.187408524590165 1.92785368954e-05 0.0 0.0 0.0
161 1 12.851628196721313 12.102784262295083 8.68950420345e-06 0.0 0.0 0.0
162 1 15.559554098360657 12.208615081967215 1.39743535602e-05 0.0 0.0 0.0
163 1 18.130697704918035 12.595432786885247 3.75779965892e-05 0.0 0.0 0.0
164 1 20.640897704918036 12.517271475409839 3.64037040761e-05 0.0 0.0 0.0
165 1 23.483636721311477 12.384629508196722 7.75947333972e-05 0.0 0.0 0.0
166 1 26.343542950819675 12.459761311475411 6.52831208787e-05 0.0 0.0 0.0
167 1 29.1353862295082 12.51292918032787 8.10044369418e-05 0.0 0.0 0.0
168 1 31.83578885245902 12.501619016393443 8.49888773985e-05 0.0 0.0 0.0
169 1 34.53780721311476 12.42931475409836 4.14581520273e-07 0.0 0.0 0.0
170 1 37.27118098360656 12.158931147540985 4.97076557284e-05 0.0 0.0 0.0
171 1 40.038586229508205 12.31772786885246 3.48657771538e-05 0.0 0.0 0.0
172 1 42.77862491803279 12.234668852459018 5.4944298511e-05 0.0 0.0 0.0
173 1 45.4624662295082 12.194275409836067 6.51504147926e-05 0.0 0.0 0.0
174 1 48.17619868852459 12.24613049180328 4.57728300774e-05 0.0 0.0 0.0
175 1 50.86847213114754 12.240121967213117 2.41334610507e-05 0.0 0.0 0.0
176 1 53.427396721311474 12.130403278688526 8.9241464104e-05 0.0 0.0 0.0
177 1 56.05700983606558 12.047950163934427 5.29377518753e-07 0.0 0.0 0.0
178 1 58.605836065573776 12.196699016393444 8.9457172631e-05 0.0 0.0 0.0
179 1 61.34097704918033 12.10364262295082 5.54157764021e-05 0.0 0.0 0.0
180 1 64.05440655737706 12.12444524590164 9.77812229217e-05 0.0 0.0 0.0
181 1 66.6092918032787 12.630221639344263 4.22931607992e-05 0.0 0.0 0.0
182 1 69.16367213114755 12.5533731147541 5.55600693556e-05 0.0 0.0 0.0
183 1 71.77409836065574 12.191245901639345 1.16989623318e-05 0.0 0.0 0.0
184 1 74.44561967213116 12.214977049180328 7.02188039465e-05 0.0 0.0 0.0
185 1 77.05604590163935 12.57144918032787 9.93156063585e-05 0.0 0.0 0.0
186 1 79.75432786885247 12.628353442622952 7.17375523142e-05 0.0 0.0 0.0
187 1 1.2330249836065574 14.786322622950822 1.61656511817e-05 0.0 0.0 0.0
188 1 4.022404262295082 15.147389508196722 5.61197407027e-05 0.0 0.0 0.0
189 1 7.418003278688525 14.794199344262296 3.09449077028e-05 0.0 0.0 0.0
190 1 8.921699672131147 14.468022295081969 5.72558567111e-05 0.0 0.0 0.0
191 1 11.501224918032788 14.324019672131149 2.6515130648e-05 0.0 0.0 0.0
192 1 14.182693114754098 14.428083278688526 9.74695767005e-05 0.0 0.0 0.0
193 1 16.807055081967217 14.765570491803281 9.88924797227e-05 0.0 0.0 0.0
194 1 19.447372459016396 14.979807213114755 6.67657541648e-05 0.0 0.0 0.0
195 1 22.109906229508198 14.647419672131148 9.88320330211e-05 0.0 0.0 0.0
196 1 24.971781639344265 14.569308852459018 8.68817286563e-05 0.0 0.0 0.0
197 1 27.79210229508197 14.698870819672132 3.37691988299e-05 0.0 0.0 0.0
198 1 30.51916459016394 14.810508196721313 9.63935660796e-05 0.0 0.0 0.0
199 1 33.18215278688525 14.758804590163937 6.30277593e-05 0.0 0.0 0.0
200 1 35.92870491803279 14.552242622950821 4.02048190122e-05 0.0 0.0 0.0
201 1 38.71221704918033 14.460246557377051 4.98624776741e-05 0.0 0.0 0.0
202 1 41.44912524590164 14.522401967213117 9.18992402231e-05 0.0 0.0 0.0
203 1 44.1250393442623 14.508314754098363 5.98739721539e-05 0.0 0.0 0.0
204 1 46.8501324590164 14.487916065573772 5.20553732163e-06 0.0 0.0 0.0
205 1 49.63177639344263 14.522704918032789 3.28185502452e-05 0.0 0.0 0.0
206 1 52.36757377049181 14.56728918032787 8.87946986323e-05 0.0 0.0 0.0
207 1 54.97244590163935 14.385013770491804 5.5063456911e-05 0.0 0.0 0.0
208 1 57.20923278688525 15.723551475409836 5.67654364817e-06 0.0 0.0 0.0
209 1 59.864596721311486 14.40132262295082 8.35566895348e-05 0.0 0.0 0.0
210 1 62.6704262295082 14.37865180327869 3.69913863492e-05 0.0 0.0 0.0
211 1 65.26419016393443 14.700284590163935 1.17582944459e-05 0.0 0.0 0.0
212 1 67.95388852459017 14.945977704918034 5.84876060936e-05 0.0 0.0 0.0
213 1 70.69508852459018 14.703617049180329 6.53144324092e-06 0.0 0.0 0.0
214 1 73.30299016393444 14.477716721311477 4.45580830325e-05 0.0 0.0 0.0
215 1 75.55290491803278 15.894466229508197 3.92116684333e-05 0.0 0.0 0.0
216 1 78.36832786885248 14.92684131147541 1.67352807796e-05 0.0 0.0 0.0
217 1 81.17062295081968 14.823080655737705 2.32471881011e-05 0.0 0.0 0.0
218 1 82.50663606557379 17.078095081967216 7.16444584454e-05 0.0 0.0 0.0
219 1 2.359047737704918 17.169081311475413 4.94938313295e-05 0.0 0.0 0.0
220 1 4.906712655737706 17.613560655737707 4.90490399281e-05 0.0 0.0 0.0
221 1 7.516916721311476 17.49020918032787 8.34307228644e-05 0.0 0.0 0.0
222 1 11.047000655737705 16.588324590163936 3.98974806773e-05 0.0 0.0 0.0
223 1 12.591544918032788 16.631343606557376 8.7677023353e-05 0.0 0.0 0.0
224 1 15.176068852459018 16.899455081967215 2.15719816985e-05 0.0 0.0 0.0
225 1 17.89490098360656 17.21422098360656 6.78944970636e-06 0.0 0.0 0.0
226 1 20.939758688524595 17.142472131147542 5.00145741951e-05 0.0 0.0 0.0
227 1 23.668891147540986 16.7244 3.05728694956e-06 0.0 0.0 0.0
228 1 26.446849180327874 16.804429508196723 6.23227096914e-05 0.0 0.0 0.0
229 1 29.157501639344265 17.038156065573773 6.49887882307e-05 0.0 0.0 0.0
230 1 31.902135081967216 17.135403278688525 3.86533248699e-06 0.0 0.0 0.0
231 1 34.58077573770492 16.906069508196722 5.64632702078e-05 0.0 0.0 0.0
232 1 37.44199475409837 16.70248655737705 2.20248970006e-05 0.0 0.0 0.0
233 1 40.19177836065574 16.742425573770497 7.00145412384e-05 0.0 0.0 0.0
234 1 42.837952786885246 16.825636065573775 7.86341947167e-05 0.0 0.0 0.0
235 1 45.46312262295082 16.75555344262295 3.95002367964e-05 0.0 0.0 0.0
236 1 48.2730924590164 16.703445901639345 6.10049978695e-06 0.0 0.0 0.0
237 1 51.0396393442623 16.803167213114758 2.27781993981e-05 0.0 0.0 0.0
238 1 53.71015081967214 16.872492459016396 7.00502549636e-05 0.0 0.0 0.0
239 1 56.38520655737705 17.05168786885246 5.50339291807e-05 0.0 0.0 0.0
240 1 59.696963934426236 16.663910819672132 8.54584499483e-05 0.0 0.0 0.0
241 1 61.22030163934427 16.53424786885246 3.91792981191e-05 0.0 0.0 0.0
242 1 63.88323934426231 16.87607737704918 1.20852718156e-05 0.0 0.0 0.0
243 1 66.51436721311477 17.088647868852462 3.65428024068e-06 0.0 0.0 0.0
244 1 69.24546885245903 17.04795147540984 1.37162502536e-05 0.0 0.0 0.0
245 1 72.03817049180329 16.974940327868854 8.94100188559e-05 0.0 0.0 0.0
246 1 74.7748262295082 17.240022295081967 1.25502809083e-05 0.0 0.0 0.0
247 1 77.24135081967215 17.36958426229508 1.43248298665e-05 0.0 0.0 0.0
248 1 79.90832786885247 17.085719344262298 6.46029535616e-05 0.0 0.0 0.0
249 1 1.0243221639344264 19.541539672131147 4.68318268481e-05 0.0 0.0 0.0
250 1 3.494855803278689 19.73785180327869 4.4820863554e-05 0.0 0.0 0.0
251 1 6.120818360655739 19.859183606557377 4.40162265417e-05 0.0 0.0 0.0
252 1 8.770577704918034 19.66009442622951 7.58773187283e-05 0.0 0.0 0.0
253 1 11.268104262295083 19.314680000000003 3.77700568428e-05 0.0 0.0 0.0
254 1 13.933112131147542 19.14856196721312 4.38040220124e-05 0.0 0.0 0.0
255 1 16.551869508196724 19.27554885245902 7.10580331381e-05 0.0 0.0 0.0
256 1 18.692166557377053 18.53927737704918 6.79475360312e-05 0.0 0.0 0.0
257 1 22.30318885245902 19.10599737704918 5.39660853501e-05 0.0 0.0 0.0
258 1 24.926238032786888 18.936849836065576 7.28210206474e-05 0.0 0.0 0.0
259 1 27.49551344262295 19.18188655737705 1.7255496148e-05 0.0 0.0 0.0
260 1 30.29619278688525 19.35739606557377 3.66899375814e-05 0.0 0.0 0.0
261 1 33.628550819672135 19.3317462295082 1.60614032689e-06 0.0 0.0 0.0
262 1 36.28088524590164 18.876714098360658 6.1585650463e-05 0.0 0.0 0.0
263 1 38.97785442622951 18.943565245901638 3.06755187714e-07 0.0 0.0 0.0
264 1 41.55924786885246 19.12341704918033 3.51453118495e-05 0.0 0.0 0.0
265 1 44.21011803278689 19.1500262295082 3.97647384721e-05 0.0 0.0 0.0
266 1 46.879316721311476 18.880349508196723 3.2011933437e-05 0.0 0.0 0.0
267 1 49.5811331147541 18.963862950819674 7.05949213661e-05 0.0 0.0 0.0
268 1 52.20953442622952 19.17077836065574 4.63264056263e-05 0.0 0.0 0.0
269 1 54.72301639344263 19.30422819672131 6.97323788072e-06 0.0 0.0 0.0
270 1 57.20014426229509 19.649592131147543 4.55367979293e-05 0.0 0.0 0.0
271 1 59.72170491803279 19.32523278688525 3.74001924906e-05 0.0 0.0 0.0
272 1 62.43008524590165 18.973506885245904 2.25602646086e-05 0.0 0.0 0.0
273 1 65.06777704918034 19.31866885245902 7.39143548067e-05 0.0 0.0 0.0
274 1 67.6984 19.320537049180327 8.71565620316e-05 0.0 0.0 0.0
275 1 70.34518032786886 19.184209180327873 1.54192510076e-05 0.0 0.0 0.0
276 1 73.05760000000001 19.366333114754102 8.09308312728e-05 0.0 0.0 0.0
277 1 76.01389508196722 19.755624918032787 7.39146498876e-05 0.0 0.0 0.0
278 1 78.66774426229509 19.49685442622951 5.59509253741e-05 0.0 0.0 0.0
279 1 81.20647213114755 19.4549462295082 9.13533664669e-05 0.0 0.0 0.0
280 1 82.38444590163935 21.92939803278689 3.28219597604e-05 0.0 0.0 0.0
281 1 2.213878754098361 22.086831475409838 5.1664151887e-06 0.0 0.0 0.0
282 1 4.810631803278689 22.11409704918033 7.88054909582e-05 0.0 0.0 0.0
283 1 7.571548852459017 22.026493770491804 1.40551319541e-05 0.0 0.0 0.0
284 1 10.2587731147541 21.858305573770494 5.47542500402e-05 0.0 0.0 0.0
285 1 12.894849180327869 21.53384524590164 2.94635530947e-05 0.0 0.0 0.0
286 1 15.517241967213115 21.533340327868853 1.3798889715e-05 0.0 0.0 0.0
287 1 18.239406557377052 21.43306360655738 3.75976834482e-05 0.0 0.0 0.0
288 1 20.99908655737705 21.443212459016394 9.23650168522e-05 0.0 0.0 0.0
289 1 23.73195540983607 21.311529836065578 6.60182969393e-05 0.0 0.0 0.0
290 1 26.165862295081972 22.42598491803279 9.79143806469e-05 0.0 0.0 0.0
291 1 28.863538360655742 21.42796393442623 6.05822835607e-05 0.0 0.0 0.0
292 1 31.22564590163935 20.593182950819674 3.38475918872e-05 0.0 0.0 0.0
293 1 35.92123213114755 21.117439344262298 2.68062269339e-06 0.0 0.0 0.0
294 1 37.45456721311476 21.14495737704918 6.77443603584e-05 0.0 0.0 0.0
295 1 40.015158032786886 21.399537049180328 8.11200131953e-05 0.0 0.0 0.0
296 1 42.76125573770492 21.479465573770494 1.36185478109e-05 0.0 0.0 0.0
297 1 46.370914754098365 21.111481311475412 6.63894629201e-05 0.0 0.0 0.0
298 1 47.910258360655746 21.13930229508197 1.80277134382e-05 0.0 0.0 0.0
299 1 50.469839344262304 21.359749508196725 6.21358689479e-05 0.0 0.0 0.0
300 1 53.15221639344263 21.679362622950823 8.41786475106e-05 0.0 0.0 0.0
301 1 56.0984131147541 21.883753442622954 2.60737209431e-05 0.0 0.0 0.0
302 1 58.87293770491804 21.807106885245904 9.42951604977e-05 0.0 0.0 0.0
303 1 61.435396721311484 21.327283278688526 6.46442280463e-05 0.0 0.0 0.0
304 1 63.68783606557378 22.634415081967216 6.72122941731e-05 0.0 0.0 0.0
305 1 66.42247213114754 21.67719147540984 8.35902607714e-05 0.0 0.0 0.0
306 1 68.99553442622951 21.570603278688527 6.98543451269e-05 0.0 0.0 0.0
307 1 71.5292131147541 21.497339672131147 3.25686616307e-05 0.0 0.0 0.0
308 1 73.70540983606558 20.768641967213117 9.88802016425e-05 0.0 0.0 0.0
309 1 77.25094426229509 21.88228918032787 7.43565976019e-05 0.0 0.0 0.0
310 1 79.7760393442623 21.857598688524593 5.08441648414e-05 0.0 0.0 0.0
311 1 0.7240575081967214 24.42303672131148 7.69330717184e-05 0.0 0.0 0.0
312 1 3.7060882622950824 24.45040327868853 3.23185346515e-05 0.0 0.0 0.0
313 1 6.418114098360657 24.244548196721315 3.98580430667e-05 0.0 0.0 0.0
314 1 9.04293049180328 24.19334950819672 1.62506837249e-05 0.0 0.0 0.0
315 1 11.658102950819673 23.991180327868854 3.28588356642e-05 0.0 0.0 0.0
316 1 14.313214426229509 23.888379016393444 1.08547230739e-05 0.0 0.0 0.0
317 1 16.84058163934426 23.781033442622952 7.27986114774e-05 0.0 0.0 0.0
318 1 19.49564262295082 23.740892459016397 6.61805268164e-05 0.0 0.0 0.0
319 1 22.755696393442626 23.663084590163937 1.21542820239e-07 0.0 0.0 0.0
320 1 25.54451016393443 23.8230931147541 8.71102169044e-05 0.0 0.0 0.0
321 1 27.986142295081972 23.922561967213117 3.46762498664e-06 0.0 0.0 0.0
322 1 30.468420327868856 23.389873442622953 4.42090054723e-05 0.0 0.0 0.0
323 1 33.15609901639345 23.381441311475413 2.38919875851e-05 0.0 0.0 0.0
324 1 35.680184262295086 23.80042229508197 1.9020791312e-05 0.0 0.0 0.0
325 1 38.406489180327874 23.659954098360657 9.75721036775e-05 0.0 0.0 0.0
326 1 41.1094668852459 23.677222295081968 5.97966733483e-05 0.0 0.0 0.0
327 1 43.7845731147541 23.876059016393445 4.9186200537e-05 0.0 0.0 0.0
328 1 46.3672793442623 23.739933114754102 9.10315231119e-05 0.0 0.0 0.0
329 1 49.09338229508197 23.651774426229508 1.04515642527e-05 0.0 0.0 0.0
330 1 51.67230163934426 23.771339016393444 6.93936274915e-05 0.0 0.0 0.0
331 1 53.79699672131149 23.090305573770497 7.61718614475e-05 0.0 0.0 0.0
332 1 57.55055737704919 24.00552 7.06271387455e-05 0.0 0.0 0.0
333 1 60.25540327868853 23.902516721311475 2.82653084012e-05 0.0 0.0 0.0
334 1 62.96075409836066 23.9887062295082 7.86263183243e-05 0.0 0.0 0.0
335 1 65.46413770491803 24.148310819672133 9.59383432924e-05 0.0 0.0 0.0
336 1 68.0064 23.989514098360658 5.3709257912e-05 0.0 0.0 0.0
337 1 70.45222295081969 23.913675409836067 7.00095828515e-05 0.0 0.0 0.0
338 1 73.02276065573771 23.636576393442624 5.01951989845e-05 0.0 0.0 0.0
339 1 75.60339672131148 24.00375278688525 8.34715557539e-05 0.0 0.0 0.0
340 1 78.21533770491804 24.238034754098365 7.27894769811e-05 0.0 0.0 0.0
341 1 80.75659016393443 24.201327213114755 4.79867348477e-05 0.0 0.0 0.0
342 1 81.99212459016394 26.577420983606558 6.308683294e-05 0.0 0.0 0.0
343 1 1.4442927868852462 25.782225573770493 2.69331891559e-05 0.0 0.0 0.0
344 1 5.160767213114755 26.554447213114756 3.9420999935e-06 0.0 0.0 0.0
345 1 7.764074098360656 26.5304131147541 4.0282084135e-05 0.0 0.0 0.0
346 1 10.335470163934428 26.413070163934428 2.96993128614e-06 0.0 0.0 0.0
347 1 12.845215737704919 26.22872459016394 2.51082471408e-05 0.0 0.0 0.0
348 1 15.496035409836068 26.27320786885246 3.7369498085e-05 0.0 0.0 0.0
349 1 18.319890491803278 26.074017704918035 6.40808317072e-05 0.0 0.0 0.0
350 1 20.430144918032788 24.97314491803279 3.64817646171e-05 0.0 0.0 0.0
351 1 24.150683934426233 25.916584262295085 6.71822794203e-05 0.0 0.0 0.0
352 1 26.73919672131148 26.313904262295086 5.57897390116e-05 0.0 0.0 0.0
353 1 29.402992786885246 26.034482622950822 4.40365622603e-05 0.0 0.0 0.0
354 1 32.04366360655738 25.61989442622951 9.27524346142e-05 0.0 0.0 0.0
355 1 34.43212786885246 27.03351344262295 9.71131031453e-05 0.0 0.0 0.0
356 1 37.12753180327869 26.029332459016395 1.15675234299e-05 0.0 0.0 0.0
357 1 39.77284786885246 25.963137704918033 4.61482422872e-06 0.0 0.0 0.0
358 1 42.48839803278689 26.046651147540988 7.89093287374e-05 0.0 0.0 0.0
359 1 45.236919344262304 26.141727213114756 5.48334172667e-06 0.0 0.0 0.0
360 1 47.97019213114754 25.95798754098361 7.02055606974e-05 0.0 0.0 0.0
361 1 50.62106229508197 26.071392131147544 2.56236732744e-05 0.0 0.0 0.0
362 1 53.238052459016394 25.99212 3.1362803957e-05 0.0 0.0 0.0
363 1 55.93179016393443 26.06265704918033 8.96292887865e-05 0.0 0.0 0.0
364 1 58.704800000000006 26.195500983606557 3.6330226996e-05 0.0 0.0 0.0
365 1 61.426813114754104 26.206912131147543 6.87817565558e-05 0.0 0.0 0.0
366 1 64.10489836065574 26.459219672131148 2.43874350679e-05 0.0 0.0 0.0
367 1 66.81327868852459 26.441396065573773 7.18340527296e-06 0.0 0.0 0.0
368 1 69.50600655737705 26.4072131147541 3.34053690667e-05 0.0 0.0 0.0
369 1 71.98666885245902 26.12041967213115 1.84829085031e-05 0.0 0.0 0.0
370 1 74.30575737704918 27.350601967213116 9.96416181477e-05 0.0 0.0 0.0
371 1 77.00201967213115 26.46694491803279 3.00429861509e-06 0.0 0.0 0.0
372 1 79.456931147541 26.613825573770495 8.07026423573e-05 0.0 0.0 0.0
373 1 0.896128524590164 28.6719724590164 5.45134961138e-05 0.0 0.0 0.0
374 1 3.611456524590164 28.647837377049182 7.95870639211e-05 0.0 0.0 0.0
375 1 6.364289836065574 28.86202360655738 1.69616841219e-05 0.0 0.0 0.0
376 1 9.047272786885246 28.82885049180328 1.54777667246e-05 0.0 0.0 0.0
377 1 11.606348852459018 28.722969180327873 6.58980323996e-05 0.0 0.0 0.0
378 1 14.131999344262297 28.533220983606558 1.26317729112e-05 0.0 0.0 0.0
379 1 16.22059278688525 27.636032131147545 8.26860372583e-05 0.0 0.0 0.0
380 1 19.90336393442623 27.923936393442624 6.33692977189e-05 0.0 0.0 0.0
381 1 22.429418360655742 27.880160000000004 6.37600254808e-05 0.0 0.0 0.0
382 1 25.072664262295085 28.428803934426234 7.51548949941e-05 0.0 0.0 0.0
383 1 28.21789967213115 28.469399344262296 5.15980416026e-05 0.0 0.0 0.0
384 1 30.949001311475413 28.10469704918033 1.613720974e-05 0.0 0.0 0.0
385 1 33.70262229508197 28.382502950819674 7.79551620883e-05 0.0 0.0 0.0
386 1 36.16727868852459 28.57795672131148 3.6523584309e-05 0.0 0.0 0.0
387 1 38.60653770491803 28.33448524590164 6.39451420211e-05 0.0 0.0 0.0
388 1 41.27300983606558 28.252840000000003 7.50297236058e-05 0.0 0.0 0.0
389 1 43.95574032786886 28.305048524590166 5.75904747362e-05 0.0 0.0 0.0
390 1 46.686993442622956 28.278237377049184 4.33258982294e-05 0.0 0.0 0.0
391 1 49.436928524590165 28.34301836065574 6.49245418559e-05 0.0 0.0 0.0
392 1 52.03634754098361 28.424057704918038 1.9034284081e-05 0.0 0.0 0.0
393 1 54.58870819672132 28.354833442622954 3.31288318071e-05 0.0 0.0 0.0
394 1 57.296078688524595 28.349127868852463 7.49121691558e-06 0.0 0.0 0.0
395 1 59.98274754098361 28.453948852459018 7.20970484475e-05 0.0 0.0 0.0
396 1 62.69163278688526 28.604313442622956 5.90075589097e-05 0.0 0.0 0.0
397 1 65.37779672131148 28.700298360655744 9.73384559945e-06 0.0 0.0 0.0
398 1 68.06244590163935 28.700500327868856 6.9138435892e-05 0.0 0.0 0.0
399 1 70.83192131147541 28.75508196721312 3.68953305019e-05 0.0 0.0 0.0
400 1 74.31131147540985 28.881563934426232 2.15481838131e-05 0.0 0.0 0.0
401 1 75.83414426229508 28.957806557377054 4.95137321288e-05 0.0 0.0 0.0
402 1 78.23704918032787 29.00951016393443 5.47717754288e-05 0.0 0.0 0.0
403 1 80.87777049180329 28.97628655737705 7.89246983979e-06 0.0 0.0 0.0
404 1 82.37434754098362 31.080229508196723 3.57066124689e-05 0.0 0.0 0.0
405 1 2.3218908196721317 30.92749180327869 6.89924796355e-05 0.0 0.0 0.0
406 1 5.000895016393443 30.962078688524592 4.1533350389e-05 0.0 0.0 0.0
407 1 7.779777049180328 31.117997377049186 2.04706630901e-05 0.0 0.0 0.0
408 1 10.392828852459019 31.15500786885246 4.86267223009e-05 0.0 0.0 0.0
409 1 13.061522622950822 31.011055737704922 7.38892518511e-05 0.0 0.0 0.0
410 1 15.74006229508197 30.578139016393447 1.36336822635e-05 0.0 0.0 0.0
411 1 18.42041967213115 30.311744262295086 4.46199043201e-05 0.0 0.0 0.0
412 1 21.049376393442625 30.316389508196725 8.47772615214e-05 0.0 0.0 0.0
413 1 23.624811803278693 30.392278688524595 3.00183585347e-05 0.0 0.0 0.0