ITEM: TIMESTEP
0
ITEM: NUMBER OF ATOMS
2232
ITEM: BOX BOUNDS xy xz yz pp pp pp
0.0 82.68810555352132 0
0.0 83.16 0
-10.0 10.0 0
ITEM: ATOMS id type x y z vx vy vz
1 1 1.465166098360656 0.9566025573770494 6.1439546182e-05 0.0 0.0 0.0
2 1 4.054340327868853 0.7005939672131148 7.86404213296e-05 0.0 0.0 0.0
3 1 6.343032786885247 1.9642876721311477 2.15595831559e-05 0.0 0.0 0.0
4 1 9.090544262295083 0.936133180327869 1.13380607988e-05 0.0 0.0 0.0
5 1 11.81493049180328 0.8774314098360657 8.52867642586e-05 0.0 0.0 0.0
6 1 14.53845836065574 0.8979310819672132 8.02047370564e-05 0.0 0.0 0.0
7 1 17.256735081967214 0.941096524590164 8.4564064372e-05 0.0 0.0 0.0
8 1 19.993946229508197 0.8788603278688525 6.0792693855e-05 0.0 0.0 0.0
9 1 22.734186885245904 0.7902775081967215 8.39843423241e-05 0.0 0.0 0.0
10 1 25.51204393442623 0.7996538360655739 8.00130634035e-05 0.0 0.0 0.0
11 1 28.31524786885246 0.6928535737704918 1.24528729903e-05 0.0 0.0 0.0
12 1 31.00055344262295 0.49281161311475413 1.45056393906e-05 0.0 0.0 0.0
13 1 33.61966426229509 0.22393922622950824 6.06850773022e-05 0.0 0.0 0.0
14 1 36.27235213114754 0.40982227540983607 4.03963461589e-06 0.0 0.0 0.0
15 1 38.79694229508197 0.685491868852459 7.08123984373e-05 0.0 0.0 0.0
16 1 41.434836065573776 0.8536346229508197 6.42125999295e-05 0.0 0.0 0.0
17 1 44.086716065573775 0.8708775737704919 8.74627325636e-05 0.0 0.0 0.0
18 1 46.74728065573771 1.0148297049180328 5.82290595704e-06 0.0 0.0 0.0
19 1 49.445562622950824 0.9002234098360656 7.91725648617e-05 0.0 0.0 0.0
20 1 52.302944262295085 0.7839104918032788 5.05013419126e-05 0.0 0.0 0.0
21 1 55.13856393442624 0.7735293770491803 3.31188182412e-05 0.0 0.0 0.0
22 1 58.02921967213115 0.5917386885245902 5.22533220058e-05 0.0 0.0 0.0
23 1 61.09861639344263 1.0859272131147542 9.49254243467e-05 0.0 0.0 0.0
24 1 62.67194098360657 0.7621788196721312 6.29028501784e-06 0.0 0.0 0.0
25 1 65.46363278688524 0.6839518688524591 2.29017141192e-05 0.0 0.0 0.0
26 1 68.23714754098361 0.587628655737705 2.07262854123e-05 0.0 0.0 0.0
27 1 70.95815081967213 0.6109407213114755 1.04391777742e-05 0.0 0.0 0.0
28 1 73.56150819672132 0.6197818360655738 9.97695738178e-05 0.0 0.0 0.0
29 1 76.29614426229509 0.8241575081967214 7.84917197576e-05 0.0 0.0 0.0
30 1 78.95251803278688 0.9041163278688527 1.23135866881e-05 0.0 0.0 0.0
31 1 81.51497704918035 0.9462466885245903 7.78518427679e-05 0.0 0.0 0.0
32 1 0.19710232786885248 3.292918885245902 9.48906785665e-05 0.0 0.0 0.0
33 1 2.887747409836066 3.212561180327869 8.68508502395e-05 0.0 0.0 0.0
34 1 5.621050491803279 3.327445180327869 1.15988878464e-05 0.0 0.0 0.0
35 1 8.122313442622952 3.4083582950819675 7.65927126619e-05 0.0 0.0 0.0
36 1 10.712795409836065 3.156086098360656 1.2502579294e-06 0.0 0.0 0.0
37 1 13.380883278688527 3.1341272131147546 9.21374627075e-05 0.0 0.0 0.0
38 1 16.04225573770492 3.174682229508197 1.5538404639e-05 0.0 0.0 0.0
39 1 18.71307016393443 3.159130754098361 4.10278566154e-05 0.0 0.0 0.0
40 1 21.406403934426233 3.0865740327868854 7.53601487989e-05 0.0 0.0 0.0
41 1 24.12225704918033 3.016804459016394 5.6172410017e-05 0.0 0.0 0.0
42 1 26.871232786885248 2.9499482622950826 8.45750612385e-05 0.0 0.0 0.0
43 1 29.630660327868856 2.9183353442622955 9.17063808958e-05 0.0 0.0 0.0
44 1 33.15604852459017 2.5102504918032786 1.41828850114e-05 0.0 0.0 0.0
45 1 34.6983206557377 2.5943900327868854 3.40654614137e-05 0.0 0.0 0.0
46 1 37.295164590163935 2.943040983606558 1.21834600631e-05 0.0 0.0 0.0
47 1 39.955577704918035 3.0898862950819677 9.76371495841e-05 0.0 0.0 0.0
48 1 42.60018688524591 3.1655886557377055 9.29275685914e-05 0.0 0.0 0.0
49 1 45.24656327868853 3.217236721311476 6.0255233207e-06 0.0 0.0 0.0
50 1 47.94277508196722 3.185649049180328 2.88183159792e-06 0.0 0.0 0.0
51 1 50.71851147540984 3.025993967213115 7.78188153531e-05 0.0 0.0 0.0
52 1 53.90908852459017 3.011119081967214 7.10651481399e-05 0.0 0.0 0.0
53 1 56.63564590163935 2.8846472131147545 1.41517489647e-05 0.0 0.0 0.0
54 1 59.25718032786886 3.350615868852459 2.19833992894e-05 0.0 0.0 0.0
55 1 61.59192131147541 3.6341121967213117 3.6160333503e-05 0.0 0.0 0.0
56 1 64.25132459016395 3.042015016393443 3.45607105062e-05 0.0 0.0 0.0
57 1 66.94253770491804 2.917618360655738 5.54364880229e-05 0.0 0.0 0.0
58 1 69.73776393442623 2.904303672131148 8.72152723641e-05 0.0 0.0 0.0
59 1 72.41736393442623 3.015602754098361 7.52488952463e-05 0.0 0.0 0.0
60 1 75.02173114754099 2.934962295081968 9.18640315692e-05 0.0 0.0 0.0
61 1 77.69224262295083 3.157722032786886 4.54673712012e-06 0.0 0.0 0.0
62 1 80.24157377049181 3.310893967213115 3.62447089305e-05 0.0 0.0 0.0
63 1 1.4890436721311477 5.560813770491803 5.21749579708e-05 0.0 0.0 0.0
64 1 4.199842557377049 5.544555409836066 7.658652262e-05 0.0 0.0 0.0
65 1 6.877488524590165 5.7768681967213125 2.61839229832e-05 0.0 0.0 0.0
66 1 9.489025573770492 5.615294426229509 9.06195111481e-05 0.0 0.0 0.0
67 1 12.20957442622951 5.432918032786886 6.6521557578e-05 0.0 0.0 0.0
68 1 14.846306885245903 5.456396721311476 9.35293413965e-06 0.0 0.0 0.0
69 1 17.439666885245902 5.4753816393442625 7.42401073497e-05 0.0 0.0 0.0
70 1 20.074884590163936 5.415750819672132 3.91349842219e-05 0.0 0.0 0.0
71 1 22.733833442622952 5.325572459016394 2.64494895034e-05 0.0 0.0 0.0
72 1 25.402224262295086 5.22984 7.6664774858e-06 0.0 0.0 0.0
73 1 28.054053770491805 5.171420983606558 6.49739608353e-05 0.0 0.0 0.0
74 1 30.667913442622954 5.34228524590164 9.69411525935e-05 0.0 0.0 0.0
75 1 33.21280131147541 5.195657049180329 9.83951948666e-05 0.0 0.0 0.0
76 1 35.94319606557377 5.144963278688525 1.70147832924e-05 0.0 0.0 0.0
77 1 38.600125245901644 5.336983606557378 8.29849217309e-05 0.0 0.0 0.0
78 1 41.239887213114756 5.4538216393442625 6.59705207389e-05 0.0 0.0 0.0
79 1 43.87894229508197 5.499567213114754 8.48846917669e-06 0.0 0.0 0.0
80 1 46.56237967213115 5.450539672131148 7.57845054609e-05 0.0 0.0 0.0
81 1 49.273032131147545 5.25756 1.38814093939e-05 0.0 0.0 0.0
82 1 51.518301639344266 4.342794950819672 6.96555641109e-05 0.0 0.0 0.0
83 1 55.16936393442623 5.194142295081968 6.65449892508e-05 0.0 0.0 0.0
84 1 57.54197377049181 5.433422950819672 8.18693977793e-05 0.0 0.0 0.0
85 1 60.0216262295082 5.926778360655738 9.96774017849e-05 0.0 0.0 0.0
86 1 62.77191475409837 5.579596721311476 3.30276673622e-05 0.0 0.0 0.0
87 1 65.81404590163935 5.316584918032787 6.88389151187e-05 0.0 0.0 0.0
88 1 68.53353442622951 5.122241967213116 2.50690685085e-05 0.0 0.0 0.0
89 1 71.18031475409836 5.304870819672131 2.87645625975e-05 0.0 0.0 0.0
90 1 74.59558032786886 5.1257763934426235 5.78545675061e-05 0.0 0.0 0.0
91 1 76.13659016393443 5.304315409836066 7.93206353259e-05 0.0 0.0 0.0
92 1 78.76822295081969 5.626604590163935 1.56458618398e-05 0.0 0.0 0.0
93 1 81.46549508196722 5.636753442622951 3.08052050769e-05 0.0 0.0 0.0
94 1 0.07874853114754099 7.887425573770493 8.39242437842e-05 0.0 0.0 0.0
95 1 2.84276931147541 7.83748918032787 4.02175472802e-05 0.0 0.0 0.0
96 1 5.611002622950821 7.948520655737706 3.38161196194e-05 0.0 0.0 0.0
97 1 8.362351475409838 8.037891147540984 1.02489468856e-05 0.0 0.0 0.0
98 1 10.994539672131149 7.741807213114755 2.09250289709e-05 0.0 0.0 0.0
99 1 13.647782950819673 7.760034754098362 6.61261794118e-05 0.0 0.0 0.0
100 1 16.154902950819675 7.837388196721312 8.84878255237e-05 0.0 0.0 0.0
101 1 18.745586885245903 7.7860885245901645 2.93908979925e-06 0.0 0.0 0.0
102 1 21.375200000000003 7.690103606557377 9.36719566089e-05 0.0 0.0 0.0
103 1 24.02708 7.587049836065575 9.50267437857e-05 0.0 0.0 0.0
104 1 26.68294885245902 7.521965901639344 4.32494499983e-05 0.0 0.0 0.0
105 1 29.348007213114755 7.582556065573772 2.73640296781e-05 0.0 0.0 0.0
106 1 32.06391081967213 7.638601967213115 1.22815604266e-05 0.0 0.0 0.0
107 1 34.75512393442624 7.445319344262296 3.87297065527e-05 0.0 0.0 0.0
108 1 37.38912983606557 7.5684183606557385 9.0650564607e-05 0.0 0.0 0.0
109 1 39.997384918032786 7.731102950819673 4.72655950878e-06 0.0 0.0 0.0
110 1 42.619323278688526 7.805073442622952 9.30634190295e-05 0.0 0.0 0.0
111 1 45.289784262295086 7.74968393442623 4.2601454873e-05 0.0 0.0 0.0
112 1 48.04436459016394 7.581243278688525 2.35415496257e-06 0.0 0.0 0.0
113 1 50.79626885245902 7.215682622950821 1.97388373148e-05 0.0 0.0 0.0
114 1 53.42840655737706 7.2090681967213115 3.67780505838e-05 0.0 0.0 0.0
115 1 55.975213114754105 7.814868852459017 4.37884695874e-05 0.0 0.0 0.0
116 1 58.59927213114755 8.06197573770492 2.50615581234e-05 0.0 0.0 0.0
117 1 61.28291147540984 7.902926557377049 7.72299845425e-05 0.0 0.0 0.0
118 1 63.578268852459026 6.882537704918033 8.13540752461e-05 0.0 0.0 0.0
119 1 67.19550163934427 7.451378360655738 3.83018542526e-05 0.0 0.0 0.0
120 1 69.6696 7.542263606557378 9.51024537145e-05 0.0 0.0 0.0
121 1 72.17247868852459 7.836024918032788 1.57239339437e-05 0.0 0.0 0.0
122 1 74.70009836065574 7.826078032786886 5.7055288764e-05 0.0 0.0 0.0
123 1 77.42160655737706 7.838499016393444 2.64092592364e-05 0.0 0.0 0.0
124 1 80.06788196721313 7.944077377049181 6.8555013265e-05 0.0 0.0 0.0
125 1 1.4727247213114756 10.09321049180328 4.31550315136e-05 0.0 0.0 0.0
126 1 4.238822229508197 10.110933114754099 3.49708243542e-05 0.0 0.0 0.0
127 1 7.06052131147541 10.240949508196723 8.24665266881e-05 0.0 0.0 0.0
128 1 10.617315409836067 9.960619016393444 2.91091876496e-05 0.0 0.0 0.0
129 1 12.157113442622952 10.026359344262294 1.26681551482e-05 0.0 0.0 0.0
130 1 14.74784786885246 10.226155409836066 3.42205088635e-05 0.0 0.0 0.0
131 1 17.385085245901642 10.18561049180328 6.64153880154e-05 0.0 0.0 0.0
132 1 20.02 10.08048655737705 3.65264618651e-05 0.0 0.0 0.0
133 1 22.683089180327872 9.960316065573773 5.27447243191e-05 0.0 0.0 0.0
134 1 25.35425704918033 9.870491147540985 9.7694846765e-05 0.0 0.0 0.0
135 1 28.014417704918035 9.851708196721313 4.72501483626e-05 0.0 0.0 0.0
136 1 30.72002098360656 9.85953442622951 6.56285426726e-05 0.0 0.0 0.0
137 1 33.464401967213114 9.814344262295084 4.36920294219e-05 0.0 0.0 0.0
138 1 36.18873770491803 9.848678688524592 8.99945498303e-05 0.0 0.0 0.0
139 1 38.81925967213115 10.012423606557377 9.29071116111e-05 0.0 0.0 0.0
140 1 41.40433901639344 10.12133442622951 6.72460429773e-05 0.0 0.0 0.0
141 1 44.081010491803276 10.080739016393444 7.43594756973e-05 0.0 0.0 0.0
142 1 46.768739672131154 9.870945573770493 9.17592810464e-05 0.0 0.0 0.0
143 1 49.52468327868853 9.587484590163935 3.61058687752e-05 0.0 0.0 0.0
144 1 52.14490491803279 9.554412459016394 6.19692879866e-05 0.0 0.0 0.0
145 1 54.46146885245902 10.996155409836065 3.24049539918e-05 0.0 0.0 0.0
146 1 57.3728262295082 10.289017704918034 6.5174888295e-05 0.0 0.0 0.0
147 1 60.19986229508198 10.257561311475412 2.78365301969e-05 0.0 0.0 0.0
148 1 62.91884590163935 9.723660983606559 4.46370658422e-05 0.0 0.0 0.0
149 1 65.62975081967214 9.607125901639346 9.98378971071e-05 0.0 0.0 0.0
150 1 68.17352786885247 9.921538360655738 2.81253996615e-05 0.0 0.0 0.0
151 1 70.77940983606558 10.085535737704918 2.184965376e-05 0.0 0.0 0.0
152 1 73.45244590163935 10.220399344262297 4.71920794523e-05 0.0 0.0 0.0
153 1 76.18607213114755 10.139259016393444 9.48773371801e-05 0.0 0.0 0.0
154 1 78.7944786885246 10.270083278688526 4.13572246968e-05 0.0 0.0 0.0
155 1 81.41550819672132 10.229841311475411 7.12350760577e-06 0.0 0.0 0.0
156 1 0.2970569114754099 12.400281967213116 1.04166066921e-05 0.0 0.0 0.0
157 1 2.829873704918033 12.320959344262297 7.15118505315e-05 0.0 0.0 0.0
158 1 5.581868852459017 12.33120918032787 6.81064735298e-05 0.0 0.0 0.0
159 1 8.18855868852459 12.665010491803281 7.5875167632e-05 0.0 0.0 0.0
160 1 10.660788852459017 12.607904262295083 1.42275093649e-05 0.0 0.0 0.0
161 1 13.392092459016395 12.520048524590164 3.94365556022e-05 0.0 0.0 0.0
162 1 16.06144262295082 12.55867475409836 2.59554321787e-05 0.0 0.0 0.0
163 1 18.691106229508197 12.478443278688525 6.50349114414e-05 0.0 0.0 0.0
164 1 21.366464918032786 12.33353180327869 8.39680349275e-05 0.0 0.0 0.0
165 1 24.080096393442624 12.21528 8.69113495937e-05 0.0 0.0 0.0
166 1 26.717232786885248 12.169029508196722 6.78836553602e-05 0.0 0.0 0.0
167 1 29.356136393442625 12.119244590163936 5.38737851143e-05 0.0 0.0 0.0
168 1 32.064163278688525 12.065268852459017 8.16769963542e-05 0.0 0.0 0.0
169 1 34.81445180327869 12.080012459016395 2.59127306176e-05 0.0 0.0 0.0
170 1 37.59700459016394 12.276577049180329 1.69894431532e-05 0.0 0.0 0.0
171 1 40.189506229508204 12.465416393442624 6.849668418e-05 0.0 0.0 0.0
172 1 42.877942295081965 12.41174360655738 4.67101695327e-05 0.0 0.0 0.0
173 1 45.71972196721312 12.241687213114757 7.59067753004e-05 0.0 0.0 0.0
174 1 48.47500918032787 11.894303606557378 6.96058513019e-05 0.0 0.0 0.0
175 1 50.76900327868853 13.109136393442625 8.13163182271e-05 0.0 0.0 0.0
176 1 53.68591475409836 12.346508196721313 7.97169011738e-05 0.0 0.0 0.0
177 1 56.29684590163935 12.56109836065574 8.67674140772e-07 0.0 0.0 0.0
178 1 59.00674098360656 12.473798032786886 7.11673607088e-05 0.0 0.0 0.0
179 1 62.548740983606564 11.963679344262296 3.11543638188e-05 0.0 0.0 0.0
180 1 64.09227540983608 11.905765245901641 1.43248184753e-05 0.0 0.0 0.0
181 1 66.66331803278689 12.161253770491804 2.18930245357e-05 0.0 0.0 0.0
182 1 69.33281967213115 12.346508196721313 5.34443923591e-06 0.0 0.0 0.0
183 1 72.00737049180329 12.441028852459018 7.34472612445e-05 0.0 0.0 0.0
184 1 74.6597049180328 12.415782950819674 1.43648538987e-05 0.0 0.0 0.0
185 1 77.35344262295082 12.608156721311477 8.09279373345e-05 0.0 0.0 0.0
186 1 80.31377704918033 12.643349508196723 6.71063065542e-05 0.0 0.0 0.0
187 1 1.6517636065573773 14.773699672131148 4.93421996373e-05 0.0 0.0 0.0
188 1 4.275060196721312 14.515030163934428 2.27359149483e-05 0.0 0.0 0.0
189 1 6.950954098360657 14.790614426229508 3.45659238949e-05 0.0 0.0 0.0
190 1 9.509373770491804 15.06160393442623 3.06574561955e-05 0.0 0.0 0.0
191 1 12.088444590163936 14.845852459016395 1.10165172661e-05 0.0 0.0 0.0
192 1 14.800510819672132 14.879681967213116 4.61733095444e-05 0.0 0.0 0.0
193 1 17.44198950819672 14.884327213114755 6.16616912374e-05 0.0 0.0 0.0
194 1 20.09215278688525 14.71280655737705 8.08250895187e-05 0.0 0.0 0.0
195 1 22.882430819672134 14.525481967213116 7.29835601853e-05 0.0 0.0 0.0
196 1 25.512649836065577 14.517049836065576 3.14686951634e-05 0.0 0.0 0.0
197 1 28.055720000000004 14.46751737704918 2.26614666773e-05 0.0 0.0 0.0
198 1 30.641758688524593 14.348003278688525 6.3882702007e-05 0.0 0.0 0.0
199 1 33.3402931147541 14.28736262295082 3.88290063759e-05 0.0 0.0 0.0
200 1 36.04508852459017 14.35285049180328 6.54906601178e-05 0.0 0.0 0.0
201 1 38.7241331147541 14.776224262295084 2.07982959243e-05 0.0 0.0 0.0
202 1 41.70986491803279 14.766428852459018 5.03697230105e-05 0.0 0.0 0.0
203 1 44.46696983606558 14.479029508196723 2.43057667202e-05 0.0 0.0 0.0
204 1 47.176309508196724 14.334824918032789 9.68988838189e-05 0.0 0.0 0.0
205 1 49.9215993442623 14.415561311475411 9.18703811767e-05 0.0 0.0 0.0
206 1 52.403422950819674 14.652822295081968 6.76758233525e-05 0.0 0.0 0.0
207 1 54.96992131147542 14.779657704918034 1.30077777208e-05 0.0 0.0 0.0
208 1 57.57479344262296 14.779607213114756 1.39280610006e-05 0.0 0.0 0.0
209 1 60.133718032786895 14.867513442622952 2.55971129045e-05 0.0 0.0 0.0
210 1 62.61084590163935 14.654034098360658 8.19460625819e-05 0.0 0.0 0.0
211 1 65.29801967213116 14.443937704918035 2.67369872126e-05 0.0 0.0 0.0
212 1 67.96196721311476 14.567743606557379 3.18107626746e-05 0.0 0.0 0.0
213 1 70.65469508196722 14.692357377049182 5.78590087701e-05 0.0 0.0 0.0
214 1 73.33934426229509 14.743808524590165 1.38776663498e-05 0.0 0.0 0.0
215 1 75.96643278688525 14.76057180327869 8.88045978116e-05 0.0 0.0 0.0
216 1 78.08759344262296 13.977393442622953 9.31809551561e-05 0.0 0.0 0.0
217 1 81.76137704918034 14.791472786885247 3.61882962962e-06 0.0 0.0 0.0
218 1 0.1508402229508197 17.144845245901642 5.92989844473e-05 0.0 0.0 0.0
219 1 3.8178367213114757 16.746515409836068 7.41146940381e-05 0.0 0.0 0.0
220 1 5.346728524590164 16.872542950819675 9.89026695289e-05 0.0 0.0 0.0
221 1 8.0196131147541 17.28455606557377 9.53384292607e-06 0.0 0.0 0.0
222 1 10.707796721311476 17.324495081967218 6.48315260504e-05 0.0 0.0 0.0
223 1 13.320293114754099 17.142775081967216 9.81442724151e-06 0.0 0.0 0.0
224 1 16.110268196721314 17.25617967213115 2.61333588758e-05 0.0 0.0 0.0
225 1 19.053990819672133 17.12651672131148 1.28310119211e-05 0.0 0.0 0.0
226 1 21.848207213114758 16.753836721311476 9.09781924262e-05 0.0 0.0 0.0
227 1 24.419855737704918 16.837602622950822 2.32455039588e-05 0.0 0.0 0.0
228 1 26.909505573770495 16.891275409836066 7.6200648716e-05 0.0 0.0 0.0
229 1 29.34639147540984 16.765096393442626 6.96533213781e-05 0.0 0.0 0.0
230 1 31.905720000000002 16.56631016393443 1.25023180402e-06 0.0 0.0 0.0
231 1 34.67968918032788 16.560251147540985 9.04411499605e-05 0.0 0.0 0.0
232 1 37.27567475409836 16.78610098360656 2.46279603761e-05 0.0 0.0 0.0
233 1 39.37169049180328 16.191459016393445 1.45188909746e-05 0.0 0.0 0.0
234 1 43.0515331147541 16.812457704918035 2.78642207743e-05 0.0 0.0 0.0
235 1 45.69553639344263 16.689762622950823 7.62530305088e-05 0.0 0.0 0.0
236 1 48.327472131147545 16.64674360655738 4.3870769099e-05 0.0 0.0 0.0
237 1 50.941685245901645 16.94429180327869 2.51939505039e-05 0.0 0.0 0.0
238 1 53.58998032786886 17.075217049180328 5.70615814456e-05 0.0 0.0 0.0
239 1 56.23777049180328 17.122376393442625 2.42522905978e-05 0.0 0.0 0.0
240 1 58.86990819672132 17.19064131147541 1.95421943722e-05 0.0 0.0 0.0
241 1 61.513154098360666 17.173676065573773 6.50626690452e-05 0.0 0.0 0.0
242 1 64.09934426229509 16.858102295081967 4.43722293259e-05 0.0 0.0 0.0
243 1 66.69714754098361 16.834775081967216 7.26326930847e-05 0.0 0.0 0.0
244 1 69.36059016393443 16.920661639344264 2.3155383564e-05 0.0 0.0 0.0
245 1 72.08310819672131 17.007204590163937 3.52448478415e-05 0.0 0.0 0.0
246 1 74.8328918032787 17.070975737704916 6.19870293907e-05 0.0 0.0 0.0
247 1 77.5619737704918 16.905312131147543 2.80224643488e-05 0.0 0.0 0.0
248 1 80.2188524590164 16.9594393442623 6.27726249008e-05 0.0 0.0 0.0
249 1 1.2816384918032788 19.455249180327872 2.26595275516e-05 0.0 0.0 0.0
250 1 3.773030295081967 19.344722622950822 5.47611507769e-05 0.0 0.0 0.0
251 1 6.372923934426231 19.33548262295082 5.42903432949e-05 0.0 0.0 0.0
252 1 9.108822295081968 19.59420262295082 7.57276797387e-06 0.0 0.0 0.0
253 1 12.20755475409836 19.585114098360656 4.43417774236e-06 0.0 0.0 0.0
254 1 14.886144918032787 19.347146229508198 6.83262307902e-05 0.0 0.0 0.0
255 1 16.94227213114754 18.571137704918037 3.7775974845e-05 0.0 0.0 0.0
256 1 20.74072 19.012335081967215 5.05579915763e-06 0.0 0.0 0.0
257 1 23.29530229508197 19.144573114754103 7.60756775929e-05 0.0 0.0 0.0
258 1 25.77197573770492 19.2999868852459 8.9580264243e-05 0.0 0.0 0.0
259 1 28.301362622950823 19.3016531147541 6.77472037239e-05 0.0 0.0 0.0
260 1 30.634083934426233 19.026927213114757 7.45773455424e-06 0.0 0.0 0.0
261 1 33.28232852459017 18.712060327868855 3.8347085438e-05 0.0 0.0 0.0
262 1 35.96112065573771 18.991078032786888 3.14132973905e-05 0.0 0.0 0.0
263 1 38.53488983606558 19.12528524590164 8.31901823258e-05 0.0 0.0 0.0
264 1 41.3390531147541 18.97532459016394 4.7199263243e-05 0.0 0.0 0.0
265 1 44.1250393442623 19.052880000000002 8.7589873435e-05 0.0 0.0 0.0
266 1 46.8401855737705 19.00991147540984 3.26660124934e-06 0.0 0.0 0.0
267 1 49.49974032786886 19.128314754098362 2.6372138621e-06 0.0 0.0 0.0
268 1 52.17671475409837 19.314528524590166 1.80714946727e-05 0.0 0.0 0.0
269 1 54.865908196721314 19.40904918032787 4.47991525534e-05 0.0 0.0 0.0
270 1 57.54752786885247 19.477869508196726 6.76121860459e-05 0.0 0.0 0.0
271 1 60.22308852459017 19.49503672131148 7.51508731785e-05 0.0 0.0 0.0
272 1 62.86179016393443 19.368251803278692 3.40795467743e-05 0.0 0.0 0.0
273 1 65.44141639344264 19.22419868852459 8.76215808071e-05 0.0 0.0 0.0
274 1 68.05891147540984 19.198952786885247 9.42452100589e-05 0.0 0.0 0.0
275 1 70.75365901639344 19.227682622950823 7.149027933e-05 0.0 0.0 0.0
276 1 73.5084918032787 19.278123934426233 9.0197410423e-05 0.0 0.0 0.0
277 1 76.25676065573771 19.26752065573771 7.83877442528e-05 0.0 0.0 0.0
278 1 78.91464918032787 19.306853770491806 2.38506260931e-05 0.0 0.0 0.0
279 1 81.45135737704919 19.442474754098363 2.08969982052e-05 0.0 0.0 0.0
280 1 0.8767447213114755 21.619933770491805 9.16682785941e-05 0.0 0.0 0.0
281 1 2.410685704918033 21.773630819672135 1.16256969517e-05 0.0 0.0 0.0
282 1 5.002455213114755 21.70218491803279 1.69799760622e-05 0.0 0.0 0.0
283 1 7.651830819672132 21.665123934426234 6.57524719816e-06 0.0 0.0 0.0
284 1 9.918357377049182 20.900526557377052 4.58614918063e-05 0.0 0.0 0.0
285 1 13.742707540983607 21.696933770491807 3.06029320061e-05 0.0 0.0 0.0
286 1 16.43614229508197 21.52505967213115 4.45764446127e-06 0.0 0.0 0.0
287 1 20.068825573770493 21.202316065573772 4.682845029e-05 0.0 0.0 0.0
288 1 21.611350163934425 21.377775081967215 7.45899946301e-05 0.0 0.0 0.0
289 1 24.335736393442627 21.6540662295082 8.51232048224e-05 0.0 0.0 0.0
290 1 27.13555737704918 21.71632262295082 9.79538197872e-06 0.0 0.0 0.0
291 1 29.901851803278692 21.67330360655738 6.16150324593e-05 0.0 0.0 0.0
292 1 32.39629836065574 21.07108786885246 6.56163637781e-05 0.0 0.0 0.0
293 1 34.95542491803279 22.048003278688526 1.60533131104e-05 0.0 0.0 0.0
294 1 37.255680000000005 22.50323737704918 2.95330976158e-05 0.0 0.0 0.0
295 1 39.98375213114754 21.31799278688525 3.65791971978e-05 0.0 0.0 0.0
296 1 42.71323803278688 21.254676065573772 6.05165587338e-05 0.0 0.0 0.0
297 1 45.43232262295083 21.31052 1.14515835029e-05 0.0 0.0 0.0
298 1 48.115507540983614 21.384339016393444 1.46371445305e-06 0.0 0.0 0.0
299 1 50.78768524590164 21.512436721311477 6.36198261666e-06 0.0 0.0 0.0
300 1 53.47738360655738 21.640382950819674 7.62277214384e-05 0.0 0.0 0.0
301 1 56.18020983606558 21.727026885245902 7.30421991827e-05 0.0 0.0 0.0
302 1 58.88859016393443 21.778831475409838 3.41714008476e-05 0.0 0.0 0.0
303 1 61.56011147540985 21.760149508196726 8.91487643217e-06 0.0 0.0 0.0
304 1 64.15740983606558 21.67406098360656 8.57954830739e-05 0.0 0.0 0.0
305 1 66.73956065573772 21.569290491803283 9.10404357883e-05 0.0 0.0 0.0
306 1 69.39240000000001 21.503701639344268 8.36214850575e-05 0.0 0.0 0.0
307 1 72.12047213114755 21.4853731147541 1.61347989321e-05 0.0 0.0 0.0
308 1 74.88338360655739 21.524908196721313 9.8641719831e-06 0.0 0.0 0.0
309 1 77.59075409836066 21.633314098360657 8.52891487458e-05 0.0 0.0 0.0
310 1 80.21178360655738 21.827404590163937 4.94210089303e-07 0.0 0.0 0.0
311 1 1.1593776393442625 24.2436393442623 4.00377042605e-05 0.0 0.0 0.0
312 1 3.8895401311475415 24.11922754098361 4.62531204818e-05 0.0 0.0 0.0
313 1 6.533437377049181 23.986333114754103 4.17573022249e-05 0.0 0.0 0.0
314 1 9.346032786885248 23.712516065573773 2.7560894568e-05 0.0 0.0 0.0
315 1 12.111721311475412 23.73766098360656 9.41149180608e-05 0.0 0.0 0.0
316 1 14.795865573770493 23.866465573770494 2.41025022776e-05 0.0 0.0 0.0
317 1 17.410230163934425 23.97280131147541 8.96509778023e-05 0.0 0.0 0.0
318 1 19.984150819672134 23.83591803278689 9.33446935975e-05 0.0 0.0 0.0
319 1 22.82022491803279 23.792596065573772 1.20714522754e-05 0.0 0.0 0.0
320 1 25.661802622950823 23.89600327868853 6.71499185738e-05 0.0 0.0 0.0
321 1 28.530342950819673 23.96603540983607 6.51441118792e-05 0.0 0.0 0.0
322 1 32.38867409836066 23.409464262295085 8.89985536912e-05 0.0 0.0 0.0
323 1 33.979872786885245 23.281265573770494 2.41587592296e-05 0.0 0.0 0.0
324 1 36.429331147540985 23.810217704918035 4.39542365292e-06 0.0 0.0 0.0
325 1 38.93508786885246 23.851065573770494 4.15871281554e-05 0.0 0.0 0.0
326 1 41.50310098360656 23.56518098360656 2.73087060808e-05 0.0 0.0 0.0
327 1 44.14003540983607 23.56179803278689 2.45093062107e-05 0.0 0.0 0.0
328 1 46.79292524590164 23.646068852459017 7.47178262867e-05 0.0 0.0 0.0
329 1 49.44404786885246 23.750031475409838 4.92374077534e-05 0.0 0.0 0.0
330 1 52.10754098360656 23.858588852459018 2.33229073028e-05 0.0 0.0 0.0
331 1 54.79673442622951 23.951897704918032 5.03553843906e-05 0.0 0.0 0.0
332 1 57.506629508196724 24.016577704918035 9.6804485559e-05 0.0 0.0 0.0
333 1 60.22914754098361 24.07343147540984 9.47377236017e-05 0.0 0.0 0.0
334 1 62.87037377049181 24.087316721311478 6.74089818896e-05 0.0 0.0 0.0
335 1 65.41869508196721 24.00329836065574 8.18400057776e-05 0.0 0.0 0.0
336 1 68.02659672131149 23.860255081967214 6.73980841503e-05 0.0 0.0 0.0
337 1 70.72285901639346 23.747506885245905 8.64484282517e-05 0.0 0.0 0.0
338 1 73.42568524590165 23.725088524590166 8.2235091039e-05 0.0 0.0 0.0
339 1 76.17445901639346 23.866364590163936 5.70264013061e-05 0.0 0.0 0.0
340 1 78.7833704918033 24.106352131147542 2.41174962159e-05 0.0 0.0 0.0
341 1 81.26504262295083 24.390671475409835 6.56502111052e-05 0.0 0.0 0.0
342 1 0.22873645245901641 26.62821573770492 3.47428968833e-05 0.0 0.0 0.0
343 1 2.851973967213115 26.44538491803279 8.0530659712e-05 0.0 0.0 0.0
344 1 5.488257049180328 26.390954754098363 7.06768786187e-05 0.0 0.0 0.0
345 1 8.119940327868854 25.999794754098364 9.85136398793e-05 0.0 0.0 0.0
346 1 10.796207868852461 25.96293573770492 6.27494987919e-05 0.0 0.0 0.0
347 1 13.359575737704919 26.117592131147543 1.53811512476e-05 0.0 0.0 0.0
348 1 16.00918360655738 26.258413770491806 7.31381426587e-05 0.0 0.0 0.0
349 1 18.704537049180328 26.264674754098362 6.76638400473e-05 0.0 0.0 0.0
350 1 21.399335081967216 26.008529836065573 8.94618533491e-05 0.0 0.0 0.0
351 1 24.141595409836068 26.02337442622951 1.85278315714e-06 0.0 0.0 0.0
352 1 26.894509508196723 26.082045901639347 6.62616623454e-05 0.0 0.0 0.0
353 1 29.58940852459017 26.24442754098361 2.81500859411e-05 0.0 0.0 0.0
354 1 32.11930032786886 26.08315672131148 8.41061786968e-05 0.0 0.0 0.0
355 1 34.80899868852459 25.987878688524592 2.04468821321e-05 0.0 0.0 0.0
356 1 37.47228983606558 26.224786229508197 6.63166300606e-05 0.0 0.0 0.0
357 1 40.18117508196722 26.05957704918033 1.9327639859e-05 0.0 0.0 0.0
358 1 42.86309770491803 25.899164590163934 3.28463269297e-05 0.0 0.0 0.0
359 1 45.51588655737705 25.924612459016398 4.9878907192e-05 0.0 0.0 0.0
360 1 48.14348000000001 26.017416393442623 8.03940570566e-05 0.0 0.0 0.0
361 1 50.773042622950825 26.11188655737705 4.27392455562e-05 0.0 0.0 0.0
362 1 53.427396721311474 26.188836065573774 8.58836958753e-05 0.0 0.0 0.0
363 1 56.11204590163935 26.24786098360656 1.22435846464e-05 0.0 0.0 0.0
364 1 58.81588196721312 26.297040000000003 3.63072280145e-05 0.0 0.0 0.0
365 1 61.55809180327869 26.41806885245902 3.09276506999e-05 0.0 0.0 0.0
366 1 64.14377704918033 26.46421836065574 1.10323707945e-05 0.0 0.0 0.0
367 1 66.69058360655738 26.291990819672137 3.89908888428e-06 0.0 0.0 0.0
368 1 69.39795409836066 26.077451147540987 9.4231476949e-05 0.0 0.0 0.0
369 1 72.0184786885246 26.00403606557377 2.6916307049e-05 0.0 0.0 0.0
370 1 74.60264918032789 26.004742950819672 1.19513449336e-05 0.0 0.0 0.0
371 1 77.2888131147541 26.339806557377052 6.27335000378e-06 0.0 0.0 0.0
372 1 80.2112786885246 26.670022950819675 7.36538959545e-05 0.0 0.0 0.0
373 1 1.537621836065574 28.868739016393445 9.73551642323e-05 0.0 0.0 0.0
374 1 4.225416655737705 28.786386885245903 9.6532837639e-05 0.0 0.0 0.0
375 1 7.750996721311477 28.280761967213117 5.46123455273e-05 0.0 0.0 0.0
376 1 9.297358688524591 28.2545062295082 8.31342766954e-05 0.0 0.0 0.0
377 1 11.90924918032787 28.443194098360657 2.05268489723e-05 0.0 0.0 0.0
378 1 14.598695081967215 28.51822491803279 2.45179620923e-05 0.0 0.0 0.0
379 1 17.29849180327869 28.545995409836067 9.21044988139e-06 0.0 0.0 0.0
380 1 19.988594098360657 28.412848524590167 3.61547955271e-05 0.0 0.0 0.0
381 1 22.68106950819672 28.27364262295082 6.17524179704e-05 0.0 0.0 0.0
382 1 25.446556065573773 28.29878754098361 9.00339946699e-05 0.0 0.0 0.0
383 1 28.199571147540986 28.442487213114756 7.88223494066e-05 0.0 0.0 0.0
384 1 30.9217862295082 28.563819016393445 2.47940531615e-05 0.0 0.0 0.0
385 1 33.56871803278689 28.38502754098361 3.77969817459e-05 0.0 0.0 0.0
386 1 36.125673442622954 28.428046557377055 6.80653505138e-05 0.0 0.0 0.0
387 1 38.80264786885247 28.402548196721316 7.31391654917e-05 0.0 0.0 0.0
388 1 41.56465049180328 28.258141639344267 2.15847951933e-05 0.0 0.0 0.0
389 1 44.260104918032795 28.227089180327873 5.91571026864e-05 0.0 0.0 0.0
390 1 46.88845573770492 28.307724590163936 2.19084361301e-05 0.0 0.0 0.0
391 1 49.476766557377054 28.400326557377053 5.43007981372e-05 0.0 0.0 0.0
392 1 52.0868393442623 28.466016393442626 8.41236316172e-05 0.0 0.0 0.0
393 1 54.73967868852459 28.506308852459018 1.45717490999e-05 0.0 0.0 0.0
394 1 57.406150819672135 28.54124918032787 4.59537708864e-05 0.0 0.0 0.0
395 1 60.03020983606558 28.582248524590167 2.61943143369e-05 0.0 0.0 0.0
396 1 62.70779016393443 28.83814098360656 6.3647009616e-05 0.0 0.0 0.0
397 1 65.59541639344263 28.800827540983608 8.34031445168e-05 0.0 0.0 0.0
398 1 68.25633442622951 28.42385573770492 4.04549093001e-05 0.0 0.0 0.0
399 1 70.82939672131148 28.368617704918037 4.24307022143e-05 0.0 0.0 0.0
400 1 73.31662295081969 28.357812459016397 1.44413597485e-05 0.0 0.0 0.0
401 1 75.82354098360656 28.395580327868856 7.30957726823e-05 0.0 0.0 0.0
402 1 77.99569836065575 27.71055803278689 5.41102622778e-05 0.0 0.0 0.0
403 1 81.59222950819672 28.883684590163938 3.81526717958e-05 0.0 0.0 0.0
404 1 82.64245901639346 31.18439409836066 2.20399225007e-05 0.0 0.0 0.0
405 1 2.6565302950819674 31.10926229508197 2.09434498644e-05 0.0 0.0 0.0
406 1 5.283209836065574 31.193533114754104 9.41726479754e-05 0.0 0.0 0.0
407 1 7.822695081967214 30.96884459016394 6.87900490667e-05 0.0 0.0 0.0
408 1 10.55293836065574 30.742035409836067 4.39693674773e-05 0.0 0.0 0.0
409 1 13.246120655737707 30.796061639344263 4.81782215879e-05 0.0 0.0 0.0
410 1 15.939050491803279 30.830396065573776 4.4856431894e-05 0.0 0.0 0.0
411 1 18.60754229508197 30.778843934426234 2.32563489865e-05 0.0 0.0 0.0
412 1 21.23220721311476 30.62797442622951 9.58518884726e-06 0.0 0.0 0.0
413 1 23.93624524590164 30.5036131147541 3.92079463484e-05 0.0 0.0 0.0