ITEM: TIMESTEP
0
ITEM: NUMBER OF ATOMS
2232
ITEM: BOX BOUNDS xy xz yz pp pp pp
0.0 82.68810555352132 0
0.0 83.16 0
-10.0 10.0 0
ITEM: ATOMS id type x y z vx vy vz
1 1 1.3307771147540985 0.9069640655737705 3.04701435014e-06 0.0 0.0 0.0
2 1 4.053628393442623 0.989184918032787 1.88815991821e-05 0.0 0.0 0.0
3 1 7.717975081967214 0.9550726557377051 7.85837698236e-06 0.0 0.0 0.0
4 1 9.256864262295084 1.0381013770491805 4.30293964792e-06 0.0 0.0 0.0
5 1 11.820989508196723 1.2113589508196723 8.02366080274e-05 0.0 0.0 0.0
6 1 14.359262950819673 1.1819777704918035 8.7562799746e-05 0.0 0.0 0.0
7 1 16.789786885245903 0.9315788196721313 2.95287696332e-05 0.0 0.0 0.0
8 1 19.498621639344265 0.9066914098360657 9.4463176075e-05 0.0 0.0 0.0
9 1 22.02235344262295 0.952876262295082 4.29896964756e-05 0.0 0.0 0.0
10 1 24.730380327868854 0.6517633442622951 6.95821756579e-05 0.0 0.0 0.0
11 1 27.505510819672136 0.46362735081967216 4.05448479775e-05 0.0 0.0 0.0
12 1 30.296344262295083 0.3245451540983607 9.12233868492e-05 0.0 0.0 0.0
13 1 33.07586754098361 0.3063655803278689 1.78973194166e-05 0.0 0.0 0.0
14 1 35.74865114754099 0.5953488524590165 9.00241493955e-05 0.0 0.0 0.0
15 1 38.273291803278696 0.5361522622950821 3.27359393011e-05 0.0 0.0 0.0
16 1 40.968948196721314 0.5311081311475411 8.52847694325e-05 0.0 0.0 0.0
17 1 43.59548131147542 0.6704756065573771 2.65083667226e-05 0.0 0.0 0.0
18 1 46.13173508196722 0.6110063606557378 8.81391339638e-05 0.0 0.0 0.0
19 1 48.45062163934427 1.9753150819672134 4.24633187042e-05 0.0 0.0 0.0
20 1 51.02903606557377 0.7036487213114755 3.41803434525e-05 0.0 0.0 0.0
21 1 53.75761311475411 0.5137995409836066 8.95705475246e-05 0.0 0.0 0.0
22 1 56.57707540983608 0.5870631475409837 5.65711384678e-05 0.0 0.0 0.0
23 1 59.353114754098364 0.7348274098360656 4.14678235788e-05 0.0 0.0 0.0
24 1 62.08320655737705 0.8431222295081968 6.03124174845e-05 0.0 0.0 0.0
25 1 64.76987540983606 0.6378881967213115 1.46592374127e-05 0.0 0.0 0.0
26 1 66.95314098360656 1.9225259016393443 4.28971781819e-05 0.0 0.0 0.0
27 1 69.70595409836066 0.9450702295081967 1.56557819756e-05 0.0 0.0 0.0
28 1 72.38100983606559 0.6614072786885247 8.32416904851e-05 0.0 0.0 0.0
29 1 75.29388196721312 1.0719359344262296 6.9726494372e-05 0.0 0.0 0.0
30 1 78.5864524590164 1.1777465573770491 4.35255470797e-05 0.0 0.0 0.0
31 1 81.36148196721312 0.9478876721311477 1.21148670732e-05 0.0 0.0 0.0
32 1 82.60307540983608 3.268501049180328 1.9310243083e-05 0.0 0.0 0.0
33 1 2.4269491147540982 3.217716393442623 8.773039245e-05 0.0 0.0 0.0
34 1 5.083060327868853 3.462313836065574 3.74407536354e-05 0.0 0.0 0.0
35 1 7.6149718032786895 3.492068655737705 2.75235412346e-06 0.0 0.0 0.0
36 1 10.410147540983607 3.5418283278688527 4.87365547602e-05 0.0 0.0 0.0
37 1 13.105400000000001 3.6510723934426235 3.76861167453e-05 0.0 0.0 0.0
38 1 15.834128524590165 3.5530829508196726 4.77434753073e-07 0.0 0.0 0.0
39 1 18.489896393442624 3.0917746885245903 6.30306295648e-05 0.0 0.0 0.0
40 1 20.802219016393444 4.456265180327869 3.90300495271e-05 0.0 0.0 0.0
41 1 23.459905573770495 3.1347078688524594 7.87871023509e-05 0.0 0.0 0.0
42 1 26.24170098360656 2.7868900327868857 1.15467264125e-06 0.0 0.0 0.0
43 1 28.928773770491805 2.5837312131147545 4.88902007014e-05 0.0 0.0 0.0
44 1 31.738642622950824 2.5021263606557382 5.7677191252e-05 0.0 0.0 0.0
45 1 34.46212 2.7032352131147546 5.99693859267e-05 0.0 0.0 0.0
46 1 37.15540327868853 2.9521800000000002 1.55646721297e-05 0.0 0.0 0.0
47 1 39.76941442622951 2.858830754098361 8.78125773666e-05 0.0 0.0 0.0
48 1 42.33323672131148 2.9833485901639345 1.60864787305e-05 0.0 0.0 0.0
49 1 44.99304393442623 3.0830345573770495 5.99826337226e-05 0.0 0.0 0.0
50 1 47.75630885245902 3.349565639344263 3.9281502849e-05 0.0 0.0 0.0
51 1 50.33851016393443 3.3405579016393445 5.38753740945e-05 0.0 0.0 0.0
52 1 52.808872131147545 2.7881169836065576 6.98552539921e-05 0.0 0.0 0.0
53 1 55.232478688524594 3.694672065573771 8.67340516525e-05 0.0 0.0 0.0
54 1 58.136767213114766 2.902177967213115 1.1940910144e-05 0.0 0.0 0.0
55 1 60.7648655737705 3.092294754098361 3.73845500447e-05 0.0 0.0 0.0
56 1 63.44295081967214 3.0843675409836067 7.51745482305e-05 0.0 0.0 0.0
57 1 66.2169704918033 3.2702985573770493 8.58453290477e-05 0.0 0.0 0.0
58 1 68.87485901639344 3.3395329180327873 9.22210668926e-05 0.0 0.0 0.0
59 1 71.55294426229509 2.965424 7.40110423803e-05 0.0 0.0 0.0
60 1 73.98765901639345 3.8896966557377053 7.57392030225e-06 0.0 0.0 0.0
61 1 76.15577704918034 2.387550360655738 9.6049016539e-05 0.0 0.0 0.0
62 1 79.99870819672131 3.2505057704918037 1.18618718118e-05 0.0 0.0 0.0
63 1 1.1655780327868854 5.693051803278689 4.57210127055e-05 0.0 0.0 0.0
64 1 3.783830491803279 5.604337704918033 2.5796033221e-05 0.0 0.0 0.0
65 1 6.386708196721312 5.855685901639345 1.87897273145e-05 0.0 0.0 0.0
66 1 8.818999344262297 5.735010491803279 9.05541708035e-05 0.0 0.0 0.0
67 1 11.466133114754099 5.931928524590164 5.4533157573e-05 0.0 0.0 0.0
68 1 14.568854426229509 5.93864393442623 5.76903026563e-05 0.0 0.0 0.0
69 1 18.25909836065574 5.312394098360656 1.63464644652e-05 0.0 0.0 0.0
70 1 19.783445901639347 5.628826229508197 2.30944953699e-05 0.0 0.0 0.0
71 1 22.60260524590164 5.768284590163935 8.88923232032e-05 0.0 0.0 0.0
72 1 25.258221639344264 5.126533770491804 3.13540716776e-05 0.0 0.0 0.0
73 1 27.893035409836067 4.961794163934427 6.82423670639e-05 0.0 0.0 0.0
74 1 30.499321311475413 4.672445836065574 2.4263310051e-05 0.0 0.0 0.0
75 1 33.18644459016394 4.8172058360655745 1.5255753333e-05 0.0 0.0 0.0
76 1 35.78333901639345 5.079727868852459 6.19024520648e-05 0.0 0.0 0.0
77 1 38.47530950819672 5.260539016393443 2.49202696042e-05 0.0 0.0 0.0
78 1 40.97536065573771 5.351626229508198 4.44274947844e-05 0.0 0.0 0.0
79 1 43.59411803278689 5.3949481967213115 9.20189264243e-05 0.0 0.0 0.0
80 1 46.29285442622951 5.471948196721312 3.19051950143e-05 0.0 0.0 0.0
81 1 49.05460459016394 5.712390163934426 7.82442643616e-05 0.0 0.0 0.0
82 1 51.766721311475415 5.484621639344263 6.59204073841e-05 0.0 0.0 0.0
83 1 54.36250491803279 4.955326163934427 8.16045460085e-05 0.0 0.0 0.0
84 1 57.01281967213116 5.094269508196722 2.8075469302e-05 0.0 0.0 0.0
85 1 59.4480393442623 5.387374426229509 3.93595504197e-06 0.0 0.0 0.0
86 1 62.09734426229509 5.447611147540984 8.21426307989e-05 0.0 0.0 0.0
87 1 64.82592131147543 5.409944262295082 2.02887363749e-05 0.0 0.0 0.0
88 1 67.62367213114756 5.57944524590164 6.96937545673e-06 0.0 0.0 0.0
89 1 70.34063606557378 5.3831836065573775 6.35591574737e-05 0.0 0.0 0.0
90 1 73.17171147540985 5.176672131147542 3.99237278348e-05 0.0 0.0 0.0
91 1 75.76900983606559 5.3439514754098365 4.5906411707e-05 0.0 0.0 0.0
92 1 78.47789508196722 5.337034098360657 6.41520218712e-05 0.0 0.0 0.0
93 1 81.1736524590164 5.624534426229509 4.71132105351e-05 0.0 0.0 0.0
94 1 82.42635409836068 7.987197377049181 8.98952116296e-05 0.0 0.0 0.0
95 1 3.3286115409836072 7.767305573770493 6.3685315748e-05 0.0 0.0 0.0
96 1 4.851075737704918 8.032034098360656 4.56906965241e-05 0.0 0.0 0.0
97 1 7.3815986885245914 8.25717704918033 7.3323311046e-05 0.0 0.0 0.0
98 1 9.937948196721313 8.12817049180328 5.05416632121e-05 0.0 0.0 0.0
99 1 12.176502295081969 7.306769836065574 3.32439254194e-05 0.0 0.0 0.0
100 1 15.75081704918033 8.169775737704919 3.3862036916e-05 0.0 0.0 0.0
101 1 18.158064262295085 7.972857704918034 1.62150650143e-05 0.0 0.0 0.0
102 1 20.319365901639344 7.088594754098361 4.56505137865e-05 0.0 0.0 0.0
103 1 24.01607278688525 7.636632786885246 6.02719187726e-05 0.0 0.0 0.0
104 1 26.709659016393445 7.364179016393443 2.94625009473e-05 0.0 0.0 0.0
105 1 30.121794098360656 6.899755409836066 7.95452602954e-05 0.0 0.0 0.0
106 1 31.653210491803282 6.9736754098360665 5.31123189452e-05 0.0 0.0 0.0
107 1 34.27055409836066 7.269203934426231 5.06756688807e-05 0.0 0.0 0.0
108 1 36.90819540983607 7.424567213114755 7.65884976571e-05 0.0 0.0 0.0
109 1 39.49494098360656 7.768416393442624 1.04905100029e-05 0.0 0.0 0.0
110 1 42.13687409836066 7.761953442622952 2.23574472222e-05 0.0 0.0 0.0
111 1 44.859745573770496 7.756197377049181 2.65020993994e-05 0.0 0.0 0.0
112 1 47.6054393442623 7.837186229508197 5.79334690484e-05 0.0 0.0 0.0
113 1 50.38718426229509 7.898786229508198 2.74958683076e-05 0.0 0.0 0.0
114 1 53.98684590163935 7.344941639344262 3.62130647574e-05 0.0 0.0 0.0
115 1 55.52836065573771 7.24996655737705 9.23040828949e-05 0.0 0.0 0.0
116 1 57.65961967213115 8.714582295081968 1.28921420734e-06 0.0 0.0 0.0
117 1 60.50988196721312 7.776949508196722 2.20572561601e-07 0.0 0.0 0.0
118 1 63.76710819672132 7.690911475409837 4.71146497976e-05 0.0 0.0 0.0
119 1 66.51891147540984 7.637844590163935 5.4503835783e-05 0.0 0.0 0.0
120 1 69.23688524590165 7.709694426229508 4.45348834503e-07 0.0 0.0 0.0
121 1 71.92052459016394 7.380033442622952 8.82955074928e-05 0.0 0.0 0.0
122 1 74.24466229508198 8.592745573770493 9.39322136001e-05 0.0 0.0 0.0
123 1 77.1120918032787 7.65460786885246 8.89636224517e-06 0.0 0.0 0.0
124 1 79.7376655737705 7.798358032786886 4.8893050198e-05 0.0 0.0 0.0
125 1 0.8164120655737706 10.437918032786886 3.14464951313e-05 0.0 0.0 0.0
126 1 3.3749529180327875 10.329108196721313 8.38881348759e-05 0.0 0.0 0.0
127 1 6.097794098360657 10.606106229508198 1.01258836634e-06 0.0 0.0 0.0
128 1 8.729982295081967 10.596613770491803 4.70766686117e-05 0.0 0.0 0.0
129 1 11.475070163934427 10.197476065573772 3.55273044033e-05 0.0 0.0 0.0
130 1 14.28236393442623 10.215451147540984 1.3464138643e-05 0.0 0.0 0.0
131 1 17.0402262295082 10.516028852459018 1.23040736774e-05 0.0 0.0 0.0
132 1 19.816820983606558 10.020199344262295 4.54203992253e-05 0.0 0.0 0.0
133 1 22.55812196721312 9.959811147540984 5.36159118575e-05 0.0 0.0 0.0
134 1 25.193390163934428 9.709472786885247 6.66698649632e-05 0.0 0.0 0.0
135 1 27.825376393442625 9.783190819672132 1.84272333685e-05 0.0 0.0 0.0
136 1 30.238177704918037 9.604449836065575 1.34653320599e-05 0.0 0.0 0.0
137 1 32.998059672131156 9.437776393442624 1.80582441486e-05 0.0 0.0 0.0
138 1 35.636054426229514 9.654133770491805 2.8064708565e-05 0.0 0.0 0.0
139 1 37.93373442622951 11.066440000000002 2.13086016777e-06 0.0 0.0 0.0
140 1 40.76273967213115 10.160516065573772 6.90604105233e-05 0.0 0.0 0.0
141 1 43.43446295081968 10.059986885245902 5.02021269696e-05 0.0 0.0 0.0
142 1 46.18051016393443 10.071145573770494 6.39691128997e-05 0.0 0.0 0.0
143 1 48.83461180327869 10.111690491803278 4.09306151446e-05 0.0 0.0 0.0
144 1 51.487501639344266 10.259429508196721 6.0698134391e-05 0.0 0.0 0.0
145 1 54.05753442622951 10.017472786885246 1.35602424049e-05 0.0 0.0 0.0
146 1 56.86336393442623 10.03509442622951 9.12209219741e-05 0.0 0.0 0.0
147 1 59.369777049180335 10.077608524590165 9.3868184939e-05 0.0 0.0 0.0
148 1 61.425298360655745 9.024400000000002 6.87963820768e-05 0.0 0.0 0.0
149 1 65.2768131147541 9.856504918032789 1.00678401671e-06 0.0 0.0 0.0
150 1 67.90036721311476 9.938756065573772 2.9958460137e-05 0.0 0.0 0.0
151 1 70.61834098360656 9.842771147540985 5.59766387918e-06 0.0 0.0 0.0
152 1 73.3428786885246 9.840801967213116 4.87686450214e-05 0.0 0.0 0.0
153 1 75.90584262295083 9.953853114754098 9.20421999399e-05 0.0 0.0 0.0
154 1 78.41982950819674 10.110024262295083 1.84966166253e-05 0.0 0.0 0.0
155 1 80.96259672131148 10.21247213114754 9.3134345242e-05 0.0 0.0 0.0
156 1 82.48139016393444 12.67738098360656 1.74912108458e-05 0.0 0.0 0.0
157 1 2.575642426229509 12.66304131147541 4.85970672049e-05 0.0 0.0 0.0
158 1 4.990160459016394 13.948108196721314 8.05250361846e-05 0.0 0.0 0.0
159 1 7.645418360655738 13.014363278688526 2.34085480094e-05 0.0 0.0 0.0
160 1 10.282958688524591 12.646782950819674 9.1590180187e-05 0.0 0.0 0.0
161 1 12.95104655737705 12.406845901639345 2.65345822474e-05 0.0 0.0 0.0
162 1 15.642108196721313 12.614064262295082 4.70359087372e-05 0.0 0.0 0.0
163 1 18.486008524590165 12.459609836065576 3.11038705312e-05 0.0 0.0 0.0
164 1 21.30678360655738 12.295208524590166 3.72210361357e-05 0.0 0.0 0.0
165 1 24.816317377049185 11.910511475409837 9.14648391338e-05 0.0 0.0 0.0
166 1 26.356822295081972 12.012555409836066 1.89153243955e-06 0.0 0.0 0.0
167 1 29.122510819672137 12.140451147540984 5.44903307396e-05 0.0 0.0 0.0
168 1 31.909759344262298 11.689559344262296 8.39998623205e-05 0.0 0.0 0.0
169 1 34.15013114754099 13.095352131147543 1.24589387805e-05 0.0 0.0 0.0
170 1 37.09652983606558 12.38129704918033 2.2532218837e-06 0.0 0.0 0.0
171 1 39.75456983606558 12.59492786885246 8.91611168563e-05 0.0 0.0 0.0
172 1 42.280674754098364 12.461629508196722 2.38351575756e-06 0.0 0.0 0.0
173 1 44.77794885245902 12.320757377049182 5.26528830485e-05 0.0 0.0 0.0
174 1 47.4993055737705 12.441432786885247 2.96072862465e-05 0.0 0.0 0.0
175 1 50.19915278688525 12.499296393442624 9.72785036228e-05 0.0 0.0 0.0
176 1 52.97095081967213 12.486168524590164 6.74992263964e-05 0.0 0.0 0.0
177 1 55.647521311475415 12.238708196721314 6.61186541283e-05 0.0 0.0 0.0
178 1 58.32661639344263 12.43517180327869 1.87646641058e-05 0.0 0.0 0.0
179 1 60.959763934426235 11.984380983606558 3.88351096144e-05 0.0 0.0 0.0
180 1 63.67420327868853 11.805993442622952 9.67502538816e-05 0.0 0.0 0.0
181 1 66.37299016393443 12.228458360655738 2.22875317782e-05 0.0 0.0 0.0
182 1 69.1768 12.16493967213115 4.99458081679e-05 0.0 0.0 0.0
183 1 71.99424262295084 12.114700327868855 9.86777733854e-05 0.0 0.0 0.0
184 1 74.7288786885246 12.220127213114756 1.30387450239e-05 0.0 0.0 0.0
185 1 77.0277704918033 13.51468655737705 8.37308084059e-05 0.0 0.0 0.0
186 1 79.77654426229509 12.579830819672132 5.07840605354e-05 0.0 0.0 0.0
187 1 1.2861524590163935 14.88452918032787 6.22670320916e-05 0.0 0.0 0.0
188 1 4.179024786885247 15.266600655737706 5.8962185081e-05 0.0 0.0 0.0
189 1 6.947975081967214 15.619538360655739 3.02308132869e-06 0.0 0.0 0.0
190 1 9.57082229508197 15.115680655737707 7.99406107103e-05 0.0 0.0 0.0
191 1 12.031439344262296 14.78793836065574 4.67864221166e-05 0.0 0.0 0.0
192 1 14.461306885245902 15.947331147540986 4.51218822588e-05 0.0 0.0 0.0
193 1 17.204375081967214 14.72436918032787 8.4886618632e-05 0.0 0.0 0.0
194 1 19.947443278688528 14.567844590163936 5.36273716897e-05 0.0 0.0 0.0
195 1 22.571300327868855 14.718158688524591 6.80998970907e-05 0.0 0.0 0.0
196 1 25.063020327868855 14.53149049180328 6.89340157513e-05 0.0 0.0 0.0
197 1 27.73555147540984 14.306650491803278 6.30919601686e-06 0.0 0.0 0.0
198 1 30.51128786885246 14.083274754098362 9.20490047762e-05 0.0 0.0 0.0
199 1 33.26839278688525 14.388093770491803 5.65765195631e-05 0.0 0.0 0.0
200 1 35.78192524590164 14.660396065573773 9.70725535108e-05 0.0 0.0 0.0
201 1 38.355593442622954 14.7740531147541 4.63137006469e-05 0.0 0.0 0.0
202 1 41.07634426229509 14.964457704918035 8.82031317917e-06 0.0 0.0 0.0
203 1 43.97442229508197 14.807024262295084 8.42902506729e-05 0.0 0.0 0.0
204 1 46.29133967213115 15.801864262295084 6.15714179629e-05 0.0 0.0 0.0
205 1 49.02824786885246 14.760521311475411 4.40620582772e-05 0.0 0.0 0.0
206 1 51.797521311475414 14.693821639344264 6.07712795367e-06 0.0 0.0 0.0
207 1 54.50438688524591 14.650903606557378 8.31680834988e-05 0.0 0.0 0.0
208 1 57.19257049180329 14.618083934426231 8.70632718305e-05 0.0 0.0 0.0
209 1 59.929731147540984 14.504729836065575 8.62559061341e-05 0.0 0.0 0.0
210 1 62.5512655737705 14.12563737704918 1.5619639619e-05 0.0 0.0 0.0
211 1 64.89105573770493 15.372885901639346 5.89017741044e-05 0.0 0.0 0.0
212 1 67.7524262295082 14.413087213114755 9.95526615658e-05 0.0 0.0 0.0
213 1 70.61531147540984 14.323464262295083 4.38571902217e-06 0.0 0.0 0.0
214 1 73.39791475409838 14.428638688524591 6.85599081189e-05 0.0 0.0 0.0
215 1 76.1880918032787 14.798996065573771 5.12717616597e-05 0.0 0.0 0.0
216 1 78.72732459016393 15.052060983606559 3.95161798601e-05 0.0 0.0 0.0
217 1 81.26807213114755 14.90381704918033 4.2900253444e-05 0.0 0.0 0.0
218 1 82.506131147541 17.160699672131148 7.25009818816e-05 0.0 0.0 0.0
219 1 2.570876 17.096625573770492 2.78926070801e-05 0.0 0.0 0.0
220 1 4.825890426229509 16.664920655737706 3.51484356096e-05 0.0 0.0 0.0
221 1 8.329178360655737 17.64425967213115 1.72670873265e-05 0.0 0.0 0.0
222 1 10.925214426229509 17.47223409836066 2.56617476624e-05 0.0 0.0 0.0
223 1 14.029147540983608 17.439919344262297 6.2913614446e-06 0.0 0.0 0.0
224 1 16.53621704918033 17.10167475409836 1.49016620038e-05 0.0 0.0 0.0
225 1 19.035005901639344 16.832805901639343 1.2021973515e-05 0.0 0.0 0.0
226 1 21.575147540983608 16.924549508196723 5.18388923578e-05 0.0 0.0 0.0
227 1 24.222180327868852 17.000287213114756 9.07395476485e-05 0.0 0.0 0.0
228 1 26.835232131147542 16.71298885245902 5.74250545945e-05 0.0 0.0 0.0
229 1 29.379160655737707 16.376662950819675 3.33795918381e-05 0.0 0.0 0.0
230 1 31.54854098360656 17.614873442622955 1.71117673992e-05 0.0 0.0 0.0
231 1 34.47009770491803 16.924095081967216 3.18714178077e-05 0.0 0.0 0.0
232 1 37.099104918032786 17.075671475409838 7.44117287178e-05 0.0 0.0 0.0
233 1 39.688930491803276 17.084659016393445 9.40248545165e-05 0.0 0.0 0.0
234 1 41.91087278688525 16.271185573770495 9.01072999366e-05 0.0 0.0 0.0
235 1 45.57955672131148 17.165445901639345 1.06559374032e-05 0.0 0.0 0.0
236 1 47.99028786885246 17.237093770491803 9.15663107506e-05 0.0 0.0 0.0
237 1 50.7392131147541 16.909805901639345 9.16225319481e-05 0.0 0.0 0.0
238 1 53.30975081967214 16.94964393442623 4.5846496497e-05 0.0 0.0 0.0
239 1 55.983291803278696 16.92818491803279 7.54169807584e-05 0.0 0.0 0.0
240 1 58.69318688524591 16.830634754098362 8.49459693158e-05 0.0 0.0 0.0
241 1 61.37278688524591 16.67870491803279 4.99003357773e-05 0.0 0.0 0.0
242 1 64.11600655737706 16.717886557377053 4.34457368303e-06 0.0 0.0 0.0
243 1 66.6284786885246 16.761460983606558 1.49673397331e-05 0.0 0.0 0.0
244 1 69.38987540983607 16.479464262295085 7.2827960499e-05 0.0 0.0 0.0
245 1 72.04826885245903 16.58241704918033 8.90256659084e-05 0.0 0.0 0.0
246 1 74.63950819672131 16.788373114754098 4.14994416529e-05 0.0 0.0 0.0
247 1 77.30800000000002 17.288595409836066 5.66593427665e-05 0.0 0.0 0.0
248 1 79.9300393442623 17.362515409836067 3.2027081511e-05 0.0 0.0 0.0
249 1 1.3459499016393444 19.308469508196723 1.9759157532e-05 0.0 0.0 0.0
250 1 4.095491147540984 19.397385573770492 1.74750864176e-05 0.0 0.0 0.0
251 1 6.796903606557377 19.99399672131148 1.09868639258e-05 0.0 0.0 0.0
252 1 9.747594098360656 19.90230360655738 6.89539561058e-06 0.0 0.0 0.0
253 1 11.764893114754098 18.78335475409836 2.17731368082e-05 0.0 0.0 0.0
254 1 15.33042229508197 19.61237967213115 5.646370658e-05 0.0 0.0 0.0
255 1 17.96139868852459 19.34295540983607 3.37925153197e-05 0.0 0.0 0.0
256 1 20.487301639344263 19.249798032786888 6.36111833904e-05 0.0 0.0 0.0
257 1 23.023605901639346 19.263026885245903 1.71568294016e-05 0.0 0.0 0.0
258 1 25.71088065573771 19.20162885245902 9.54073858035e-05 0.0 0.0 0.0
259 1 28.241630819672135 19.00400393442623 7.14569294042e-05 0.0 0.0 0.0
260 1 30.795506229508202 18.962903606557376 1.22320071791e-05 0.0 0.0 0.0
261 1 33.41062819672131 19.064291147540985 3.47572027352e-05 0.0 0.0 0.0
262 1 36.048824918032786 19.31023672131148 7.25047491524e-05 0.0 0.0 0.0
263 1 38.60219540983607 19.424449180327873 9.11759357755e-05 0.0 0.0 0.0
264 1 41.231657049180335 19.151742950819674 2.5188407428e-05 0.0 0.0 0.0
265 1 43.94018885245902 19.297613770491804 6.96529174039e-05 0.0 0.0 0.0
266 1 46.75879278688525 19.666052459016395 6.13952883738e-05 0.0 0.0 0.0
267 1 49.494640655737705 19.219704918032786 6.88580647325e-05 0.0 0.0 0.0
268 1 52.0100918032787 19.31700262295082 6.13027658465e-05 0.0 0.0 0.0
269 1 54.66040655737705 19.248333770491804 6.84355571787e-05 0.0 0.0 0.0
270 1 57.393527868852466 19.167092459016395 3.06002232925e-05 0.0 0.0 0.0
271 1 60.03121967213115 19.08978950819672 9.91007798639e-05 0.0 0.0 0.0
272 1 62.61387540983607 18.98143409836066 8.38835464989e-06 0.0 0.0 0.0
273 1 65.35558032786885 19.144876065573772 2.93038309715e-06 0.0 0.0 0.0
274 1 68.08516721311476 18.770075409836068 7.07729916402e-05 0.0 0.0 0.0
275 1 70.76880655737705 18.824707540983606 4.40020477649e-05 0.0 0.0 0.0
276 1 73.24139016393444 19.042478688524593 2.12126440817e-05 0.0 0.0 0.0
277 1 75.72659672131148 19.269489836065578 2.22654084943e-05 0.0 0.0 0.0
278 1 78.37438688524591 19.650349508196726 7.78595528005e-05 0.0 0.0 0.0
279 1 81.34078032786887 19.63171803278689 4.75393216082e-05 0.0 0.0 0.0
280 1 82.63892459016395 21.673000655737706 7.15776274455e-05 0.0 0.0 0.0
281 1 2.4047074754098365 21.514001967213115 4.62508561207e-05 0.0 0.0 0.0
282 1 5.116788852459017 21.881380327868854 4.91451022336e-05 0.0 0.0 0.0
283 1 7.4928826229508205 21.40988786885246 2.5338582534e-05 0.0 0.0 0.0
284 1 11.360908196721311 21.78872786885246 5.36081273955e-05 0.0 0.0 0.0
285 1 13.95704524590164 21.78993967213115 2.38012362185e-05 0.0 0.0 0.0
286 1 16.60937967213115 21.73672131147541 1.67640822395e-05 0.0 0.0 0.0
287 1 19.25126229508197 21.67597967213115 5.42833880367e-05 0.0 0.0 0.0
288 1 21.706830163934427 21.651642622950824 5.64474494553e-05 0.0 0.0 0.0
289 1 24.21450557377049 21.50612524590164 4.5322493058e-05 0.0 0.0 0.0
290 1 26.87461573770492 21.550709508196725 1.68359021412e-05 0.0 0.0 0.0
291 1 29.71669836065574 21.414987540983606 7.80866126619e-05 0.0 0.0 0.0
292 1 32.423008524590166 21.256645245901645 5.63395344444e-05 0.0 0.0 0.0
293 1 34.77835016393443 22.539944918032788 6.50436854045e-05 0.0 0.0 0.0
294 1 37.45875803278689 21.760704918032786 1.2206174933e-06 0.0 0.0 0.0
295 1 40.06115606557377 21.62902229508197 4.5002835211e-05 0.0 0.0 0.0
296 1 42.5888262295082 21.497996065573773 2.65605432041e-05 0.0 0.0 0.0
297 1 44.6017324590164 20.733752131147543 8.37953699913e-05 0.0 0.0 0.0
298 1 48.361604590163935 21.55656655737705 8.52051014872e-05 0.0 0.0 0.0
299 1 50.51300983606558 22.818508196721314 3.64328759287e-05 0.0 0.0 0.0
300 1 53.234013114754106 21.604432786885248 1.5063202308e-05 0.0 0.0 0.0
301 1 56.033783606557385 21.45997573770492 1.52702668279e-05 0.0 0.0 0.0
302 1 58.69318688524591 21.48991737704918 1.82772248987e-05 0.0 0.0 0.0
303 1 61.27180327868853 21.449372459016395 2.79741100778e-05 0.0 0.0 0.0
304 1 63.78478032786886 21.294009180327873 7.63423380675e-05 0.0 0.0 0.0
305 1 67.70294426229508 20.875381639344262 8.15272998413e-05 0.0 0.0 0.0
306 1 69.22981639344262 21.030643934426234 7.69347730714e-05 0.0 0.0 0.0
307 1 71.87053770491805 21.36686885245902 3.31384046259e-05 0.0 0.0 0.0
308 1 74.42693770491803 21.574592131147543 5.90021557479e-05 0.0 0.0 0.0
309 1 76.97273442622951 21.71243475409836 1.3529011134e-05 0.0 0.0 0.0
310 1 79.08783606557377 21.007922622950822 9.36678881495e-05 0.0 0.0 0.0
311 1 0.9880993442622952 23.9908268852459 3.63123290715e-05 0.0 0.0 0.0
312 1 3.5020458360655744 23.84339081967213 9.16789730948e-07 0.0 0.0 0.0
313 1 5.720822295081968 23.295049836065576 2.58985898192e-05 0.0 0.0 0.0
314 1 9.421417049180329 23.92786360655738 1.62767119749e-05 0.0 0.0 0.0
315 1 12.687327868852462 24.19334950819672 2.76798740206e-05 0.0 0.0 0.0
316 1 16.15348918032787 23.8531862295082 2.92742989572e-05 0.0 0.0 0.0
317 1 17.693186229508196 23.96300590163935 6.12511255401e-05 0.0 0.0 0.0
318 1 20.317598688524594 24.104281967213115 2.42745445999e-05 0.0 0.0 0.0
319 1 22.915654426229512 23.990321967213116 5.26966928634e-05 0.0 0.0 0.0
320 1 25.46478360655738 23.810217704918035 1.17883206956e-06 0.0 0.0 0.0
321 1 27.56423278688525 22.93787081967213 6.59762341971e-05 0.0 0.0 0.0
322 1 31.152483278688525 23.555284590163936 1.72817034391e-05 0.0 0.0 0.0
323 1 33.867326557377055 23.75568655737705 3.64980361907e-05 0.0 0.0 0.0
324 1 36.32183409836066 24.28317442622951 9.40268902466e-05 0.0 0.0 0.0
325 1 38.950386885245905 24.054850491803283 3.23366110555e-05 0.0 0.0 0.0
326 1 41.58444327868853 23.968358032786888 9.89655934928e-06 0.0 0.0 0.0
327 1 44.243341639344266 23.72109967213115 1.42528280824e-05 0.0 0.0 0.0
328 1 46.94429967213116 23.865051803278693 7.4568129938e-05 0.0 0.0 0.0
329 1 49.667979016393446 24.112007213114758 8.56392813058e-05 0.0 0.0 0.0
330 1 52.11864918032787 24.10620065573771 1.55952228016e-05 0.0 0.0 0.0
331 1 54.68767213114755 23.694793442622952 1.93994095127e-05 0.0 0.0 0.0
332 1 57.19206557377049 23.798705573770494 1.94352467478e-05 0.0 0.0 0.0
333 1 59.85399344262296 23.87959344262295 9.09304068878e-05 0.0 0.0 0.0
334 1 62.845127868852465 23.79421180327869 2.11751387138e-05 0.0 0.0 0.0
335 1 65.34851147540985 23.484848524590166 6.48355368397e-05 0.0 0.0 0.0
336 1 67.84836065573771 24.63283016393443 4.62493345641e-05 0.0 0.0 0.0
337 1 70.54159344262295 23.49550229508197 8.68608712477e-05 0.0 0.0 0.0
338 1 73.22018360655738 23.850661639344263 8.55245463838e-06 0.0 0.0 0.0
339 1 75.87554754098362 24.00870098360656 5.57625138336e-05 0.0 0.0 0.0
340 1 78.58847213114754 23.884794098360658 7.31828272983e-06 0.0 0.0 0.0
341 1 81.20647213114755 23.911100327868855 5.9014771164e-05 0.0 0.0 0.0
342 1 0.08144024918032787 26.365557377049182 3.4226169597e-05 0.0 0.0 0.0
343 1 2.720649836065574 26.219484590163937 9.22445617809e-05 0.0 0.0 0.0
344 1 5.101085901639345 27.27976196721312 1.52310504473e-05 0.0 0.0 0.0
345 1 7.731153442622952 25.92340065573771 5.4000518444e-05 0.0 0.0 0.0
346 1 10.019845901639345 25.347440655737707 2.53004492528e-05 0.0 0.0 0.0
347 1 13.512666885245903 26.48774754098361 5.09383791554e-05 0.0 0.0 0.0
348 1 16.35914229508197 26.52859540983607 5.01076981544e-05 0.0 0.0 0.0
349 1 19.063281311475414 26.385653114754103 6.51214712788e-05 0.0 0.0 0.0
350 1 21.70597180327869 26.409232786885248 3.22598754457e-05 0.0 0.0 0.0
351 1 24.359114098360656 26.277196721311476 4.29897979246e-05 0.0 0.0 0.0
352 1 27.031897704918034 25.891489836065574 5.07672249854e-05 0.0 0.0 0.0
353 1 29.741590819672133 25.78313442622951 3.09511168443e-05 0.0 0.0 0.0
354 1 32.35858098360656 25.857912786885247 4.15553223594e-05 0.0 0.0 0.0
355 1 34.70695475409836 27.275621639344266 5.5668196753e-06 0.0 0.0 0.0
356 1 37.62265442622951 26.484213114754102 2.38548481616e-06 0.0 0.0 0.0
357 1 40.28089639344263 26.36333573770492 5.85469878753e-05 0.0 0.0 0.0
358 1 42.98720655737706 26.198429508196725 1.37710938967e-05 0.0 0.0 0.0
359 1 45.649689836065576 26.14657442622951 2.63949837694e-05 0.0 0.0 0.0
360 1 48.284200655737706 26.28598229508197 8.64689832047e-05 0.0 0.0 0.0
361 1 51.00984918032787 26.545964590163937 2.37313066323e-05 0.0 0.0 0.0
362 1 53.68641967213115 26.18787672131148 5.51018025476e-05 0.0 0.0 0.0
363 1 55.95754098360656 27.34312918032787 5.50655860012e-05 0.0 0.0 0.0
364 1 58.57301639344263 26.131628852459016 6.55342330749e-07 0.0 0.0 0.0
365 1 60.69771147540984 25.174203278688527 4.27572795355e-05 0.0 0.0 0.0
366 1 64.60224262295083 25.95021180327869 8.36528506908e-05 0.0 0.0 0.0
367 1 67.36616393442623 26.08037967213115 6.95629587477e-05 0.0 0.0 0.0
368 1 69.80643278688524 25.917089180327874 7.72136578035e-05 0.0 0.0 0.0
369 1 72.03211147540985 27.204125245901643 7.24564416823e-05 0.0 0.0 0.0
370 1 74.74705573770493 26.23140065573771 8.77258558522e-05 0.0 0.0 0.0
371 1 77.47058360655738 26.204942950819675 5.30428656441e-05 0.0 0.0 0.0
372 1 80.13554098360657 26.23660131147541 5.24767863871e-05 0.0 0.0 0.0
373 1 1.5893910819672132 28.646322622950823 6.93716532683e-05 0.0 0.0 0.0
374 1 4.380658754098361 28.658188196721312 5.45468804291e-06 0.0 0.0 0.0
375 1 6.856584918032787 28.587297704918036 5.24988103552e-05 0.0 0.0 0.0
376 1 9.355171803278688 28.176496393442626 5.94579348452e-06 0.0 0.0 0.0
377 1 11.866331147540985 28.23592524590164 8.67819447157e-06 0.0 0.0 0.0
378 1 14.160880655737706 27.8578931147541 9.34539427804e-05 0.0 0.0 0.0
379 1 17.742567213114754 28.732815081967217 7.24763878079e-05 0.0 0.0 0.0
380 1 20.432164590163936 28.741752131147543 5.91819680112e-05 0.0 0.0 0.0
381 1 23.13347606557377 28.673184262295084 8.15694710199e-05 0.0 0.0 0.0
382 1 25.741024262295085 28.386289836065576 8.23207874091e-05 0.0 0.0 0.0
383 1 28.466672786885248 28.13857704918033 6.43749371488e-06 0.0 0.0 0.0
384 1 31.137537704918035 28.200681967213114 2.90995692311e-05 0.0 0.0 0.0
385 1 33.77851147540984 28.49737180327869 8.94776921389e-05 0.0 0.0 0.0
386 1 36.34824131147541 28.689392131147542 7.70887827771e-06 0.0 0.0 0.0
387 1 38.912366557377055 28.761342950819675 2.66280982265e-05 0.0 0.0 0.0
388 1 41.585402622950824 28.580228852459022 3.57733865104e-05 0.0 0.0 0.0
389 1 44.36325967213116 28.52978754098361 5.92751904385e-06 0.0 0.0 0.0
390 1 47.00362754098361 28.60587868852459 5.94142156766e-05 0.0 0.0 0.0
391 1 49.71670360655738 28.681161967213118 5.29853154543e-06 0.0 0.0 0.0
392 1 52.560452459016396 28.648241311475413 5.36356276384e-05 0.0 0.0 0.0
393 1 55.32891803278689 28.74427672131148 3.45726867407e-05 0.0 0.0 0.0
394 1 57.899455737704926 28.674951475409838 1.7145755849e-05 0.0 0.0 0.0
395 1 60.480596721311485 28.04996393442623 8.54837818403e-05 0.0 0.0 0.0
396 1 63.2248262295082 27.976801311475413 1.6006137075e-05 0.0 0.0 0.0
397 1 65.9816786885246 28.206185573770497 5.92355697348e-05 0.0 0.0 0.0
398 1 68.68046557377049 28.437640000000002 2.05211226427e-05 0.0 0.0 0.0
399 1 71.35097704918034 28.57831016393443 7.43609342835e-05 0.0 0.0 0.0
400 1 73.7816524590164 28.70923540983607 9.03231049036e-06 0.0 0.0 0.0
401 1 76.33300327868854 28.458291147540987 2.35320956946e-05 0.0 0.0 0.0
402 1 79.00755409836066 28.52327409836066 2.29504040737e-05 0.0 0.0 0.0
403 1 81.56344918032788 28.64521180327869 8.38696856318e-05 0.0 0.0 0.0
404 1 0.144229331147541 30.943851147540986 1.2218157121e-05 0.0 0.0 0.0
405 1 2.930125180327869 30.906689180327874 6.790872781e-05 0.0 0.0 0.0
406 1 5.636601967213115 31.07654360655738 6.79359894761e-05 0.0 0.0 0.0
407 1 8.321604590163936 30.796970491803282 3.87217929512e-05 0.0 0.0 0.0
408 1 11.039325901639346 30.58955016393443 3.05523924595e-05 0.0 0.0 0.0
409 1 13.729630163934427 30.446607868852464 8.45079078986e-05 0.0 0.0 0.0
410 1 16.133292459016396 31.744499672131152 4.31871050881e-05 0.0 0.0 0.0
411 1 19.05823213114754 31.04377442622951 2.10964169655e-05 0.0 0.0 0.0
412 1 21.876381639344263 31.01065180327869 6.54099436469e-05 0.0 0.0 0.0