# input file

2232 atoms
1 atom types

0.0 82.68810555352132 xlo xhi
0.0 83.16 ylo yhi
-10.0 10.0 zlo zhi
0.0 0.0 0.0 xy xz yz

Masses

1 12.0100 #C

Atoms

1 1 1.3307771147540985 0.9069640655737705 9.501540322433296e-05
2 1 4.053628393442623 0.989184918032787 6.947931502867416e-05
3 1 7.717975081967214 0.9550726557377051 6.434210469948093e-05
4 1 9.256864262295084 1.0381013770491805 8.876175007326093e-05
5 1 11.820989508196723 1.2113589508196723 4.4374465067522706e-05
6 1 14.359262950819673 1.1819777704918035 5.201008109709727e-06
7 1 16.789786885245903 0.9315788196721313 6.459797682880024e-05
8 1 19.498621639344265 0.9066914098360657 7.926387062897292e-05
9 1 22.02235344262295 0.952876262295082 1.066760059666806e-05
10 1 24.730380327868854 0.6517633442622951 9.956148859528602e-05
11 1 27.505510819672136 0.46362735081967216 6.965456142438267e-05
12 1 30.296344262295083 0.3245451540983607 1.5460422750293015e-05
13 1 33.07586754098361 0.3063655803278689 7.935689696058543e-05
14 1 35.74865114754099 0.5953488524590165 7.123996913571013e-05
15 1 38.273291803278696 0.5361522622950821 6.17902885772558e-05
16 1 40.968948196721314 0.5311081311475411 9.540711450168568e-05
17 1 43.59548131147542 0.6704756065573771 8.112300377414201e-05
18 1 46.13173508196722 0.6110063606557378 8.035988407509073e-05
19 1 48.45062163934427 1.9753150819672134 3.166347722864994e-05
20 1 51.02903606557377 0.7036487213114755 1.8388010234405694e-05
21 1 53.75761311475411 0.5137995409836066 2.511235634104947e-06
22 1 56.57707540983608 0.5870631475409837 3.810885473312772e-05
23 1 59.353114754098364 0.7348274098360656 7.371523045821509e-05
24 1 62.08320655737705 0.8431222295081968 6.831691202208215e-05
25 1 64.76987540983606 0.6378881967213115 6.42030618013023e-05
26 1 66.95314098360656 1.9225259016393443 1.0936935610720056e-05
27 1 69.70595409836066 0.9450702295081967 8.399782719965352e-05
28 1 72.38100983606559 0.6614072786885247 4.505117968925304e-05
29 1 75.29388196721312 1.0719359344262296 8.062462030873926e-05
30 1 78.5864524590164 1.1777465573770491 4.79327835479439e-05
31 1 81.36148196721312 0.9478876721311477 7.093158863397136e-05
32 1 82.60307540983608 3.268501049180328 6.527314206788107e-05
33 1 2.4269491147540982 3.217716393442623 4.130133820436347e-05
34 1 5.083060327868853 3.462313836065574 2.4530466289440447e-06
35 1 7.6149718032786895 3.492068655737705 7.196165133950082e-05
36 1 10.410147540983607 3.5418283278688527 9.530014961591544e-05
37 1 13.105400000000001 3.6510723934426235 7.316701357795313e-05
38 1 15.834128524590165 3.5530829508196726 4.691951605690153e-05
39 1 18.489896393442624 3.0917746885245903 4.84753730495541e-05
40 1 20.802219016393444 4.456265180327869 2.5530075374972327e-05
41 1 23.459905573770495 3.1347078688524594 8.658430002631877e-05
42 1 26.24170098360656 2.7868900327868857 8.862572265259126e-05
43 1 28.928773770491805 2.5837312131147545 5.1472378545325875e-05
44 1 31.738642622950824 2.5021263606557382 2.526879257805197e-05
45 1 34.46212 2.7032352131147546 7.664870680566146e-05
46 1 37.15540327868853 2.9521800000000002 4.137765973925366e-05
47 1 39.76941442622951 2.858830754098361 9.466660054730018e-05
48 1 42.33323672131148 2.9833485901639345 9.732730871218732e-07
49 1 44.99304393442623 3.0830345573770495 1.5286607711579005e-05
50 1 47.75630885245902 3.349565639344263 2.8410485545783193e-05
51 1 50.33851016393443 3.3405579016393445 3.486524894827359e-05
52 1 52.808872131147545 2.7881169836065576 2.5335156306198172e-05
53 1 55.232478688524594 3.694672065573771 2.0455418001024862e-05
54 1 58.136767213114766 2.902177967213115 1.1891480798376542e-05
55 1 60.7648655737705 3.092294754098361 5.086074541755852e-05
56 1 63.44295081967214 3.0843675409836067 1.4513922525223433e-05
57 1 66.2169704918033 3.2702985573770493 1.545846211540737e-05
58 1 68.87485901639344 3.3395329180327873 2.1938984636860204e-05
59 1 71.55294426229509 2.965424 4.113012656206149e-05
60 1 73.98765901639345 3.8896966557377053 9.98222645635654e-05
61 1 76.15577704918034 2.387550360655738 6.520519901900872e-05
62 1 79.99870819672131 3.2505057704918037 8.8927306862077e-05
63 1 1.1655780327868854 5.693051803278689 6.947671561112737e-05
64 1 3.783830491803279 5.604337704918033 5.375951776369736e-06
65 1 6.386708196721312 5.855685901639345 4.616900631268324e-05
66 1 8.818999344262297 5.735010491803279 3.7854877917265544e-05
67 1 11.466133114754099 5.931928524590164 6.880751556001046e-05
68 1 14.568854426229509 5.93864393442623 8.655437130493275e-05
69 1 18.25909836065574 5.312394098360656 5.394807576335989e-05
70 1 19.783445901639347 5.628826229508197 7.845734719184344e-05
71 1 22.60260524590164 5.768284590163935 1.1676990754811611e-05
72 1 25.258221639344264 5.126533770491804 2.4028860156061074e-05
73 1 27.893035409836067 4.961794163934427 8.666664572158245e-05
74 1 30.499321311475413 4.672445836065574 3.979860753715611e-05
75 1 33.18644459016394 4.8172058360655745 1.3091564640965715e-05
76 1 35.78333901639345 5.079727868852459 6.559535752608023e-05
77 1 38.47530950819672 5.260539016393443 7.925293279313204e-05
78 1 40.97536065573771 5.351626229508198 2.9962627251933196e-05
79 1 43.59411803278689 5.3949481967213115 6.244011203143307e-05
80 1 46.29285442622951 5.471948196721312 5.876682526721985e-05
81 1 49.05460459016394 5.712390163934426 5.904385177817984e-05
82 1 51.766721311475415 5.484621639344263 2.906428842008092e-05
83 1 54.36250491803279 4.955326163934427 4.4886573736337326e-05
84 1 57.01281967213116 5.094269508196722 8.142848847836563e-05
85 1 59.4480393442623 5.387374426229509 1.550670459160757e-05
86 1 62.09734426229509 5.447611147540984 3.9445393165857116e-05
87 1 64.82592131147543 5.409944262295082 1.014230668365439e-05
88 1 67.62367213114756 5.57944524590164 8.938216328343142e-05
89 1 70.34063606557378 5.3831836065573775 8.615776888521409e-05
90 1 73.17171147540985 5.176672131147542 5.5883250726673296e-05
91 1 75.76900983606559 5.3439514754098365 9.982090971173379e-05
92 1 78.47789508196722 5.337034098360657 3.747282219176447e-05
93 1 81.1736524590164 5.624534426229509 1.4564979975419168e-06
94 1 82.42635409836068 7.987197377049181 6.679931154299261e-05
95 1 3.3286115409836072 7.767305573770493 5.322051684680317e-05
96 1 4.851075737704918 8.032034098360656 5.013448823325872e-06
97 1 7.3815986885245914 8.25717704918033 4.559993244656402e-06
98 1 9.937948196721313 8.12817049180328 1.290832476967374e-05
99 1 12.176502295081969 7.306769836065574 4.402148326481287e-05
100 1 15.75081704918033 8.169775737704919 5.728339537155036e-06
101 1 18.158064262295085 7.972857704918034 8.908963864018184e-05
102 1 20.319365901639344 7.088594754098361 4.8064294261733225e-05
103 1 24.01607278688525 7.636632786885246 7.127489192949169e-05
104 1 26.709659016393445 7.364179016393443 2.956190383134697e-05
105 1 30.121794098360656 6.899755409836066 3.6503341195421105e-05
106 1 31.653210491803282 6.9736754098360665 1.9331527341805255e-05
107 1 34.27055409836066 7.269203934426231 6.0600860170801685e-06
108 1 36.90819540983607 7.424567213114755 9.659718570774376e-05
109 1 39.49494098360656 7.768416393442624 8.365640170925906e-05
110 1 42.13687409836066 7.761953442622952 8.8749611345876e-05
111 1 44.859745573770496 7.756197377049181 7.057706747255146e-05
112 1 47.6054393442623 7.837186229508197 9.276547080782938e-05
113 1 50.38718426229509 7.898786229508198 3.054608605566231e-05
114 1 53.98684590163935 7.344941639344262 2.6604578407729842e-05
115 1 55.52836065573771 7.24996655737705 7.613106898795122e-05
116 1 57.65961967213115 8.714582295081968 2.2144281276290267e-05
117 1 60.50988196721312 7.776949508196722 8.511101386354976e-05
118 1 63.76710819672132 7.690911475409837 4.2943904721331196e-05
119 1 66.51891147540984 7.637844590163935 5.502200559074411e-06
120 1 69.23688524590165 7.709694426229508 1.4711971968112526e-05
121 1 71.92052459016394 7.380033442622952 8.912984031708047e-05
122 1 74.24466229508198 8.592745573770493 5.6424696896681395e-05
123 1 77.1120918032787 7.65460786885246 3.567363836354975e-05
124 1 79.7376655737705 7.798358032786886 3.5604252073803515e-05
125 1 0.8164120655737706 10.437918032786886 7.008429812158757e-06
126 1 3.3749529180327875 10.329108196721313 6.98960722103516e-05
127 1 6.097794098360657 10.606106229508198 1.9515109983590295e-06
128 1 8.729982295081967 10.596613770491803 6.551178073575217e-05
129 1 11.475070163934427 10.197476065573772 6.908700689625407e-05
130 1 14.28236393442623 10.215451147540984 7.901645466618925e-05
131 1 17.0402262295082 10.516028852459018 3.1466933041788825e-06
132 1 19.816820983606558 10.020199344262295 9.329742455483195e-05
133 1 22.55812196721312 9.959811147540984 5.555126744808237e-05
134 1 25.193390163934428 9.709472786885247 6.697761972586477e-05
135 1 27.825376393442625 9.783190819672132 4.165049179917868e-06
136 1 30.238177704918037 9.604449836065575 4.426488450713535e-05
137 1 32.998059672131156 9.437776393442624 8.529552091256236e-05
138 1 35.636054426229514 9.654133770491805 3.486768495347425e-05
139 1 37.93373442622951 11.066440000000002 8.899130101833128e-05
140 1 40.76273967213115 10.160516065573772 1.9717768128809722e-05
141 1 43.43446295081968 10.059986885245902 2.4733609315385055e-05
142 1 46.18051016393443 10.071145573770494 8.19547639014732e-05
143 1 48.83461180327869 10.111690491803278 7.02202679401707e-05
144 1 51.487501639344266 10.259429508196721 7.73436391225039e-05
145 1 54.05753442622951 10.017472786885246 5.270774963318151e-05
146 1 56.86336393442623 10.03509442622951 4.535421161323743e-05
147 1 59.369777049180335 10.077608524590165 1.3422785047380126e-05
148 1 61.425298360655745 9.024400000000002 6.562466383408168e-05
149 1 65.2768131147541 9.856504918032789 3.957712971577616e-05
150 1 67.90036721311476 9.938756065573772 9.918878686400115e-05
151 1 70.61834098360656 9.842771147540985 6.968463884241771e-06
152 1 73.3428786885246 9.840801967213116 9.540000170943584e-05
153 1 75.90584262295083 9.953853114754098 7.471340916110786e-05
154 1 78.41982950819674 10.110024262295083 2.719667055618671e-05
155 1 80.96259672131148 10.21247213114754 4.48650762448061e-05
156 1 82.48139016393444 12.67738098360656 8.987491222085936e-05
157 1 2.575642426229509 12.66304131147541 4.4041486089730635e-05
158 1 4.990160459016394 13.948108196721314 5.5164687228965706e-05
159 1 7.645418360655738 13.014363278688526 5.477297123544977e-05
160 1 10.282958688524591 12.646782950819674 4.090982054020404e-05
161 1 12.95104655737705 12.406845901639345 8.811782521812788e-05
162 1 15.642108196721313 12.614064262295082 6.14931949273593e-05
163 1 18.486008524590165 12.459609836065576 7.918455469288047e-05
164 1 21.30678360655738 12.295208524590166 3.7917094461617154e-05
165 1 24.816317377049185 11.910511475409837 8.068297084861085e-05
166 1 26.356822295081972 12.012555409836066 8.854470362272127e-05
167 1 29.122510819672137 12.140451147540984 6.566904848321252e-05
168 1 31.909759344262298 11.689559344262296 4.544822492396059e-05
169 1 34.15013114754099 13.095352131147543 2.3577463531523103e-05
170 1 37.09652983606558 12.38129704918033 2.1478718788074793e-05
171 1 39.75456983606558 12.59492786885246 2.0724887094175583e-05
172 1 42.280674754098364 12.461629508196722 9.415784843633269e-05
173 1 44.77794885245902 12.320757377049182 7.889579326423502e-06
174 1 47.4993055737705 12.441432786885247 6.231568678255962e-05
175 1 50.19915278688525 12.499296393442624 4.796761770737328e-05
176 1 52.97095081967213 12.486168524590164 1.289879937980959e-05
177 1 55.647521311475415 12.238708196721314 9.518572503857829e-05
178 1 58.32661639344263 12.43517180327869 8.707768005518684e-05
179 1 60.959763934426235 11.984380983606558 9.083082557216755e-05
180 1 63.67420327868853 11.805993442622952 9.962325057618046e-05
181 1 66.37299016393443 12.228458360655738 4.7457237320544946e-05
182 1 69.1768 12.16493967213115 6.230820621516113e-05
183 1 71.99424262295084 12.114700327868855 2.003068231602824e-05
184 1 74.7288786885246 12.220127213114756 9.269531349764094e-05
185 1 77.0277704918033 13.51468655737705 2.991445106458527e-05
186 1 79.77654426229509 12.579830819672132 4.2048511440958216e-05
187 1 1.2861524590163935 14.88452918032787 1.6551403913277196e-05
188 1 4.179024786885247 15.266600655737706 9.908813611231491e-05
189 1 6.947975081967214 15.619538360655739 3.085655258326119e-05
190 1 9.57082229508197 15.115680655737707 9.209358364137743e-05
191 1 12.031439344262296 14.78793836065574 8.525988217700957e-05
192 1 14.461306885245902 15.947331147540986 9.223182898958143e-05
193 1 17.204375081967214 14.72436918032787 7.682773867041349e-05
194 1 19.947443278688528 14.567844590163936 8.882387273157109e-05
195 1 22.571300327868855 14.718158688524591 3.410060170367666e-05
196 1 25.063020327868855 14.53149049180328 5.331032663164913e-05
197 1 27.73555147540984 14.306650491803278 8.219502846766335e-06
198 1 30.51128786885246 14.083274754098362 1.2875067757545644e-05
199 1 33.26839278688525 14.388093770491803 2.7376662839575616e-05
200 1 35.78192524590164 14.660396065573773 6.035583296656662e-05
201 1 38.355593442622954 14.7740531147541 7.617117692867053e-05
202 1 41.07634426229509 14.964457704918035 4.137295047425657e-05
203 1 43.97442229508197 14.807024262295084 3.720022275924262e-06
204 1 46.29133967213115 15.801864262295084 8.287229009583282e-05
205 1 49.02824786885246 14.760521311475411 5.448322174789661e-05
206 1 51.797521311475414 14.693821639344264 5.559679389488362e-05
207 1 54.50438688524591 14.650903606557378 3.068630646034793e-05
208 1 57.19257049180329 14.618083934426231 1.055758444570093e-05
209 1 59.929731147540984 14.504729836065575 6.323983304286731e-05
210 1 62.5512655737705 14.12563737704918 6.693239995947395e-05
211 1 64.89105573770493 15.372885901639346 2.9553711148189778e-05
212 1 67.7524262295082 14.413087213114755 2.5073102968947105e-05
213 1 70.61531147540984 14.323464262295083 7.340212371470684e-05
214 1 73.39791475409838 14.428638688524591 8.245475195120507e-05
215 1 76.1880918032787 14.798996065573771 8.16092459098842e-05
216 1 78.72732459016393 15.052060983606559 3.572574538861416e-05
217 1 81.26807213114755 14.90381704918033 1.4612393787631206e-05
218 1 82.506131147541 17.160699672131148 5.835724502329581e-05
219 1 2.570876 17.096625573770492 3.0326920133578774e-05
220 1 4.825890426229509 16.664920655737706 2.676153501427364e-05
221 1 8.329178360655737 17.64425967213115 4.9041784923473156e-05
222 1 10.925214426229509 17.47223409836066 6.384131353811939e-05
223 1 14.029147540983608 17.439919344262297 6.630457742937995e-05
224 1 16.53621704918033 17.10167475409836 1.832641276461575e-05
225 1 19.035005901639344 16.832805901639343 2.206016227064789e-05
226 1 21.575147540983608 16.924549508196723 7.319223172016787e-05
227 1 24.222180327868852 17.000287213114756 5.423232802132525e-05
228 1 26.835232131147542 16.71298885245902 7.599338028889825e-05
229 1 29.379160655737707 16.376662950819675 8.022362380067658e-05
230 1 31.54854098360656 17.614873442622955 7.150747757028963e-05
231 1 34.47009770491803 16.924095081967216 9.698293902006884e-05
232 1 37.099104918032786 17.075671475409838 1.0133204233997772e-05
233 1 39.688930491803276 17.084659016393445 1.4640337098899115e-05
234 1 41.91087278688525 16.271185573770495 8.251413721570899e-05
235 1 45.57955672131148 17.165445901639345 9.228447968492687e-05
236 1 47.99028786885246 17.237093770491803 5.075576534180786e-05
237 1 50.7392131147541 16.909805901639345 7.805152786352808e-05
238 1 53.30975081967214 16.94964393442623 6.988707050199482e-05
239 1 55.983291803278696 16.92818491803279 7.456978081239118e-05
240 1 58.69318688524591 16.830634754098362 9.355939921471561e-05
241 1 61.37278688524591 16.67870491803279 8.141094063331655e-06
242 1 64.11600655737706 16.717886557377053 2.766169776386929e-06
243 1 66.6284786885246 16.761460983606558 7.258981710393381e-05
244 1 69.38987540983607 16.479464262295085 6.192218195517347e-05
245 1 72.04826885245903 16.58241704918033 7.60985726508774e-05
246 1 74.63950819672131 16.788373114754098 5.907794445533205e-05
247 1 77.30800000000002 17.288595409836066 1.536648740736393e-05
248 1 79.9300393442623 17.362515409836067 5.567610228373285e-05
249 1 1.3459499016393444 19.308469508196723 7.6480721607311e-05
250 1 4.095491147540984 19.397385573770492 4.64404744343245e-05
251 1 6.796903606557377 19.99399672131148 6.829042186652737e-05
252 1 9.747594098360656 19.90230360655738 2.81381357882049e-06
253 1 11.764893114754098 18.78335475409836 6.688589289132612e-05
254 1 15.33042229508197 19.61237967213115 1.9442194008393756e-05
255 1 17.96139868852459 19.34295540983607 3.744095812107208e-05
256 1 20.487301639344263 19.249798032786888 6.818273297478782e-05
257 1 23.023605901639346 19.263026885245903 5.991609407061799e-05
258 1 25.71088065573771 19.20162885245902 4.3302343490107586e-05
259 1 28.241630819672135 19.00400393442623 1.743358482670636e-05
260 1 30.795506229508202 18.962903606557376 6.541788093469147e-05
261 1 33.41062819672131 19.064291147540985 7.207559672675878e-05
262 1 36.048824918032786 19.31023672131148 3.123508846391228e-05
263 1 38.60219540983607 19.424449180327873 4.6480558865101544e-05
264 1 41.231657049180335 19.151742950819674 7.60741695651536e-05
265 1 43.94018885245902 19.297613770491804 4.798171111862e-05
266 1 46.75879278688525 19.666052459016395 1.0713416862587366e-05
267 1 49.494640655737705 19.219704918032786 6.544372831930808e-05
268 1 52.0100918032787 19.31700262295082 5.40100886158362e-05
269 1 54.66040655737705 19.248333770491804 4.2316198184732595e-05
270 1 57.393527868852466 19.167092459016395 6.407315740722948e-05
271 1 60.03121967213115 19.08978950819672 1.4156531692258346e-05
272 1 62.61387540983607 18.98143409836066 3.629435807946163e-05
273 1 65.35558032786885 19.144876065573772 4.728554873328308e-05
274 1 68.08516721311476 18.770075409836068 8.642527130575687e-05
275 1 70.76880655737705 18.824707540983606 3.74261661533446e-05
276 1 73.24139016393444 19.042478688524593 9.631864028783181e-05
277 1 75.72659672131148 19.269489836065578 5.860310008482037e-05
278 1 78.37438688524591 19.650349508196726 7.042278249021925e-05
279 1 81.34078032786887 19.63171803278689 7.593898477017578e-05
280 1 82.63892459016395 21.673000655737706 1.1085256021751821e-05
281 1 2.4047074754098365 21.514001967213115 7.382100761044469e-05
282 1 5.116788852459017 21.881380327868854 2.696429725582916e-06
283 1 7.4928826229508205 21.40988786885246 3.85891480560128e-05
284 1 11.360908196721311 21.78872786885246 1.9247979717238184e-05
285 1 13.95704524590164 21.78993967213115 3.45008499141923e-05
286 1 16.60937967213115 21.73672131147541 2.2908544789687813e-05
287 1 19.25126229508197 21.67597967213115 1.639610590887658e-05
288 1 21.706830163934427 21.651642622950824 2.2673634255764274e-05
289 1 24.21450557377049 21.50612524590164 1.4691835009265054e-05
290 1 26.87461573770492 21.550709508196725 2.3990420333262807e-05
291 1 29.71669836065574 21.414987540983606 8.286962966832213e-05
292 1 32.423008524590166 21.256645245901645 5.0065379264078574e-05
293 1 34.77835016393443 22.539944918032788 7.475963049006537e-05
294 1 37.45875803278689 21.760704918032786 7.352719808802868e-05
295 1 40.06115606557377 21.62902229508197 5.5604416964509745e-05
296 1 42.5888262295082 21.497996065573773 9.68010832004772e-06
297 1 44.6017324590164 20.733752131147543 9.625902221598779e-05
298 1 48.361604590163935 21.55656655737705 7.229669159018932e-05
299 1 50.51300983606558 22.818508196721314 2.831747352379932e-05
300 1 53.234013114754106 21.604432786885248 2.562247692149038e-05
301 1 56.033783606557385 21.45997573770492 2.7887875360124395e-05
302 1 58.69318688524591 21.48991737704918 8.989841230584873e-06
303 1 61.27180327868853 21.449372459016395 9.70466316057461e-05
304 1 63.78478032786886 21.294009180327873 3.4075982519105264e-06
305 1 67.70294426229508 20.875381639344262 9.862174848352827e-05
306 1 69.22981639344262 21.030643934426234 5.416702552660733e-05
307 1 71.87053770491805 21.36686885245902 4.025774708228954e-05
308 1 74.42693770491803 21.574592131147543 2.431869353868571e-05
309 1 76.97273442622951 21.71243475409836 9.127559712615811e-05
310 1 79.08783606557377 21.007922622950822 3.746021875635759e-05
311 1 0.9880993442622952 23.9908268852459 2.663440260381087e-05
312 1 3.5020458360655744 23.84339081967213 6.946384837196394e-05
313 1 5.720822295081968 23.295049836065576 7.401862300024572e-05
314 1 9.421417049180329 23.92786360655738 3.350038382051426e-05
315 1 12.687327868852462 24.19334950819672 9.725170433325319e-05
316 1 16.15348918032787 23.8531862295082 2.9377412006248095e-05
317 1 17.693186229508196 23.96300590163935 6.565162956580712e-05
318 1 20.317598688524594 24.104281967213115 5.840419458976215e-05
319 1 22.915654426229512 23.990321967213116 7.252513603738351e-05
320 1 25.46478360655738 23.810217704918035 6.3145622531100235e-06
321 1 27.56423278688525 22.93787081967213 9.841089904877712e-05
322 1 31.152483278688525 23.555284590163936 2.3363138809025333e-05
323 1 33.867326557377055 23.75568655737705 5.552691869623161e-06
324 1 36.32183409836066 24.28317442622951 3.095629630335233e-05
325 1 38.950386885245905 24.054850491803283 2.4041258604018248e-05
326 1 41.58444327868853 23.968358032786888 1.0487765552149365e-06
327 1 44.243341639344266 23.72109967213115 8.423571563613032e-05
328 1 46.94429967213116 23.865051803278693 5.15481381794985e-05
329 1 49.667979016393446 24.112007213114758 1.645983401766138e-05
330 1 52.11864918032787 24.10620065573771 5.061656170482255e-05
331 1 54.68767213114755 23.694793442622952 3.4817186677253214e-05
332 1 57.19206557377049 23.798705573770494 2.8649360569010575e-05
333 1 59.85399344262296 23.87959344262295 4.900479007696962e-05
334 1 62.845127868852465 23.79421180327869 2.828772824147121e-05
335 1 65.34851147540985 23.484848524590166 3.4748530808596743e-05
336 1 67.84836065573771 24.63283016393443 4.97375865998124e-05
337 1 70.54159344262295 23.49550229508197 4.15944965099035e-05
338 1 73.22018360655738 23.850661639344263 7.81421771768086e-05
339 1 75.87554754098362 24.00870098360656 6.163653791089161e-05
340 1 78.58847213114754 23.884794098360658 9.313721405119185e-05
341 1 81.20647213114755 23.911100327868855 2.4798704908133196e-05
342 1 0.08144024918032787 26.365557377049182 2.3954236521532047e-05
343 1 2.720649836065574 26.219484590163937 6.877453472534628e-05
344 1 5.101085901639345 27.27976196721312 8.144452487021224e-05
345 1 7.731153442622952 25.92340065573771 9.130462618960065e-05
346 1 10.019845901639345 25.347440655737707 2.2380128063348482e-05
347 1 13.512666885245903 26.48774754098361 2.676628414694764e-05
348 1 16.35914229508197 26.52859540983607 3.345241902327021e-05
349 1 19.063281311475414 26.385653114754103 5.9070259622295764e-05
350 1 21.70597180327869 26.409232786885248 9.35721845873455e-05
351 1 24.359114098360656 26.277196721311476 4.694987261730349e-05
352 1 27.031897704918034 25.891489836065574 2.757839967464657e-05
353 1 29.741590819672133 25.78313442622951 5.5161435609680735e-05
354 1 32.35858098360656 25.857912786885247 8.824586275218307e-05
355 1 34.70695475409836 27.275621639344266 5.2510204101853755e-05
356 1 37.62265442622951 26.484213114754102 4.9816706186636944e-05
357 1 40.28089639344263 26.36333573770492 9.674238224372959e-05
358 1 42.98720655737706 26.198429508196725 8.483011590034905e-05
359 1 45.649689836065576 26.14657442622951 3.4484902015019125e-05
360 1 48.284200655737706 26.28598229508197 1.4485235439890698e-05
361 1 51.00984918032787 26.545964590163937 9.088386819542636e-05
362 1 53.68641967213115 26.18787672131148 8.509732547967337e-05
363 1 55.95754098360656 27.34312918032787 9.072138502621451e-05
364 1 58.57301639344263 26.131628852459016 5.051115397781123e-05
365 1 60.69771147540984 25.174203278688527 8.039522930546712e-05
366 1 64.60224262295083 25.95021180327869 2.3670936995986336e-05
367 1 67.36616393442623 26.08037967213115 1.6999224493074782e-05
368 1 69.80643278688524 25.917089180327874 6.24574670026371e-05
369 1 72.03211147540985 27.204125245901643 1.085654753408013e-05
370 1 74.74705573770493 26.23140065573771 7.387905825265849e-05
371 1 77.47058360655738 26.204942950819675 6.966785157022659e-05
372 1 80.13554098360657 26.23660131147541 1.670572874149847e-05
373 1 1.5893910819672132 28.646322622950823 4.158605248754679e-05
374 1 4.380658754098361 28.658188196721312 4.675246386787785e-05
375 1 6.856584918032787 28.587297704918036 2.941434486819289e-05
376 1 9.355171803278688 28.176496393442626 4.7134931505309065e-05
377 1 11.866331147540985 28.23592524590164 9.827374967870193e-05
378 1 14.160880655737706 27.8578931147541 1.696533846440852e-05
379 1 17.742567213114754 28.732815081967217 8.693560510971434e-05
380 1 20.432164590163936 28.741752131147543 9.104242661104499e-05
381 1 23.13347606557377 28.673184262295084 4.2836204948209636e-05
382 1 25.741024262295085 28.386289836065576 7.132727416206741e-06
383 1 28.466672786885248 28.13857704918033 7.952535611779095e-05
384 1 31.137537704918035 28.200681967213114 4.333214338456396e-05
385 1 33.77851147540984 28.49737180327869 6.761746593930092e-05
386 1 36.34824131147541 28.689392131147542 2.8654618125391608e-05
387 1 38.912366557377055 28.761342950819675 4.052239139388686e-05
388 1 41.585402622950824 28.580228852459022 7.367279003630793e-05
389 1 44.36325967213116 28.52978754098361 4.5547279379170246e-05
390 1 47.00362754098361 28.60587868852459 8.64402324998437e-05
391 1 49.71670360655738 28.681161967213118 2.126716984874729e-05
392 1 52.560452459016396 28.648241311475413 8.701511897187815e-05
393 1 55.32891803278689 28.74427672131148 4.051017358224296e-06
394 1 57.899455737704926 28.674951475409838 7.40400971831991e-05
395 1 60.480596721311485 28.04996393442623 7.322955260208083e-05
396 1 63.2248262295082 27.976801311475413 6.368391047444022e-06
397 1 65.9816786885246 28.206185573770497 6.968362755426907e-05
398 1 68.68046557377049 28.437640000000002 3.041218609129046e-05
399 1 71.35097704918034 28.57831016393443 1.1818778688445609e-05
400 1 73.7816524590164 28.70923540983607 9.544233410508764e-05
401 1 76.33300327868854 28.458291147540987 8.875829033614307e-05
402 1 79.00755409836066 28.52327409836066 6.0988135570071146e-05
403 1 81.56344918032788 28.64521180327869 5.523305087227841e-05
404 1 0.144229331147541 30.943851147540986 7.708320807023027e-05
405 1 2.930125180327869 30.906689180327874 7.812131298058143e-05
406 1 5.636601967213115 31.07654360655738 9.706302067947285e-05
407 1 8.321604590163936 30.796970491803282 9.234499286018023e-05
408 1 11.039325901639346 30.58955016393443 6.275444194258817e-05
409 1 13.729630163934427 30.446607868852464 9.77815671162791e-05
410 1 16.133292459016396 31.744499672131152 6.899759469977135e-05
411 1 19.05823213114754 31.04377442622951 7.994308243976843e-05
412 1 21.876381639344263 31.01065180327869 2.6115226094575018e-05
413 1 24.56966491803279 30.9094662295082 5.381738688136475e-05
414 1 27.16989180327869 30.508207868852462 3.240760745236029e-05
415 1 29.83752524590164 30.489424918032793 5.098781085453142e-07
416 1 32.45244524590164 30.689170491803285 3.5791825539988024e-05
417 1 35.13335803278689 30.90406360655738 7.70849031995149e-05
418 1 37.38620131147541 32.16146098360656 4.6872201589627716e-05
419 1 40.14371016393443 30.992373770491806 8.531250414042512e-06
420 1 42.85602885245902 30.773390819672134 1.4045489265639178e-05
421 1 45.55915803278689 30.952737704918036 7.041522080177924e-05
422 1 48.549888524590166 30.947032131147544 3.364378034667681e-05
423 1 51.36531147540984 30.814289180327872 4.881560064791862e-05
424 1 54.029259016393446 30.930117377049182 7.62073647123521e-05
425 1 56.79469508196722 31.05917442622951 2.4612712472490196e-05
426 1 59.44702950819673 30.640950819672135 1.695718111966691e-05
427 1 62.04887213114755 30.237167868852463 5.0801760398103326e-05
428 1 64.74664918032788 30.29311278688525 8.09307930859533e-05
429 1 67.35909508196723 30.577381639344267 3.954854088301415e-05
430 1 69.92306885245902 30.79813180327869 3.9104772163762906e-05
431 1 72.4956262295082 31.085531147540987 9.766964431379675e-05
432 1 75.02627540983607 30.929965901639346 7.404510409471566e-05
433 1 77.6392262295082 30.765615081967216 6.960620764730455e-05
434 1 80.19411147540984 30.998988196721314 9.489049703114753e-05
435 1 1.3723116721311477 33.14135540983607 1.1225227086181533e-05
436 1 4.113996393442624 33.29656721311476 9.642034113499893e-05
437 1 7.267335737704919 33.235573114754104 6.457578373412512e-05
438 1 9.975615081967215 32.945396721311475 7.152026475726947e-06
439 1 12.569833442622953 32.85340065573771 7.017261248927209e-05
440 1 15.299824262295084 33.0479455737705 3.8363318366189496e-05
441 1 17.882732459016395 33.300909508196725 1.9487869885666732e-05
442 1 20.551830163934426 33.22426295081967 3.3454511067425144e-05
443 1 23.245416393442625 33.298485901639346 5.5952283775852686e-05
444 1 26.715920000000004 32.88218098360656 2.7456159602529187e-05
445 1 28.256626885245904 32.77013967213115 4.36178486908946e-05
446 1 30.875384262295082 32.94090295081968 2.5117892584963776e-05
447 1 33.708277377049185 33.11459475409837 2.5108875425967348e-05
448 1 36.49729311475411 33.42809836065574 7.925773388377367e-05
449 1 39.06606360655738 33.477277377049184 5.5703677768845054e-05
450 1 41.761215081967215 33.129287868852465 6.15473901278407e-05
451 1 44.304840655737706 33.10474885245902 5.9590592447595374e-05
452 1 46.297398688524595 32.32101508196722 9.81972915433332e-05
453 1 49.874944918032796 33.002502950819675 5.705655608285198e-05
454 1 52.53419672131148 33.189979016393444 3.439741481061981e-05
455 1 55.69346885245903 33.17922426229509 8.495385916060507e-05
456 1 58.605836065573776 33.093337704918035 6.967530885125024e-05
457 1 61.11325901639345 32.724646557377056 7.42976640197146e-05
458 1 63.618662295081975 32.494656393442625 9.6133680536653e-05
459 1 66.14779672131148 32.74575213114755 9.258880731804574e-05
460 1 68.58150163934427 33.062133770491805 9.106163955836726e-05
461 1 71.18889836065576 33.288841967213116 4.360902936629602e-05