# input file

2232 atoms
1 atom types

0.0 82.68810555352132 xlo xhi
0.0 83.16 ylo yhi
-10.0 10.0 zlo zhi
0.0 0.0 0.0 xy xz yz

Masses

1 12.0100 #C

Atoms

1 1 1.111380131147541 0.4817160393442623 2.6973549533315734e-05
2 1 3.870060393442623 0.6365653114754098 7.477645286681357e-05
3 1 6.512735737704919 0.6946510819672131 2.427929240916865e-05
4 1 9.291047213114755 0.7423860327868853 7.499507821436457e-05
5 1 11.93848393442623 0.801496786885246 8.663690799220778e-05
6 1 14.664586885245903 0.7160091147540985 5.0938105930734405e-05
7 1 17.35847606557377 0.686032131147541 4.670906312762882e-05
8 1 20.01247672131148 0.9590968524590165 4.6616972165392625e-06
9 1 22.67773704918033 0.9245958032786886 2.221810461642434e-05
10 1 25.366880000000005 0.830216524590164 7.515428563245874e-05
11 1 28.209820983606562 0.9932293114754099 4.368570771187643e-05
12 1 31.60796983606558 0.8269598032786886 6.60119685678206e-05
13 1 33.15367540983607 0.9355575737704919 7.64509434125006e-05
14 1 35.88568590163935 1.0745362622950823 4.963859356854883e-05
15 1 38.37296262295082 1.2251735081967214 6.5259968419471e-05
16 1 41.02090426229508 1.0757531147540984 2.330090427479703e-05
17 1 44.07919278688525 0.8640157377049181 1.061185261284281e-05
18 1 46.84447737704918 0.7321563934426231 2.2172077519464484e-05
19 1 49.442129180327875 0.8512211147540985 6.892847154628668e-06
20 1 52.09895737704919 0.911912262295082 3.601969700446553e-05
21 1 54.83510819672132 0.7491165901639345 9.29125337805109e-05
22 1 57.506124590163935 0.40865793442622955 6.321863511231387e-05
23 1 59.98678688524591 1.6107491147540984 3.716436958070894e-05
24 1 62.84866229508197 0.8890596721311476 9.325735720270243e-05
25 1 65.55502295081968 0.8458437377049182 8.489700562492741e-05
26 1 68.16847868852459 0.7927213114754099 4.064065745148105e-06
27 1 70.78799344262296 0.6398977704918034 3.1082085321509865e-05
28 1 73.52818360655738 0.23293989508196722 9.606714001436233e-05
29 1 76.29664918032788 0.3447444 1.3218358176529232e-05
30 1 78.79094426229508 0.4277004131147541 5.059403717316539e-05
31 1 81.23424262295083 0.4132723803278689 2.1548941073767705e-05
32 1 82.35112131147542 2.818053573770492 9.89429556992436e-05
33 1 2.3140645901639347 2.739947803278689 5.331886915507447e-05
34 1 4.929312786885247 2.9716799344262297 7.102955523140886e-05
35 1 7.683691147540984 2.8895600655737708 9.019623120521556e-05
36 1 10.402321311475411 3.111966360655738 7.451260905812373e-05
37 1 13.191337049180328 3.0369557377049183 5.483770781110986e-06
38 1 15.963892459016396 3.012320786885246 5.333132457283695e-05
39 1 18.65990229508197 3.1388633442622957 1.2456643345430952e-07
40 1 21.302239344262297 3.2535403278688526 6.850248655276442e-05
41 1 23.806430819672133 3.1486840000000007 5.304666297218419e-06
42 1 26.335969180327872 2.9900892459016393 7.431083757727606e-05
43 1 29.073180327868855 3.5113060327868855 2.041637546565989e-06
44 1 31.71137704918033 3.5821813770491806 6.437123899884198e-05
45 1 34.45838360655738 3.2776097704918037 8.384246733270151e-05
46 1 37.04881508196722 3.547493508196722 5.459110929789151e-05
47 1 39.655151475409845 3.4058185573770494 6.470171425469848e-05
48 1 41.7735855737705 2.4155581639344264 2.196916731491112e-05
49 1 45.463779016393445 2.96596931147541 2.1727368153244087e-05
50 1 48.202454426229515 3.1500270819672136 6.2099883044593356e-06
51 1 50.71800655737705 3.2115816393442627 6.010522596204741e-05
52 1 53.53746885245902 3.0959655081967217 1.5884257340164043e-05
53 1 56.23070163934427 2.9036068852459023 9.417006528811645e-06
54 1 59.16074098360656 2.910908 6.787912675715011e-05
55 1 61.82569836065574 3.2145808524590165 6.920401794810253e-05
56 1 64.43057049180328 3.187194098360656 1.5031853643951998e-05
57 1 66.97687213114754 3.228940721311476 1.643889263663626e-05
58 1 69.55548852459017 3.123988459016394 5.757957861039754e-05
59 1 73.19594754098362 2.3068745573770495 6.110828817062873e-05
60 1 74.72332459016395 2.4442930491803283 6.394247821179078e-05
61 1 77.34081967213116 2.8142161967213117 5.751375594169903e-05
62 1 79.85935081967214 2.8988202622950823 3.57134250077194e-05
63 1 1.2133937704918034 5.054532459016394 4.243997436850885e-05
64 1 3.7130763278688526 6.187013114754099 4.466993915233528e-05
65 1 6.526015081967214 5.128452459016394 2.9115828892069076e-05
66 1 9.012988852459017 6.227507540983607 5.3585445594963525e-05
67 1 11.83028 5.311737704918033 2.7093560592691747e-05
68 1 14.604451147540985 5.256954098360656 4.676243003715786e-06
69 1 17.383217049180328 5.366268852459017 7.624522653933242e-06
70 1 20.078520000000005 5.531276065573771 5.960870725542167e-05
71 1 22.656883934426233 5.639480000000001 1.733676169673576e-05
72 1 24.98359672131148 5.453064262295082 1.3312341238499182e-05
73 1 27.48718229508197 5.349303606557378 5.608212465353545e-05
74 1 29.718011147540988 4.902203737704919 4.852443303052412e-06
75 1 33.32216655737705 5.635339672131148 5.221812729692021e-06
76 1 35.88285836065574 5.742432786885246 7.797926023489549e-05
77 1 38.54705836065574 5.786512131147542 2.6216025045209224e-05
78 1 41.159100327868856 5.357584262295082 5.675857356714609e-07
79 1 43.588008524590165 4.967277573770493 2.7182268002599576e-05
80 1 46.305073442622955 5.171774426229509 1.5169326226656711e-05
81 1 49.31690950819673 5.643064918032787 3.5754650761336e-05
82 1 52.024734426229514 5.32112918032787 4.415062774617348e-05
83 1 54.72301639344263 5.3267842622950825 9.679025390279895e-05
84 1 57.73737704918033 4.953054032786886 7.392964707309305e-05
85 1 60.41142295081968 5.319361967213116 9.169347109006465e-06
86 1 63.13343606557378 5.566468852459017 2.571302039799062e-06
87 1 65.67317377049181 5.670330491803279 9.919500752031708e-05
88 1 68.2760262295082 5.6239285245901645 6.339369445630405e-08
89 1 71.59333770491804 5.2360504918032795 4.903554010327445e-05
90 1 73.09496393442623 4.977588 3.400790753953514e-05
91 1 75.80132459016394 4.948237114754098 5.6529602132626254e-06
92 1 78.48799344262297 5.303507540983607 9.774154008562519e-05
93 1 81.19536393442624 5.3087081967213114 9.294257307015014e-05
94 1 0.016965700327868857 7.489600655737705 8.398560825731927e-06
95 1 2.851090360655738 7.477987540983607 1.122649797628339e-06
96 1 5.504868852459017 7.580182950819673 3.4425716761640014e-05
97 1 8.275253114754099 7.576345573770493 3.449929204208282e-05
98 1 10.75924786885246 7.712269508196722 5.567134657149504e-05
99 1 13.334228852459017 7.50484918032787 5.900628098210938e-05
100 1 16.03599475409836 7.5164118032786895 6.806362277881196e-05
101 1 18.87979409836066 7.729436721311476 1.1454635431142246e-05
102 1 21.588679344262296 7.9618 4.69551117165947e-05
103 1 24.320639344262297 8.043596721311477 3.5405632757470775e-06
104 1 26.805795409836065 7.673895737704918 9.589091861422723e-05
105 1 29.140586885245906 8.862876721311476 4.5916429077102095e-05
106 1 31.920918032786886 7.9523075409836075 3.8513456915466626e-05
107 1 34.62328983606558 8.066822950819672 5.401429460440488e-05
108 1 37.34818098360656 8.058744262295082 3.811597426463627e-05
109 1 40.07488983606558 7.881921967213116 3.549642771332364e-05
110 1 42.7321724590164 7.595784918032788 4.9913964637289624e-05
111 1 45.296651147540985 7.195889836065574 1.566137787994758e-05
112 1 48.208816393442625 8.334681967213116 3.24482750794018e-05
113 1 50.9396655737705 7.711613114754099 9.630564268925577e-05
114 1 53.50767868852459 7.572003278688525 3.5381431981028767e-05
115 1 55.450603278688526 6.690618360655738 3.388945504491624e-05
116 1 58.49778360655738 8.58552524590164 4.7926244704360665e-05
117 1 61.305632786885255 7.610780983606558 9.168525693656136e-05
118 1 64.04935737704919 8.046373770491805 4.036166217530248e-05
119 1 67.0172655737705 8.083182295081969 4.721558964885554e-05
120 1 69.63072131147541 8.044808524590165 6.83143239813671e-05
121 1 72.12249180327869 7.807749508196722 8.399854869651466e-05
122 1 74.76270819672132 7.210936393442624 5.647920607248965e-05
123 1 77.16157377049181 8.53513442622951 5.323495871697005e-05
124 1 79.95982950819673 7.636329836065575 4.6875673481116424e-05
125 1 1.3211281311475411 9.693365901639346 9.49332343185887e-06
126 1 3.9783501639344268 9.811718688524591 6.410838715264695e-05
127 1 6.768830163934426 9.77713180327869 7.377287874710908e-05
128 1 9.332248524590165 10.04620262295082 5.671277845277134e-05
129 1 11.970546229508198 9.956983606557378 2.706460599306544e-05
130 1 14.544315409836067 9.774708196721313 6.0818701668795365e-05
131 1 17.22563213114754 9.715986229508196 8.57176580224408e-06
132 1 20.360365245901644 10.13012 5.294582277040743e-05
133 1 23.178514754098366 10.28568524590164 1.244919950904444e-06
134 1 26.619177704918034 10.041961311475411 7.927648548050243e-05
135 1 28.184777049180333 10.070287213114756 8.488574247474165e-05
136 1 30.749407213114758 10.41898360655738 5.077444961616308e-05
137 1 33.407093770491805 10.300580327868854 7.500605665339138e-05
138 1 36.10764786885246 10.322140327868855 1.5275711138611924e-05
139 1 38.86601508196722 10.226559344262297 5.068280812991144e-05
140 1 41.63160262295083 10.044435409836067 2.088949826660721e-05
141 1 44.371186885245905 9.749159344262296 4.483111013776974e-05
142 1 47.29112786885246 9.595108852459017 8.762065366554317e-05
143 1 49.87858032786885 10.13012 8.594011622425457e-05
144 1 52.501377049180334 9.989348852459017 4.1768460284668674e-05
145 1 55.12796065573771 9.707049180327871 1.6290516071580108e-05
146 1 57.82371803278689 9.969101639344263 8.263094015996114e-05
147 1 60.31851803278689 9.944007213114753 7.621498770410579e-05
148 1 62.60024262295082 11.119102950819673 7.942163440922287e-05
149 1 64.77744918032788 9.42055868852459 6.6328651493184346e-06
150 1 68.5608 10.355363934426231 8.157048380556937e-05
151 1 71.11417049180328 10.316434754098362 1.5465702820897555e-05
152 1 73.80689836065574 9.805912131147542 7.500883222786075e-05
153 1 76.50063606557377 9.934716721311476 6.288144542456827e-05
154 1 78.94393442622952 10.087605901639344 6.959180959455358e-05
155 1 81.48468196721312 9.853525901639346 6.324140409134593e-05
156 1 0.13652731147540983 12.221339016393443 4.787096644958342e-05
157 1 2.545968393442623 12.056230819672132 6.752922761960655e-05
158 1 5.268971147540984 11.94196786885246 8.47463296571796e-05
159 1 7.894696393442624 12.271982295081969 3.601370319826813e-05
160 1 10.498508196721312 12.303034754098361 3.2813903860485615e-05
161 1 13.28287868852459 12.22113704918033 8.980858713696947e-05
162 1 16.640078688524593 11.79564262295082 6.054498697631393e-05
163 1 17.96160065573771 11.044880000000001 7.879689445573525e-05
164 1 21.338997377049186 12.29384524590164 6.610858177310499e-05
165 1 23.970882622950825 12.770487868852461 4.0965180811085056e-05
166 1 26.684615081967216 12.804973770491804 7.307194573316059e-05
167 1 29.448839344262296 12.614771147540985 6.844035036913186e-05
168 1 32.10172918032787 12.671725901639345 5.495416334199319e-05
169 1 34.80849377049181 12.606692459016395 7.182642444693273e-05
170 1 37.54363475409837 12.514241967213117 5.4584649289540134e-05
171 1 40.337598688524594 12.37321836065574 2.536260012272924e-05
172 1 43.13640983606558 12.166656393442624 2.2827042367064243e-05
173 1 45.81040524590164 11.762217049180329 3.0088924051876277e-05
174 1 48.47475672131148 12.149186229508198 9.181676879606526e-05
175 1 51.10830819672132 12.371400655737705 5.3116286291502974e-05
176 1 53.769731147540995 12.190185573770494 1.8654380499958135e-05
177 1 56.40136393442623 12.146257704918035 7.799756561438953e-05
178 1 59.08045901639345 12.379630819672133 9.325562433069343e-05
179 1 61.83478688524591 12.44638098360656 7.20062964947133e-05
180 1 64.45430163934427 12.313688524590164 2.2141791772943644e-05
181 1 67.20711475409836 12.37740918032787 5.5756406295736665e-05
182 1 69.82864918032787 12.728579672131149 9.8106996576085e-05
183 1 72.48906229508198 12.285413114754098 6.034936935119213e-05
184 1 75.09090491803279 12.187560000000001 9.977599198880223e-05
185 1 77.5968131147541 12.468294426229509 4.826513487366103e-05
186 1 80.23601967213115 12.374430163934427 2.1896083006548228e-05
187 1 1.6612308196721313 14.634241311475412 8.23493822090894e-05
188 1 4.212677573770492 14.180925901639345 5.313708010157459e-06
189 1 6.432958688524591 15.56096786885246 5.918207007090397e-05
190 1 9.07327606557377 14.647672131147543 5.0057666791870015e-05
191 1 11.691276065573772 14.422781639344263 6.928161710976545e-05
192 1 14.316193442622952 14.539518688524591 2.1587876804135965e-05
193 1 16.80286426229508 14.59425180327869 2.9671859310995896e-05
194 1 19.532350163934428 14.351032786885247 6.848743110589986e-05
195 1 22.314549508196723 14.746787540983608 8.859862148955876e-05
196 1 24.622630819672132 14.153357377049181 4.281951337540028e-05
197 1 28.268492459016397 14.913511475409837 4.197611662940363e-05
198 1 30.76511016393443 14.978241967213116 1.9321778021225567e-05
199 1 33.40068131147542 14.923660327868854 2.267604188820338e-06
200 1 36.19136327868853 14.83025049180328 8.566066120184969e-05
201 1 38.89020065573771 14.65660918032787 8.145451992640062e-05
202 1 41.73511081967214 14.483472786885248 1.2315506623393914e-05
203 1 45.345628196721314 14.059594098360659 7.173155338370459e-05
204 1 46.88275016393443 14.19844655737705 3.5305481240924973e-05
205 1 49.52109836065574 14.568601967213116 9.246913416114629e-05
206 1 52.272144262295086 14.579659672131148 9.472524384457943e-05
207 1 54.98102950819673 14.516292459016395 6.140388925021759e-05
208 1 57.663659016393446 14.566380327868854 2.559080254739018e-05
209 1 60.346288524590165 14.649085901639346 7.458094273379112e-05
210 1 62.963278688524596 14.685137049180328 3.2266509124282084e-06
211 1 65.67064918032789 14.555575081967215 4.8164292635166406e-05
212 1 68.28713442622951 14.929820327868853 5.864253811393451e-05
213 1 71.98717377049181 14.622022295081969 4.384468503964294e-05
214 1 73.5352524590164 14.56001836065574 4.9914445312849e-05
215 1 76.10276065573773 14.7555731147541 8.487603227937953e-05
216 1 78.83487213114755 14.759259016393445 3.0045676079469885e-05
217 1 81.61848524590164 14.6816531147541 8.891071795341925e-05
218 1 0.2562534754098361 16.955753442622953 1.4128152983543486e-05
219 1 3.9424403934426233 16.561917377049184 2.5224252365965207e-05
220 1 5.49204393442623 16.769741639344264 2.1882021317398115e-05
221 1 8.10196524590164 17.237295737704923 8.240873709731702e-05
222 1 10.719460327868854 16.819021639344264 7.15766083331305e-05
223 1 13.278839344262297 16.725914754098362 9.666808604337492e-05
224 1 15.504114098360656 18.139079344262296 3.979152071670378e-06
225 1 18.16089180327869 16.754695081967213 5.975286068591048e-05
226 1 21.030542950819676 16.683148196721312 1.4143457451854591e-05
227 1 23.98552524590164 16.885620327868857 8.166585279958609e-05
228 1 26.722029508196723 17.133181639344265 6.688668443659606e-05
229 1 29.35593442622951 17.39427475409836 4.1211036653020954e-06
230 1 31.884210491803284 17.292887213114756 6.585984581974899e-05
231 1 34.550632131147545 17.05032459016394 1.9374353189718975e-05
232 1 37.607052459016394 17.055323278688526 2.7480646365409944e-05
233 1 40.23303016393443 16.70369836065574 8.765046220515383e-06
234 1 42.80053836065574 16.814628852459016 7.274919667053112e-05
235 1 45.3833455737705 16.71253442622951 5.5683469463072145e-05
236 1 48.04224393442624 16.731367868852463 6.216137385408074e-05
237 1 50.772032786885255 16.824727213114755 1.551633676950074e-05
238 1 53.53595409836066 16.82876655737705 9.743123884298904e-05
239 1 56.26958032786886 16.847448524590167 8.094507358895408e-05
240 1 58.9976524590164 16.914400655737705 3.1139239028886935e-06
241 1 61.733803278688534 17.015232786885246 7.31174012760022e-06
242 1 64.39724590163935 16.853608524590168 8.905715880312261e-05
243 1 66.44418360655737 18.245415081967213 8.854359280640308e-05
244 1 69.21820327868853 17.36544393442623 2.1395427891635743e-05
245 1 71.89073442622951 17.214271475409838 6.284916696042694e-05
246 1 74.67182295081969 17.09086950819672 7.168508401113151e-05
247 1 77.36556065573771 17.044820983606556 6.877069246767071e-05
248 1 80.17845901639345 16.945453114754102 3.232375221822385e-05
249 1 1.2582961311475411 19.348358032786887 4.3979146820537065e-05
250 1 3.7768323278688527 19.218291147540985 3.183758274648304e-05
251 1 6.581101639344263 19.3317462295082 6.237414337290012e-05
252 1 10.421811147540984 19.062725901639347 1.487153347868886e-05
253 1 11.970748196721313 19.13543409836066 8.896693008879543e-05
254 1 14.686348852459018 19.455451147540984 3.285372451605535e-05
255 1 17.194024262295084 19.343813770491806 6.520881112355357e-05
256 1 19.773044590163934 18.802440655737705 7.903187076106596e-05
257 1 22.571350819672134 18.74922229508197 7.189209655790936e-05
258 1 25.3069462295082 19.289686557377053 6.878757546119685e-05
259 1 27.86980918032787 19.633990163934428 8.72932872803369e-05
260 1 30.68497967213115 19.801168524590167 5.1786899453457585e-05
261 1 34.04435081967213 19.234095081967215 1.6452432254526207e-05
262 1 35.30846360655738 18.37108918032787 9.401855552244795e-05
263 1 38.942661639344266 19.161639344262298 8.169370343816569e-05
264 1 41.440642622950826 19.099988852459017 7.822922293509752e-05
265 1 44.06520655737705 19.084083934426232 9.798330024193835e-05
266 1 46.64952852459017 19.086204590163938 7.320416276019089e-05
267 1 49.339428852459015 19.064796065573773 6.949715150808825e-05
268 1 52.12016393442623 19.065957377049184 5.909765755935759e-05
269 1 54.8588393442623 19.100998688524594 9.007796542392045e-05
270 1 57.58539672131148 19.148612459016395 9.995436040997907e-06
271 1 60.324577049180334 19.22803606557377 4.89759259353917e-05
272 1 63.035986885245904 19.282264262295083 1.793634242485719e-05
273 1 65.67519344262296 19.582589508196726 8.012658274582814e-05
274 1 68.05386229508198 19.799754754098362 5.4255606570143067e-05
275 1 70.5516918032787 19.560979016393446 2.159688746517391e-05
276 1 73.25603278688526 19.432881311475413 4.1840957369409714e-05
277 1 76.17597377049181 19.417582295081967 8.155105108613006e-05
278 1 78.83891147540984 19.18607737704918 3.5538367064435106e-05
279 1 81.39228196721312 19.189813770491806 8.311122908465696e-07
280 1 82.55611803278688 21.64346295081967 3.529947880680483e-05
281 1 2.486332524590164 21.67486885245902 9.660960635817252e-05
282 1 5.090381639344263 21.47623409836066 3.4963402142550085e-05
283 1 7.697071475409836 21.687087868852462 4.474532067700235e-05
284 1 10.227872131147542 21.540257704918034 5.839537893960962e-05
285 1 13.0677331147541 21.59206229508197 9.920124810388001e-05
286 1 16.218421639344264 21.791201967213116 8.933839791254367e-05
287 1 18.879844590163938 21.32561704918033 4.734943708325202e-05
288 1 21.437203934426233 20.873160000000002 3.775052010621036e-05
289 1 23.333070163934426 22.388318032786888 4.161487387434659e-06
290 1 26.252910163934427 21.89890098360656 2.309159880725138e-05
291 1 29.06262754098361 21.944949508196725 7.703010723340916e-05
292 1 31.860176393442625 22.192965245901643 2.8148858984585425e-05
293 1 34.55871081967213 21.936416393442627 8.431697070665346e-05
294 1 37.40114688524591 21.313751475409838 7.09794393453727e-05
295 1 40.28549114754099 21.53354229508197 4.560638367107066e-05
296 1 42.934947540983615 21.37570491803279 6.157402966884562e-06
297 1 45.17218885245902 22.574632786885246 1.5315933369683634e-05
298 1 47.96428459016394 21.40615147540984 3.661183581456129e-05
299 1 50.79778360655738 21.28678885245902 4.169273841171084e-06
300 1 53.504144262295085 21.343945573770494 8.748041834316462e-05
301 1 56.17516065573771 21.393629508196724 6.306935487268242e-05
302 1 58.87697704918033 21.44265704918033 8.704927665204758e-05
303 1 61.60302950819673 21.546367213114756 7.355665546633195e-06
304 1 64.23264262295082 21.768177704918035 2.3791350192294115e-05
305 1 66.74814426229509 22.169335081967215 9.63970600433045e-05
306 1 69.26061639344263 22.06471606557377 1.9480366523889516e-05
307 1 71.90184262295082 21.720765901639346 6.275514473543096e-05
308 1 73.96746229508197 20.811358032786888 3.548166248551243e-05
309 1 77.5084524590164 21.579035409836067 7.808488487928076e-05
310 1 80.00628196721313 21.58196393442623 1.2708206085910313e-05
311 1 1.1079315409836066 23.990069508196722 4.920532248585282e-05
312 1 3.786759016393443 23.912463606557377 2.8401944050585662e-05
313 1 6.449721967213115 23.904485901639347 3.2656358461374394e-05
314 1 9.157193442622951 23.977345573770496 4.968642928987977e-06
315 1 11.796450491803279 23.68560393442623 2.4877527734156324e-05
316 1 13.896556065573773 22.907878688524594 3.058573466073595e-05
317 1 17.832695081967213 23.766996721311475 6.017535200737412e-05
318 1 20.544155409836065 23.39310491803279 3.2566842474916245e-05
319 1 22.77357049180328 24.679989508196723 4.921110355409066e-05
320 1 25.11406754098361 25.270693114754103 4.9491150746728574e-05
321 1 27.827749508196725 24.16694229508197 7.745286124663312e-05
322 1 30.410203278688527 24.273379016393445 4.9902492015614846e-05
323 1 33.114948196721315 24.36628393442623 3.3613517070394177e-05
324 1 37.183173770491805 23.464247868852464 8.269645436134619e-05
325 1 38.748621639344265 23.507317377049183 6.757686241958094e-05
326 1 41.58762426229509 23.811429508196724 1.2981112308156273e-05
327 1 44.33740786885246 23.888429508196726 9.854895772493338e-05
328 1 46.87411606557377 23.852883278688527 6.598269018028608e-05
329 1 49.71013967213115 23.47500262295082 1.2793692465940033e-05
330 1 52.28729180327869 23.596990819672133 5.772896598843229e-05
331 1 54.84672131147541 23.68762360655738 1.3665581147828332e-05
332 1 57.45260327868853 23.702872131147544 2.9278300686357286e-05
333 1 60.13270819672132 23.750889836065575 7.788966206710753e-05
334 1 62.877442622950824 23.997037377049185 5.860906081287699e-05
335 1 65.45050491803279 24.370070819672133 9.924289993379843e-05
336 1 68.10940327868853 24.534775081967215 9.018667187651285e-05
337 1 70.77587540983608 24.147805901639348 2.1444541257162144e-05
338 1 73.43073442622952 23.780276065573773 2.5566822246195087e-05
339 1 75.93159344262295 23.78875868852459 2.6507052861636284e-05
340 1 78.5208131147541 23.991887213114754 9.912773641981676e-05
341 1 81.14133770491804 23.997744262295083 5.684581554992951e-05
342 1 82.41575081967214 26.30491672131148 1.9955632046818408e-05
343 1 2.4489332459016393 26.237661639344264 3.8848078908895964e-06
344 1 5.191819672131149 26.19741967213115 1.6288240862943892e-05
345 1 7.957104262295083 26.176920000000003 1.8088414552032384e-05
346 1 10.771719344262296 26.102040655737706 8.645325555489193e-05
347 1 13.517615081967215 25.813681967213117 5.1722673243281725e-05
348 1 16.23351868852459 25.833373770491804 1.350825007335711e-05
349 1 19.03904524590164 25.82171016393443 4.06905212091945e-05
350 1 21.909908196721315 25.971721311475413 8.950561351231379e-05
351 1 24.293929180327872 26.560556721311478 5.055348154503646e-05
352 1 26.619632131147544 26.656137704918034 3.1814298464167203e-05
353 1 29.18027344262295 26.616956065573774 2.1777548447259187e-05
354 1 31.933692459016395 26.5751993442623 8.215456495107653e-05
355 1 34.073484590163936 25.569049180327873 5.9234804731802004e-05
356 1 37.613616393442626 26.293455081967217 2.14147405082169e-06
357 1 40.18521442622951 25.87093967213115 6.789499658305188e-05
358 1 42.937926557377054 26.174900327868855 6.375624705558234e-05
359 1 45.730375737704925 26.257151475409838 9.82386811120886e-05
360 1 48.523430819672136 25.691289836065575 2.0207663224973074e-05
361 1 51.11689180327869 25.904617704918035 2.778017670920674e-06
362 1 53.562209836065584 26.04503540983607 5.2183283204001643e-05
363 1 56.13072786885247 26.061748196721314 8.051310562780085e-05
364 1 58.67046557377049 26.015800655737706 8.557127444769604e-05
365 1 61.34400655737705 26.078763934426235 5.009270525128649e-05
366 1 63.965540983606566 26.55934491803279 3.6475292362845493e-05
367 1 66.67291147540985 26.796706885245904 1.5668114549715497e-05
368 1 70.378 26.378634754098364 2.7776217034654805e-05
369 1 71.91749508196722 26.216808524590167 1.9620058386078377e-05
370 1 74.48348852459017 26.250688524590167 4.828578075657534e-05
371 1 77.08937049180328 26.277752131147544 2.4810171265750025e-06
372 1 79.73261639344264 26.338998688524594 8.840950231256157e-05
373 1 1.108224393442623 28.52433442622951 9.190945188553984e-05
374 1 3.886323803278689 28.440972459016397 9.308330536514736e-05
375 1 6.658404590163935 28.38528 1.2555387175969536e-05
376 1 9.431717377049182 28.29252655737705 3.4926793723979904e-05
377 1 12.250220327868854 28.19356262295082 1.4414797480315044e-06
378 1 14.93996918032787 28.14625180327869 2.6715295944285402e-05
379 1 17.465064262295083 28.03774491803279 3.961427389902891e-05
380 1 20.18758229508197 27.987152131147543 9.46648270758847e-05
381 1 22.682230819672135 28.675708852459017 1.9770907358836723e-05
382 1 25.195813770491803 29.08651016393443 7.02081912457598e-05
383 1 27.802150163934428 28.960533114754103 3.615160790139604e-05
384 1 29.86766885245902 27.996644590163935 6.4107265080454835e-06
385 1 33.532363934426236 28.473792131147544 7.063225600054909e-05
386 1 36.093106229508194 28.645918688524596 9.827189975135672e-05
387 1 39.14952655737705 28.424007213114756 7.338551516219708e-05
388 1 41.7119855737705 28.202651147540987 8.754232957815537e-05
389 1 43.681620327868856 27.560092459016396 7.766093037887774e-05
390 1 47.51228196721312 27.95751344262295 1.218751059336164e-05
391 1 49.50140655737705 29.356237377049183 8.580755505049023e-05
392 1 52.23780983606558 28.451777704918037 5.235066685704335e-05
393 1 54.861868852459025 28.445769180327872 7.395740258070308e-05
394 1 57.485927868852464 28.447132459016395 7.444754861608216e-05
395 1 60.10998688524591 28.31418754098361 5.890176455632883e-05
396 1 62.33465573770492 29.726796721311477 9.881633723584848e-05
397 1 65.12836721311476 28.98022491803279 4.8679891200278626e-05
398 1 67.7372786885246 29.185322622950824 3.8088791654411796e-05
399 1 70.31640000000002 28.971035409836066 3.490639743670838e-05
400 1 73.08537049180329 28.667529180327872 3.512508646107026e-05
401 1 75.75638688524592 28.656269508196726 7.748188446203986e-05
402 1 78.38448524590164 28.657430819672133 1.099592536655737e-05
403 1 81.05499672131148 28.619713442622952 3.7920991512036874e-06
404 1 82.4788655737705 30.811461639344266 6.086358321818335e-05
405 1 2.605185180327869 30.67069049180328 7.11717097027619e-05
406 1 5.367127213114754 30.606818360655744 5.7662427761401575e-05
407 1 8.080253770491804 30.53668524590164 8.619575088196664e-07
408 1 10.740111475409838 30.393389508196723 9.235979004225986e-05
409 1 13.485300327868853 30.47710491803279 7.382882545304478e-05
410 1 16.519958688524593 30.535725901639346 1.095297460588358e-05
411 1 19.047325901639343 30.22792786885246 4.0382020471646135e-05
412 1 21.1212262295082 31.9135462295082 7.09082655676602e-05
413 1 23.910292459016393 31.24952852459017 7.102019791270232e-05
414 1 26.65553180327869 31.32420590163935 4.809309802166714e-05
415 1 29.389360000000003 30.94294229508197 7.551900317055794e-05
416 1 32.11051475409837 30.823327213114755 1.0411910626669118e-05
417 1 34.80854426229508 30.91219278688525 8.128774784250004e-06
418 1 36.92793770491804 29.92376524590164 7.927081217005008e-05
419 1 40.60641704918034 30.641556721311478 6.145620972358401e-06
420 1 43.12777573770492 30.54865180327869 3.028775258734099e-05
421 1 46.84589114754099 30.270946885245902 1.7536585023567597e-05
422 1 48.39422229508197 30.420251147540988 1.8133935987864838e-05
423 1 50.89876721311476 30.93531803278689 6.950588215809635e-05
424 1 53.54403278688525 30.80247409836066 4.0303181966017345e-05
425 1 56.135777049180334 30.80313049180328 3.549819344206651e-06
426 1 58.7128786885246 30.738702950819675 8.920655654482376e-05
427 1 61.48134426229509 31.00535016393443 7.438622566921987e-05
428 1 63.99432131147542 31.393682622950823 9.350899554422567e-05
429 1 66.45377704918033 31.434025573770494 1.9483900752038942e-05
430 1 69.15155409836066 31.427663606557378 9.148269271284721e-05
431 1 71.84428196721312 31.06846491803279 3.5126091560029105e-05
432 1 74.51428852459017 31.010096393442627 9.222831050833336e-06
433 1 77.15702950819673 31.032514754098365 3.649720682214224e-05
434 1 79.75230819672132 30.96258360655738 4.81809838543512e-05
435 1 1.3862524590163936 32.878949508196726 4.77408662325704e-05
436 1 4.153879868852459 32.8361324590164 3.605101377623524e-05
437 1 6.828915409836067 32.82239868852459 8.904374371358682e-05
438 1 9.514220983606558 32.75963737704919 9.768589046711973e-05
439 1 12.109954098360658 32.63108524590164 8.045746857358756e-05
440 1 14.300187540983607 31.7834793442623 5.616604849675805e-05
441 1 17.933224262295084 32.76867540983607 6.688465599353803e-05
442 1 20.398840000000003 33.26849377049181 2.992618341914177e-06
443 1 22.80366360655738 33.618452459016396 5.303303355335498e-06
444 1 25.38813704918033 33.50479540983606 7.614166565110768e-05
445 1 28.050822295081968 33.348119344262294 2.1949815032200126e-05
446 1 30.70497442622951 33.150999344262296 2.763471733024533e-05
447 1 33.409466885245905 33.15503868852459 9.113633587278103e-05
448 1 37.19554426229509 32.57746295081968 9.159954193933274e-05
449 1 38.75134819672132 32.62078491803279 2.1363284746884405e-05
450 1 41.36066360655738 32.95706032786885 6.582706480441292e-06
451 1 43.95821442622952 33.00664327868853 6.447179609967984e-05
452 1 46.577981639344266 32.88248393442623 2.304854838803079e-05
453 1 49.32852262295083 33.041987540983605 1.5100167988283053e-05
454 1 52.042406557377056 33.16084524590165 4.035870525405296e-05
455 1 54.76340983606558 33.18210229508197 2.2976081976889053e-06
456 1 57.28295081967214 33.165440000000004 4.638815747446662e-05
457 1 59.77775081967214 33.04410819672132 2.105523590535746e-05
458 1 62.42958032786886 33.54816786885247 2.1543851797422243e-06
459 1 64.99708852459017 33.86505442622951 3.7620799830569007e-05
460 1 67.75444590163934 33.70999409836066 6.844010092145595e-05
461 1 70.54866229508198 33.52009442622951 1.303562641622793e-05