ITEM: TIMESTEP
0
ITEM: NUMBER OF ATOMS
2232
ITEM: BOX BOUNDS xy xz yz pp pp pp
0.0 82.68810555352132 0
0.0 83.16 0
-10.0 10.0 0
ITEM: ATOMS id type x y z vx vy vz
1 1 1.1372571803278688 0.49992540327868856 9.56038520035e-05 0.0 0.0 0.0
2 1 3.9320340327868855 0.5303860983606558 4.02845279049e-05 0.0 0.0 0.0
3 1 6.538587540983607 0.6380093770491804 8.50225955388e-05 0.0 0.0 0.0
4 1 9.158657704918033 0.6904905573770492 7.92128414386e-05 0.0 0.0 0.0
5 1 11.769235409836067 0.7168472786885246 7.88461886335e-05 0.0 0.0 0.0
6 1 14.354567213114755 0.684572918032787 9.59396936281e-05 0.0 0.0 0.0
7 1 17.00629573770492 0.6384032131147541 6.77252417947e-05 0.0 0.0 0.0
8 1 19.751484590163937 0.7156354754098361 2.43849507795e-05 0.0 0.0 0.0
9 1 22.351761967213115 0.8478735081967214 8.96448475024e-05 0.0 0.0 0.0
10 1 25.042015737704922 0.9085343606557378 4.31111710573e-05 0.0 0.0 0.0
11 1 27.798514754098363 0.9425658360655739 2.6871972466e-05 0.0 0.0 0.0
12 1 30.529818360655742 0.7979573114754099 3.77830826241e-05 0.0 0.0 0.0
13 1 32.94322557377049 2.073698360655738 8.81306076975e-05 0.0 0.0 0.0
14 1 35.77647213114754 1.2049313442622953 7.11516730653e-05 0.0 0.0 0.0
15 1 38.429109508196724 0.9798035409836067 5.72812587957e-05 0.0 0.0 0.0
16 1 41.18076131147541 0.8037335737704918 3.97557134038e-05 0.0 0.0 0.0
17 1 43.86202754098361 0.8354777704918033 9.28988226914e-05 0.0 0.0 0.0
18 1 46.56424786885246 0.8620061639344263 2.40462989265e-05 0.0 0.0 0.0
19 1 49.264297049180335 0.5280079344262296 2.98263846761e-05 0.0 0.0 0.0
20 1 51.97323278688525 0.531572655737705 2.57347233515e-05 0.0 0.0 0.0
21 1 54.59173770491804 0.4385394885245902 1.5354681533e-05 0.0 0.0 0.0
22 1 56.88457049180329 1.845041180327869 3.57666487133e-06 0.0 0.0 0.0
23 1 59.66565901639345 0.8232183606557378 6.08787493377e-05 0.0 0.0 0.0
24 1 62.42099672131148 0.6884102950819673 9.58683250859e-05 0.0 0.0 0.0
25 1 65.11422950819673 0.640256262295082 9.49979474075e-05 0.0 0.0 0.0
26 1 67.77211803278689 0.5984389508196721 5.33719290742e-05 0.0 0.0 0.0
27 1 70.52493114754098 0.6248461639344263 7.46906430509e-05 0.0 0.0 0.0
28 1 73.2388655737705 1.02464531147541 9.90429289427e-05 0.0 0.0 0.0
29 1 75.81596721311476 1.0195506885245902 5.99172412643e-06 0.0 0.0 0.0
30 1 78.46173770491805 0.8276818360655739 2.34343697836e-05 0.0 0.0 0.0
31 1 81.12164590163935 0.6329198032786886 6.4751913855e-05 0.0 0.0 0.0
32 1 82.52582295081967 2.835362163934427 6.2455393938e-05 0.0 0.0 0.0
33 1 2.512916459016394 2.6812157377049184 6.84467150049e-05 0.0 0.0 0.0
34 1 5.209693770491803 2.957496786885246 8.55444480984e-05 0.0 0.0 0.0
35 1 7.888435409836067 3.025696065573771 3.90796761759e-06 0.0 0.0 0.0
36 1 10.538548196721313 3.0702904262295085 4.93082778887e-05 0.0 0.0 0.0
37 1 13.135089180327869 3.086528590163935 3.97847922623e-05 0.0 0.0 0.0
38 1 15.641249836065574 2.9791729180327873 5.95752453103e-05 0.0 0.0 0.0
39 1 18.28787868852459 2.8956998688524593 2.4246324512e-06 0.0 0.0 0.0
40 1 20.92703475409836 3.1608373770491807 3.69385223337e-05 0.0 0.0 0.0
41 1 23.64748262295082 3.1832355409836066 1.63517187358e-05 0.0 0.0 0.0
42 1 26.432560000000002 3.1694209836065577 5.8951104891e-05 0.0 0.0 0.0
43 1 29.232078032786887 3.1497645245901644 7.20564339295e-05 0.0 0.0 0.0
44 1 32.08486491803279 3.356856655737705 2.81268844439e-05 0.0 0.0 0.0
45 1 34.736997377049185 3.5952537049180333 1.37850821732e-05 0.0 0.0 0.0
46 1 37.40503475409837 3.4251468196721317 5.98220334838e-06 0.0 0.0 0.0
47 1 39.995920655737706 3.098732459016394 2.73882203845e-05 0.0 0.0 0.0
48 1 42.645276065573775 3.1009843934426233 6.64263479346e-05 0.0 0.0 0.0
49 1 45.274838688524596 3.118732262295082 3.19393782291e-05 0.0 0.0 0.0
50 1 48.01235278688525 2.9560224262295085 2.73230320442e-05 0.0 0.0 0.0
51 1 50.7084131147541 2.825117377049181 4.18849733566e-06 0.0 0.0 0.0
52 1 53.462740983606565 2.8831324590163936 9.38548066916e-07 0.0 0.0 0.0
53 1 56.16051803278689 3.2163884590163936 8.75866038216e-05 0.0 0.0 0.0
54 1 58.675514754098366 3.284517049180328 6.45811743805e-05 0.0 0.0 0.0
55 1 61.35915409836066 2.9691704918032786 9.06000928263e-05 0.0 0.0 0.0
56 1 64.0104786885246 2.934997639344263 5.90729603444e-05 0.0 0.0 0.0
57 1 66.68603934426231 2.9069241967213117 7.40228098958e-05 0.0 0.0 0.0
58 1 69.42622950819673 2.776145377049181 2.64962408583e-05 0.0 0.0 0.0
59 1 71.84731147540984 4.073315147540984 8.87423449832e-05 0.0 0.0 0.0
60 1 74.6011344262295 3.4556388196721315 1.24355202858e-05 0.0 0.0 0.0
61 1 77.25195409836066 3.2707125901639347 3.24600657846e-05 0.0 0.0 0.0
62 1 79.96740327868854 3.0443123934426235 3.05881985285e-05 0.0 0.0 0.0
63 1 1.476284393442623 5.004333508196722 2.83239373987e-05 0.0 0.0 0.0
64 1 3.91468 6.10072262295082 9.96011154164e-05 0.0 0.0 0.0
65 1 6.714955409836066 5.301588852459017 7.53505687473e-05 0.0 0.0 0.0
66 1 9.353909508196722 5.381870819672131 6.72709191929e-05 0.0 0.0 0.0
67 1 11.986905573770494 5.452862295081967 1.46893975898e-05 0.0 0.0 0.0
68 1 14.619800655737706 5.464525901639345 6.54500139703e-05 0.0 0.0 0.0
69 1 17.177664918032786 5.224184918032788 6.61924481748e-05 0.0 0.0 0.0
70 1 19.457268852459016 6.473756065573771 9.61559321446e-05 0.0 0.0 0.0
71 1 22.27627672131148 5.466596065573771 7.11898670898e-05 0.0 0.0 0.0
72 1 25.040854426229508 5.397977704918033 2.63398298406e-05 0.0 0.0 0.0
73 1 27.75736393442623 5.37308524590164 9.07922569123e-05 0.0 0.0 0.0
74 1 30.460695081967216 5.4062078688524595 5.04529281137e-05 0.0 0.0 0.0
75 1 33.20669180327869 5.755308196721312 9.0642263802e-06 0.0 0.0 0.0
76 1 35.98449836065574 5.811505573770493 7.11907769583e-05 0.0 0.0 0.0
77 1 39.63434885245902 5.388485245901641 6.35707732745e-05 0.0 0.0 0.0
78 1 41.18712327868853 5.392373114754099 7.2850692865e-05 0.0 0.0 0.0
79 1 43.87116655737705 5.446045901639344 3.74677164315e-05 0.0 0.0 0.0
80 1 46.67043213114755 5.276494426229509 4.71771002899e-05 0.0 0.0 0.0
81 1 49.347507540983614 5.17939868852459 2.93040090322e-05 0.0 0.0 0.0
82 1 51.93637377049181 5.100631475409837 9.1340249547e-05 0.0 0.0 0.0
83 1 54.594262295081975 5.377831475409836 1.21571265801e-05 0.0 0.0 0.0
84 1 57.583377049180335 5.655940327868853 5.66015516876e-05 0.0 0.0 0.0
85 1 60.29276721311476 5.36192655737705 8.01530341792e-05 0.0 0.0 0.0
86 1 62.8824918032787 5.260488524590165 1.7685441091e-05 0.0 0.0 0.0
87 1 65.48988852459017 5.219034754098361 8.09519269378e-05 0.0 0.0 0.0
88 1 68.06800000000001 5.085887868852459 3.56882823706e-05 0.0 0.0 0.0
89 1 70.82939672131148 5.2150459016393445 6.39979922787e-05 0.0 0.0 0.0
90 1 73.26663606557378 5.939956721311476 9.29106571398e-05 0.0 0.0 0.0
91 1 76.25423606557378 5.706937049180328 9.92229471304e-05 0.0 0.0 0.0
92 1 78.98180327868853 5.391211803278689 9.04028819389e-05 0.0 0.0 0.0
93 1 81.61343606557378 5.307445901639345 3.72704406968e-05 0.0 0.0 0.0
94 1 0.40802072786885246 7.570438032786885 5.07158970272e-05 0.0 0.0 0.0
95 1 3.1529808524590166 7.425274098360656 7.3973998112e-05 0.0 0.0 0.0
96 1 5.708552786885246 7.671472131147542 2.17887178165e-05 0.0 0.0 0.0
97 1 8.19128524590164 7.68076262295082 3.67946607187e-05 0.0 0.0 0.0
98 1 10.765458360655739 7.770638032786886 4.9205882366e-05 0.0 0.0 0.0
99 1 13.392799344262295 7.823099016393443 4.03163601739e-05 0.0 0.0 0.0
100 1 16.015899016393444 7.777201967213116 2.12693871195e-05 0.0 0.0 0.0
101 1 18.650914754098363 7.797651147540985 3.80655776514e-05 0.0 0.0 0.0
102 1 21.254120655737708 7.856272131147541 9.13018907989e-05 0.0 0.0 0.0
103 1 23.835211147540985 7.662484590163936 6.53427852075e-05 0.0 0.0 0.0
104 1 26.392318032786886 7.6684426229508205 2.76500189696e-06 0.0 0.0 0.0
105 1 28.988909508196723 7.677379672131148 4.38324777496e-05 0.0 0.0 0.0
106 1 31.61084786885246 7.781342295081967 1.1485312374e-05 0.0 0.0 0.0
107 1 34.325792131147544 7.9694747540983615 5.00532629872e-05 0.0 0.0 0.0
108 1 36.87052852459017 8.176541639344263 9.04361453842e-05 0.0 0.0 0.0
109 1 39.42253573770492 8.074043278688526 4.44563335547e-05 0.0 0.0 0.0
110 1 42.774383606557386 7.740443934426231 1.0492393759e-05 0.0 0.0 0.0
111 1 45.49765901639344 7.5281763934426245 4.6748391799e-05 0.0 0.0 0.0
112 1 48.11096327868853 7.526156721311476 6.92604932105e-05 0.0 0.0 0.0
113 1 50.69124590163935 7.512574426229509 2.18946134571e-05 0.0 0.0 0.0
114 1 53.20220327868853 7.519188852459017 8.39046438474e-05 0.0 0.0 0.0
115 1 55.2668131147541 6.783018360655738 5.66422041215e-05 0.0 0.0 0.0
116 1 59.00876065573771 7.715753442622952 8.05232436976e-06 0.0 0.0 0.0
117 1 61.64291803278689 7.66001049180328 7.90007439357e-05 0.0 0.0 0.0
118 1 64.27152131147541 7.58992786885246 4.42751779006e-05 0.0 0.0 0.0
119 1 66.9056786885246 7.52984262295082 5.4083502333e-05 0.0 0.0 0.0
120 1 69.40148852459016 7.341104262295082 9.56939407556e-05 0.0 0.0 0.0
121 1 71.76652459016394 8.851415081967215 8.02638066172e-06 0.0 0.0 0.0
122 1 74.03815081967213 7.270163278688525 5.5435853139e-05 0.0 0.0 0.0
123 1 77.79979016393443 7.754834098360656 9.9515319492e-05 0.0 0.0 0.0
124 1 80.43950163934427 7.6929311475409845 7.73105690682e-05 0.0 0.0 0.0
125 1 2.4973447868852463 9.589605245901641 2.76102481342e-05 0.0 0.0 0.0
126 1 4.019273770491804 9.838630819672133 5.72322712618e-05 0.0 0.0 0.0
127 1 6.717580983606558 10.089625573770494 2.60344894843e-06 0.0 0.0 0.0
128 1 9.384457049180329 10.116992131147542 8.51662949757e-05 0.0 0.0 0.0
129 1 12.036488524590165 10.164 2.52862214787e-05 0.0 0.0 0.0
130 1 14.687914098360658 10.191619016393444 7.33437378914e-06 0.0 0.0 0.0
131 1 17.275921967213115 10.181167213114756 6.46303484563e-05 0.0 0.0 0.0
132 1 19.885893770491805 10.137794754098362 4.6298644489e-05 0.0 0.0 0.0
133 1 22.5441862295082 10.098815081967215 1.14798174857e-05 0.0 0.0 0.0
134 1 25.041106885245906 10.062460983606558 1.01442536081e-05 0.0 0.0 0.0
135 1 27.60800918032787 10.039487213114755 5.60529117923e-05 0.0 0.0 0.0
136 1 30.183596065573774 10.063218360655737 1.68502248208e-05 0.0 0.0 0.0
137 1 32.749841967213115 10.102955409836067 6.26662383854e-05 0.0 0.0 0.0
138 1 35.44398360655738 10.438776393442623 7.36962168485e-05 0.0 0.0 0.0
139 1 38.515551475409836 10.428173114754099 6.12704937728e-05 0.0 0.0 0.0
140 1 40.54880590163935 9.123868852459017 4.93361855354e-05 0.0 0.0 0.0
141 1 44.27686819672131 9.846961967213115 1.3368543219e-05 0.0 0.0 0.0
142 1 46.849526557377054 9.86837049180328 2.63805284001e-05 0.0 0.0 0.0
143 1 49.49029836065574 9.89184918032787 9.85029714192e-05 0.0 0.0 0.0
144 1 52.135311475409836 9.925628196721313 6.69909965904e-05 0.0 0.0 0.0
145 1 54.75937049180328 9.728558688524592 8.70616532018e-06 0.0 0.0 0.0
146 1 57.456642622950824 9.81949442622951 1.93812045745e-06 0.0 0.0 0.0
147 1 60.20794098360656 9.99197442622951 3.67004203466e-05 0.0 0.0 0.0
148 1 62.92389508196722 9.952742295081968 6.96778670151e-05 0.0 0.0 0.0
149 1 65.61409836065575 9.894828196721313 9.47770459781e-05 0.0 0.0 0.0
150 1 68.3108655737705 9.872056393442623 3.70694648724e-05 0.0 0.0 0.0
151 1 71.05761967213115 10.205150819672133 3.94940528634e-05 0.0 0.0 0.0
152 1 73.64885901639344 10.110781639344262 1.39411170138e-06 0.0 0.0 0.0
153 1 76.2804918032787 9.93653442622951 4.26127686358e-05 0.0 0.0 0.0
154 1 78.93838032786886 10.039891147540985 6.92923401296e-05 0.0 0.0 0.0
155 1 81.60030819672131 9.965314754098362 8.72038754363e-05 0.0 0.0 0.0
156 1 82.53642622950821 12.40432131147541 1.45943776305e-05 0.0 0.0 0.0
157 1 2.3989615081967215 12.217148196721313 5.71856424069e-05 0.0 0.0 0.0
158 1 5.236302950819672 12.240576393442623 8.26153589519e-05 0.0 0.0 0.0
159 1 7.915549508196722 12.420983606557378 3.13659020725e-05 0.0 0.0 0.0
160 1 10.598481967213116 12.483492459016395 6.44071026701e-05 0.0 0.0 0.0
161 1 13.24293967213115 12.534741639344263 8.40311447145e-05 0.0 0.0 0.0
162 1 15.893456393442625 12.610782295081968 5.56190101794e-05 0.0 0.0 0.0
163 1 19.37481573770492 12.31580918032787 4.52615854157e-05 0.0 0.0 0.0
164 1 20.9186531147541 12.360342950819673 9.97359630009e-05 0.0 0.0 0.0
165 1 23.558011147540984 12.494146229508198 2.17290527724e-05 0.0 0.0 0.0
166 1 26.237358688524594 12.43365704918033 3.40615091093e-05 0.0 0.0 0.0
167 1 28.888026885245903 12.425628852459019 3.08620458034e-05 0.0 0.0 0.0
168 1 31.50425967213115 12.453146885245902 1.68478107536e-05 0.0 0.0 0.0
169 1 34.077877377049184 12.478897704918035 6.57454244285e-05 0.0 0.0 0.0
170 1 36.29073114754099 11.713492459016393 8.13134281331e-05 0.0 0.0 0.0
171 1 40.254842622950825 12.078396721311478 5.05429725662e-05 0.0 0.0 0.0
172 1 42.84784918032788 11.998872131147541 9.16628872678e-05 0.0 0.0 0.0
173 1 45.43762426229509 12.221036065573772 3.67215055456e-05 0.0 0.0 0.0
174 1 48.07743672131148 12.20033442622951 9.03498350541e-05 0.0 0.0 0.0
175 1 50.81747540983607 12.24037442622951 3.70729922578e-05 0.0 0.0 0.0
176 1 53.48950163934427 12.199274098360657 7.02633661043e-05 0.0 0.0 0.0
177 1 56.13476721311476 12.091171147540985 8.83748404819e-05 0.0 0.0 0.0
178 1 58.86738360655738 12.140754098360658 6.53146139576e-05 0.0 0.0 0.0
179 1 61.536380327868855 12.233204590163936 8.60862639147e-05 0.0 0.0 0.0
180 1 64.218 12.21139213114754 8.94519552862e-05 0.0 0.0 0.0
181 1 66.89709508196722 12.172917377049181 5.14363644336e-05 0.0 0.0 0.0
182 1 69.56710163934427 12.26223737704918 6.80247487358e-05 0.0 0.0 0.0
183 1 72.25478032786886 12.497478688524591 8.33422541212e-05 0.0 0.0 0.0
184 1 74.87681967213115 12.360191475409838 9.64119229623e-05 0.0 0.0 0.0
185 1 77.45695081967214 12.316516065573772 7.24046501042e-05 0.0 0.0 0.0
186 1 80.02496393442624 12.309043278688526 1.37754105756e-05 0.0 0.0 0.0
187 1 1.1251845901639346 14.662062295081968 3.24979017461e-05 0.0 0.0 0.0
188 1 3.7816593442622954 14.36128262295082 6.45514825284e-05 0.0 0.0 0.0
189 1 6.388677377049182 14.639290491803282 1.60446160219e-05 0.0 0.0 0.0
190 1 9.133916721311476 14.766125901639345 7.41718378323e-05 0.0 0.0 0.0
191 1 11.762873442622952 14.864786885245904 7.64031100299e-05 0.0 0.0 0.0
192 1 14.346892459016395 14.924316721311477 2.13362607273e-05 0.0 0.0 0.0
193 1 16.882893770491805 15.134059672131148 4.09127678687e-05 0.0 0.0 0.0
194 1 19.390013770491805 14.990713442622951 8.99971503996e-05 0.0 0.0 0.0
195 1 22.149289836065577 14.779607213114756 1.61431448431e-05 0.0 0.0 0.0
196 1 24.891196721311477 14.765822950819674 4.34352241663e-05 0.0 0.0 0.0
197 1 27.617400655737708 14.748049836065576 5.54777116076e-05 0.0 0.0 0.0
198 1 30.34693704918033 14.770468196721312 1.52373966421e-05 0.0 0.0 0.0
199 1 33.090005245901644 14.791573770491805 2.36782626075e-05 0.0 0.0 0.0
200 1 35.82762032786886 14.516040000000002 3.1581103012e-05 0.0 0.0 0.0
201 1 38.732161311475416 14.346539016393443 6.79786666714e-05 0.0 0.0 0.0
202 1 41.4854793442623 14.397333770491803 8.70073402066e-05 0.0 0.0 0.0
203 1 44.057834754098366 14.483624262295082 7.45934850433e-05 0.0 0.0 0.0
204 1 46.621404590163934 14.534873442622953 5.8134790452e-05 0.0 0.0 0.0
205 1 49.219157377049186 14.442624918032788 7.30515639831e-05 0.0 0.0 0.0
206 1 51.94950163934427 14.538155409836067 7.56982220791e-05 0.0 0.0 0.0
207 1 55.00880000000001 14.493217704918035 7.82192391945e-05 0.0 0.0 0.0
208 1 57.72980327868853 14.357293770491804 8.71296589321e-05 0.0 0.0 0.0
209 1 60.27862950819672 14.49801442622951 7.97423716221e-05 0.0 0.0 0.0
210 1 62.816852459016395 14.51614098360656 8.74497198466e-05 0.0 0.0 0.0
211 1 65.5040262295082 14.489329836065576 7.07462656816e-05 0.0 0.0 0.0
212 1 68.11697704918033 14.519624918032788 9.30158052658e-05 0.0 0.0 0.0
213 1 70.82384262295082 14.65968918032787 5.6287182251e-05 0.0 0.0 0.0
214 1 73.44941639344262 14.768196065573772 8.64294267879e-07 0.0 0.0 0.0
215 1 76.07398032786885 14.720582295081968 6.36540789226e-05 0.0 0.0 0.0
216 1 78.66774426229509 14.705384262295084 2.9435674823e-05 0.0 0.0 0.0
217 1 81.26150819672132 14.76289442622951 2.61339126411e-05 0.0 0.0 0.0
218 1 0.08259752131147542 17.081427540983608 5.05847749005e-05 0.0 0.0 0.0
219 1 2.693616524590164 16.759643278688525 8.38423427641e-05 0.0 0.0 0.0
220 1 4.910969114754098 18.010880655737708 3.10827170161e-05 0.0 0.0 0.0
221 1 7.659505573770493 16.947169836065576 7.40206158913e-05 0.0 0.0 0.0
222 1 10.345972459016394 17.184430819672134 9.65639267548e-05 0.0 0.0 0.0
223 1 12.984270163934427 17.298289836065575 8.0854215169e-05 0.0 0.0 0.0
224 1 15.623628196721313 17.431133770491805 3.50304520823e-05 0.0 0.0 0.0
225 1 18.248444590163935 17.471981639344264 2.28549772789e-05 0.0 0.0 0.0
226 1 20.905676721311476 17.132777704918034 3.89418336036e-05 0.0 0.0 0.0
227 1 23.62067147540984 17.029824918032787 4.45369094343e-05 0.0 0.0 0.0
228 1 26.34132131147541 17.01710098360656 2.85627305481e-05 0.0 0.0 0.0
229 1 29.075099016393445 17.00776 6.7865219728e-05 0.0 0.0 0.0
230 1 31.86653836065574 17.010537049180332 4.54710360432e-05 0.0 0.0 0.0
231 1 34.67428655737706 16.889912131147543 1.65100219491e-05 0.0 0.0 0.0
232 1 37.39109901639345 16.47138557377049 7.64502943662e-05 0.0 0.0 0.0
233 1 40.16759278688525 16.60044262295082 1.83851264694e-05 0.0 0.0 0.0
234 1 42.76186163934427 16.834623606557376 8.84134195793e-05 0.0 0.0 0.0
235 1 45.30730491803279 16.91238098360656 8.30712674671e-05 0.0 0.0 0.0
236 1 47.876681311475416 16.843106229508198 8.93893221911e-05 0.0 0.0 0.0
237 1 50.51048524590165 16.70339540983607 6.78430729173e-06 0.0 0.0 0.0
238 1 52.729095081967216 15.864171147540985 8.62935176556e-05 0.0 0.0 0.0
239 1 56.42913442622952 16.643714098360658 2.90803159564e-05 0.0 0.0 0.0
240 1 59.0592524590164 16.826040000000003 8.35304509166e-05 0.0 0.0 0.0
241 1 61.55102295081968 16.92616524590164 6.30858864279e-05 0.0 0.0 0.0
242 1 64.06500983606558 16.77524524590164 7.3904712043e-05 0.0 0.0 0.0
243 1 66.70118688524592 16.853103606557376 9.70506998542e-05 0.0 0.0 0.0
244 1 69.32524590163936 16.84032918032787 3.6359688939e-05 0.0 0.0 0.0
245 1 71.9644524590164 17.064361311475412 7.41888586079e-05 0.0 0.0 0.0
246 1 74.69504918032787 17.093949508196722 6.01768735631e-05 0.0 0.0 0.0
247 1 77.34334426229509 17.088647868852462 2.05701997902e-05 0.0 0.0 0.0
248 1 80.0375868852459 17.092889180327873 5.58081375411e-05 0.0 0.0 0.0
249 1 1.5501791475409838 19.274337049180332 4.09835077291e-05 0.0 0.0 0.0
250 1 4.312141377049181 19.428387540983607 5.43966681806e-05 0.0 0.0 0.0
251 1 6.8148786885245904 19.348408524590166 6.01821713537e-07 0.0 0.0 0.0
252 1 8.952499672131149 20.634636721311477 2.242169718e-05 0.0 0.0 0.0
253 1 11.664363934426232 19.60576524590164 2.55512770363e-05 0.0 0.0 0.0
254 1 14.391931147540985 19.710333770491808 9.48551946926e-06 0.0 0.0 0.0
255 1 17.019120655737705 19.809247213114755 5.1590429382e-05 0.0 0.0 0.0
256 1 19.674030163934425 19.608794754098362 1.57906247207e-05 0.0 0.0 0.0
257 1 22.412200655737706 19.351488524590167 7.55846919094e-05 0.0 0.0 0.0
258 1 25.100030819672135 19.29009049180328 3.79640705971e-05 0.0 0.0 0.0
259 1 27.786548196721313 19.26575344262295 9.93381189168e-05 0.0 0.0 0.0
260 1 30.48175016393443 19.204001967213117 2.63545720334e-05 0.0 0.0 0.0
261 1 33.270715409836065 19.142149508196724 8.21412239908e-05 0.0 0.0 0.0
262 1 37.01200655737705 18.648036721311477 4.79646975879e-05 0.0 0.0 0.0
263 1 38.55518754098361 18.69332786885246 8.52064097406e-05 0.0 0.0 0.0
264 1 41.30113377049181 19.07959016393443 9.46519388313e-05 0.0 0.0 0.0
265 1 44.022641967213126 19.30018885245902 1.79368545441e-05 0.0 0.0 0.0
266 1 46.68961901639345 19.273630163934428 5.81324803249e-05 0.0 0.0 0.0
267 1 49.36366491803279 19.078782295081968 9.19617023235e-05 0.0 0.0 0.0
268 1 52.143390163934434 18.725996065573774 7.02137010235e-05 0.0 0.0 0.0
269 1 54.84874098360657 18.73033836065574 9.0301554524e-05 0.0 0.0 0.0
270 1 57.47229508196722 19.02637180327869 8.21471390213e-05 0.0 0.0 0.0
271 1 60.20137704918034 19.333412459016394 4.42678011948e-05 0.0 0.0 0.0
272 1 63.27784262295082 19.214807213114756 8.0293399354e-05 0.0 0.0 0.0
273 1 65.71003278688525 20.251252459016396 1.22720943843e-05 0.0 0.0 0.0
274 1 68.3032918032787 19.144724590163936 5.62672596461e-05 0.0 0.0 0.0
275 1 70.61177704918035 20.424843278688527 4.45944720037e-05 0.0 0.0 0.0
276 1 73.33480000000002 19.34103672131148 5.31293384567e-05 0.0 0.0 0.0
277 1 76.00884590163936 19.43490098360656 8.12751036394e-06 0.0 0.0 0.0
278 1 78.73439344262296 19.38259147540984 9.20778581647e-05 0.0 0.0 0.0
279 1 81.5048786885246 19.336542950819673 9.35573679969e-05 0.0 0.0 0.0
280 1 0.1575768393442623 21.57474360655738 8.56298871418e-05 0.0 0.0 0.0
281 1 2.850570295081967 21.59281967213115 4.71138620692e-06 0.0 0.0 0.0
282 1 5.535365901639344 21.812761967213117 3.10395643462e-07 0.0 0.0 0.0
283 1 8.185781639344263 21.974234754098365 4.40822563199e-05 0.0 0.0 0.0
284 1 10.592019016393444 22.13404131147541 2.02435474091e-06 0.0 0.0 0.0
285 1 13.02956131147541 21.918037377049185 6.00516374325e-05 0.0 0.0 0.0
286 1 15.65336786885246 22.137575737704918 5.45445649881e-05 0.0 0.0 0.0
287 1 18.614661639344266 22.03861180327869 8.80170469001e-06 0.0 0.0 0.0
288 1 21.29996721311476 21.69511606557377 2.60871475114e-05 0.0 0.0 0.0
289 1 23.904233442622953 21.609582950819675 5.67129064635e-05 0.0 0.0 0.0
290 1 26.543339016393446 21.57282491803279 3.76314703507e-05 0.0 0.0 0.0
291 1 29.174769836065575 21.525312131147544 7.45949282302e-05 0.0 0.0 0.0
292 1 31.717385573770493 21.361213770491805 4.32408985175e-05 0.0 0.0 0.0
293 1 34.439600655737706 21.40413180327869 6.34679670812e-05 0.0 0.0 0.0
294 1 36.97338032786886 21.21584786885246 5.72107879219e-06 0.0 0.0 0.0
295 1 39.6614124590164 21.10380655737705 6.2854416702e-05 0.0 0.0 0.0
296 1 42.40917639344263 21.468054426229507 6.64067108615e-05 0.0 0.0 0.0
297 1 45.65236590163935 21.614480655737704 9.73737151923e-05 0.0 0.0 0.0
298 1 48.34347803278689 21.468155409836065 3.39469366241e-05 0.0 0.0 0.0
299 1 50.90533114754099 21.070179016393446 5.56461027002e-05 0.0 0.0 0.0
300 1 53.56978360655739 21.01135606557377 1.64060516441e-06 0.0 0.0 0.0
301 1 56.12870819672132 21.211000655737706 5.57478260074e-05 0.0 0.0 0.0
302 1 58.74468852459017 21.380097704918033 1.06363476987e-06 0.0 0.0 0.0
303 1 61.03146229508197 20.642715409836068 8.11546530026e-06 0.0 0.0 0.0
304 1 64.8956 21.554142950819674 2.95668608344e-05 0.0 0.0 0.0
305 1 67.47017704918034 21.79569573770492 9.2209617656e-05 0.0 0.0 0.0
306 1 70.12907540983608 21.886782950819676 2.82157558857e-05 0.0 0.0 0.0
307 1 72.64508196721312 21.744497049180328 8.41155133793e-05 0.0 0.0 0.0
308 1 74.98234754098361 22.933680000000003 6.70626086788e-05 0.0 0.0 0.0
309 1 77.54177704918034 21.670526557377052 1.22527914517e-05 0.0 0.0 0.0
310 1 80.25419672131147 21.572320000000005 5.74402532977e-05 0.0 0.0 0.0
311 1 1.3758460983606557 23.87075737704918 8.83854294293e-05 0.0 0.0 0.0
312 1 4.109144131147541 23.993452459016396 9.25298897145e-06 0.0 0.0 0.0
313 1 6.675723278688525 24.217282622950822 3.11421297311e-05 0.0 0.0 0.0
314 1 9.257975081967214 24.517001967213115 1.86324866241e-05 0.0 0.0 0.0
315 1 11.835581639344264 24.468176393442626 9.11193869009e-05 0.0 0.0 0.0
316 1 14.320283278688526 24.32791016393443 7.08516977099e-05 0.0 0.0 0.0
317 1 16.4019593442623 23.49161442622951 7.49048906423e-06 0.0 0.0 0.0
318 1 20.07367278688525 24.100394098360656 9.25677489321e-05 0.0 0.0 0.0
319 1 22.64885573770492 23.999713442622955 5.92988270207e-05 0.0 0.0 0.0
320 1 25.275893770491805 23.91928 2.78905246669e-05 0.0 0.0 0.0
321 1 27.954231475409838 23.886763278688527 7.07747948039e-05 0.0 0.0 0.0
322 1 30.609241967213116 23.843794754098365 2.31946495028e-05 0.0 0.0 0.0
323 1 33.20795409836066 23.579621639344264 8.31613408357e-05 0.0 0.0 0.0
324 1 35.90381245901639 23.659651147540988 1.64484995449e-05 0.0 0.0 0.0
325 1 38.41855672131148 23.451473442622955 9.29592783946e-05 0.0 0.0 0.0
326 1 40.9694531147541 23.466520000000003 5.59338903285e-05 0.0 0.0 0.0
327 1 43.20664393442623 22.79290885245902 4.70804887954e-05 0.0 0.0 0.0
328 1 47.024379672131154 23.824860327868855 5.82111177465e-05 0.0 0.0 0.0
329 1 50.491096393442625 23.449756721311477 6.40552931124e-05 0.0 0.0 0.0
330 1 52.03079344262296 23.307874754098364 8.28804932919e-05 0.0 0.0 0.0
331 1 54.74977704918034 23.499440655737708 9.50848836495e-05 0.0 0.0 0.0
332 1 57.494006557377055 23.63294098360656 7.12763507977e-07 0.0 0.0 0.0
333 1 60.225108196721315 23.488281967213116 1.94635252633e-05 0.0 0.0 0.0
334 1 63.012255737704926 23.440213770491805 3.06980125145e-06 0.0 0.0 0.0
335 1 65.83020327868853 23.999915409836067 7.95043262892e-05 0.0 0.0 0.0
336 1 68.58049180327869 24.155127213114756 7.07286066639e-05 0.0 0.0 0.0
337 1 71.3408786885246 24.226169180327872 5.54123021877e-05 0.0 0.0 0.0
338 1 74.24011803278688 24.288425573770496 5.89598656373e-05 0.0 0.0 0.0
339 1 77.47058360655738 24.020061639344267 6.05248461233e-05 0.0 0.0 0.0
340 1 78.9908918032787 23.865556721311478 6.3876793232e-05 0.0 0.0 0.0
341 1 81.42964590163935 23.949373114754103 2.82412367912e-05 0.0 0.0 0.0
342 1 82.65811147540984 26.24139803278689 6.3533571793e-06 0.0 0.0 0.0
343 1 2.6309965901639347 26.155561967213117 2.65361804394e-05 0.0 0.0 0.0
344 1 5.225144262295082 26.495220327868854 7.86594525742e-05 0.0 0.0 0.0
345 1 7.903380983606557 26.72071672131148 7.91468096179e-05 0.0 0.0 0.0
346 1 10.626201967213117 26.855580327868857 2.11555916356e-05 0.0 0.0 0.0
347 1 13.26369180327869 26.813823606557378 9.38516394601e-06 0.0 0.0 0.0
348 1 15.888861639344263 26.440840655737706 9.61038240098e-05 0.0 0.0 0.0
349 1 18.56290754098361 26.307693770491806 6.5991841706e-05 0.0 0.0 0.0
350 1 21.234984262295086 26.403981639344263 2.16167078297e-05 0.0 0.0 0.0
351 1 23.8986793442623 26.289163278688527 2.72237043439e-05 0.0 0.0 0.0
352 1 26.579844590163937 26.1977731147541 9.8760901551e-05 0.0 0.0 0.0
353 1 29.31129967213115 26.190704262295085 1.98822857975e-05 0.0 0.0 0.0
354 1 32.87021442622951 25.776772459016396 1.3596808864e-05 0.0 0.0 0.0
355 1 34.406982950819675 25.839937704918032 7.98447723177e-06 0.0 0.0 0.0
356 1 37.09612590163935 25.947434754098364 4.52239650795e-05 0.0 0.0 0.0
357 1 39.77991672131147 25.841502950819674 8.2686787886e-05 0.0 0.0 0.0
358 1 42.429979016393446 25.638273442622953 6.77469391221e-05 0.0 0.0 0.0
359 1 45.05121049180328 25.659833442622954 9.62967633168e-05 0.0 0.0 0.0
360 1 47.677339672131154 26.281740983606557 2.06605668244e-05 0.0 0.0 0.0
361 1 50.52159344262296 26.131022950819673 9.23801340541e-06 0.0 0.0 0.0
362 1 53.32035409836066 25.677758032786887 4.2211092272e-05 0.0 0.0 0.0
363 1 56.094878688524595 25.826001967213116 2.13604151824e-05 0.0 0.0 0.0
364 1 58.7936655737705 25.860285901639347 8.07485372579e-05 0.0 0.0 0.0
365 1 61.42883278688525 25.72153442622951 2.08919203968e-05 0.0 0.0 0.0
366 1 64.11600655737706 25.826001967213116 3.48053550029e-05 0.0 0.0 0.0
367 1 66.82893114754098 26.30405836065574 2.23700503823e-05 0.0 0.0 0.0
368 1 69.89529836065574 26.44649573770492 6.82119140239e-05 0.0 0.0 0.0
369 1 72.5996393442623 26.334757377049183 2.59530062094e-05 0.0 0.0 0.0
370 1 75.13331803278689 26.84926885245902 8.49662680497e-05 0.0 0.0 0.0
371 1 77.62660327868853 26.765502950819673 3.29240935644e-07 0.0 0.0 0.0
372 1 80.16987540983607 26.410697049180328 1.54263525195e-05 0.0 0.0 0.0
373 1 1.537652131147541 28.4608662295082 9.52760743527e-05 0.0 0.0 0.0
374 1 3.784961508196722 29.824245901639348 6.07941720105e-05 0.0 0.0 0.0
375 1 6.534144262295083 28.900750819672133 7.30359491935e-05 0.0 0.0 0.0
376 1 9.35128393442623 29.04374360655738 5.92029408475e-05 0.0 0.0 0.0
377 1 12.049464918032788 29.17239672131148 9.65586071243e-05 0.0 0.0 0.0
378 1 14.647066229508198 28.968359344262296 5.65210133585e-05 0.0 0.0 0.0
379 1 17.31071081967213 28.700197377049182 5.78980318211e-05 0.0 0.0 0.0
380 1 19.914573114754102 28.67419409836066 7.28732627312e-05 0.0 0.0 0.0
381 1 22.531664262295084 28.65101836065574 1.40909994666e-05 0.0 0.0 0.0
382 1 25.160015081967217 28.530342950819673 3.68861687451e-05 0.0 0.0 0.0
383 1 27.7962931147541 28.4355193442623 8.08464355934e-05 0.0 0.0 0.0
384 1 30.43666098360656 28.572251147540985 8.35473805713e-05 0.0 0.0 0.0
385 1 33.006845245901644 28.362104262295084 9.64502834171e-05 0.0 0.0 0.0
386 1 35.77606819672131 28.188765901639346 6.80548802815e-05 0.0 0.0 0.0
387 1 38.48798295081968 28.181798032786887 5.61302294963e-05 0.0 0.0 0.0
388 1 41.13440983606558 28.069049836065574 9.13919364644e-05 0.0 0.0 0.0
389 1 43.69237508196722 28.014720655737708 9.81296433218e-05 0.0 0.0 0.0
390 1 46.203130491803286 28.199571147540986 7.23645485497e-05 0.0 0.0 0.0
391 1 48.384729836065574 27.638758688524593 6.17997239168e-05 0.0 0.0 0.0
392 1 52.00857704918034 28.034715409836068 9.01197651472e-05 0.0 0.0 0.0
393 1 54.517009836065576 27.956907540983607 5.13191474072e-05 0.0 0.0 0.0
394 1 57.21024262295082 28.153522622950824 6.57667672048e-05 0.0 0.0 0.0
395 1 60.216019672131154 28.172002622950824 3.62298018462e-05 0.0 0.0 0.0
396 1 62.864819672131155 28.057638688524595 3.34598768383e-05 0.0 0.0 0.0
397 1 65.34901639344264 28.25718229508197 8.81166773404e-05 0.0 0.0 0.0
398 1 67.50855081967214 27.685867540983608 6.80693464783e-05 0.0 0.0 0.0
399 1 71.11063606557379 28.615320655737708 5.81321134218e-05 0.0 0.0 0.0
400 1 73.68975737704918 28.907213770491808 3.94750249782e-05 0.0 0.0 0.0
401 1 76.43499672131148 29.20319672131148 8.95722043312e-05 0.0 0.0 0.0
402 1 79.0600655737705 28.984920655737707 8.30793391939e-05 0.0 0.0 0.0
403 1 81.62959344262296 28.774773770491805 7.20155756576e-05 0.0 0.0 0.0
404 1 0.5325925901639345 30.96990491803279 7.82936241012e-05 0.0 0.0 0.0
405 1 3.126876590163935 31.213022950819674 6.53124572839e-05 0.0 0.0 0.0
406 1 5.4841672131147545 31.360105573770493 8.35595597606e-05 0.0 0.0 0.0
407 1 7.8974229508196725 31.115573770491807 3.84021559082e-05 0.0 0.0 0.0
408 1 10.639077377049182 31.40423540983607 1.36958297168e-05 0.0 0.0 0.0
409 1 13.55048524590164 31.461594098360656 2.39172935933e-05 0.0 0.0 0.0
410 1 16.17161573770492 31.135215081967214 2.96754299444e-05 0.0 0.0 0.0
411 1 18.721603278688526 31.058568524590164 5.27402719188e-05 0.0 0.0 0.0
412 1 21.29007081967213 31.019184918032792 6.96407925919e-05 0.0 0.0 0.0