# input file

2232 atoms
1 atom types

0.0 82.68810555352132 xlo xhi
0.0 83.16 ylo yhi
-10.0 10.0 zlo zhi
0.0 0.0 0.0 xy xz yz

Masses

1 12.0100 #C

Atoms

1 1 2.5800352131147544 0.7168321311475411 1.5135585440894029e-05
2 1 4.123928131147541 0.7270112786885247 6.141333699749042e-05
3 1 6.707280655737705 0.8691911475409837 5.259228136480343e-06
4 1 9.333258360655739 0.8007293114754099 9.978775629540975e-05
5 1 11.980493114754099 0.7627493770491804 3.973786654757338e-05
6 1 14.69043868852459 0.7451075409836067 6.028639335440848e-05
7 1 17.443504262295082 0.6996901639344263 4.7740427283121245e-05
8 1 20.190460327868855 0.6581556065573771 3.603313421478317e-05
9 1 22.871979016393446 0.6398927213114755 8.37488300427111e-05
10 1 25.53183672131148 0.3390746754098361 7.917906697307754e-05
11 1 28.24092393442623 0.16072146885245903 9.183930110433939e-05
12 1 30.78586229508197 0.3834610098360656 4.1880939903872904e-05
13 1 33.38189836065574 0.5648669508196722 1.416579699441285e-05
14 1 36.058519344262294 0.648880262295082 5.487205759403849e-05
15 1 38.80274885245902 0.6889303606557379 3.0951122968645915e-05
16 1 41.599186885245906 0.7260014426229509 1.706451478806692e-06
17 1 44.355837377049184 0.6834671475409837 1.7833091719237006e-05
18 1 47.03796196721312 0.3210975737704918 6.549196401273705e-06
19 1 49.699637377049186 0.3619308 9.215439111364748e-05
20 1 52.214078688524594 0.7791137704918034 4.163445602253612e-05
21 1 54.86540327868853 0.8714834754098361 2.405436850485415e-05
22 1 57.52278688524591 0.9236819016393443 8.947031832623691e-05
23 1 60.213495081967224 1.1003426229508197 9.980570746162637e-05
24 1 62.893600000000006 1.266622229508197 4.1228628593746186e-05
25 1 65.54542950819672 1.305354491803279 2.405130646796736e-05
26 1 68.25229508196722 1.2102582295081967 6.191245362558328e-07
27 1 70.99955409836068 1.1024481311475411 4.055722522975148e-05
28 1 73.74075409836065 1.0669372459016395 6.106864011381951e-05
29 1 76.44004590163935 1.0234183606557377 4.136095744302711e-05
30 1 79.13024918032788 0.7887829508196722 2.569695727532625e-05
31 1 81.84115409836066 0.9615709508196721 1.8498882352342983e-05
32 1 82.62529180327869 3.507115213114754 9.676809868213703e-05
33 1 2.542913639344263 3.4156998032786885 3.0541120508537744e-05
34 1 5.321735081967214 3.2103243934426233 7.160264835110007e-05
35 1 7.988409180327869 3.200675409836066 9.308273266705247e-07
36 1 10.629988852459018 3.122569639344263 5.8124039185135295e-05
37 1 13.325544262295084 3.031507672131148 5.7055119568139135e-06
38 1 16.06679475409836 2.953684655737705 4.1638906382997645e-05
39 1 18.81657836065574 2.9144474754098364 5.759110561650133e-05
40 1 21.557727868852464 2.946413836065574 7.359695189284243e-05
41 1 25.17097180327869 2.488993442622951 4.7159795513296845e-05
42 1 26.708346229508198 2.450609573770492 2.054546493386156e-05
43 1 29.40834491803279 2.671390032786886 9.032499164045185e-05
44 1 31.99049573770492 2.8504895081967216 6.927136407471032e-05
45 1 34.63020721311476 2.9205266885245904 3.4051200885685084e-05
46 1 37.322127213114754 2.9171285901639346 7.689858835994823e-06
47 1 40.06721508196721 2.9040865573770493 7.62270420184524e-05
48 1 42.872590163934426 2.9609100327868854 9.460149223952511e-05
49 1 46.49855803278689 2.61139062295082 7.592857772398545e-05
50 1 48.0397193442623 2.6018931147540987 3.067633976269478e-05
51 1 50.59985573770492 2.946762229508197 5.072685566137162e-05
52 1 53.30975081967214 3.1254779672131154 4.091160094724943e-05
53 1 56.015101639344266 3.2022305573770495 5.727926728452345e-05
54 1 58.70782950819673 3.2890310163934426 9.21388586709041e-06
55 1 61.46417704918033 3.4879030819672137 2.8666418233942504e-05
56 1 64.13468852459017 3.6276946885245906 3.590997340216061e-05
57 1 66.82236721311476 3.5400005245901647 5.073294054085385e-05
58 1 69.5968918032787 3.3942155409836072 2.4085340378990117e-05
59 1 72.29870819672132 3.3367255737704924 2.312898784271662e-05
60 1 75.02173114754099 3.349313180327869 9.868306136588216e-05
61 1 78.57736393442623 3.0066354098360657 5.04111319868934e-05
62 1 80.11382950819673 3.0835091803278694 9.296373386230262e-06
63 1 1.2576397377049182 5.802316065573771 5.698474711852242e-06
64 1 4.0224648524590165 5.552179672131148 6.204082804903633e-05
65 1 6.76756786885246 5.5581881967213125 8.683004492387901e-05
66 1 9.361988196721311 5.519612459016393 6.926034411192092e-05
67 1 12.01553442622951 5.371620983606558 8.404646019019369e-05
68 1 14.739112786885247 5.234030819672132 5.7279810013182225e-05
69 1 17.461933770491804 5.163342295081968 9.091678587885626e-05
70 1 20.137393442622955 5.167684590163935 7.343559777058854e-05
71 1 22.73903409836066 5.339508196721312 2.3206946654821248e-05
72 1 25.18420065573771 5.0723560655737705 8.102077553778607e-05
73 1 27.935852459016395 4.820200000000001 7.806530385115981e-05
74 1 30.593539016393443 5.158192131147541 9.720743358966614e-05
75 1 33.22951409836066 5.239332459016394 8.220718035837005e-06
76 1 35.89553180327869 5.220448524590164 3.1267468389469256e-06
77 1 38.52534688524591 5.150416393442623 7.066099263683237e-05
78 1 41.18348786885247 5.097248524590165 5.245736567529048e-05
79 1 43.88661704918033 5.362128524590164 9.917032944016285e-05
80 1 46.34233639344262 5.301386885245902 5.5538811416454185e-05
81 1 49.06864131147541 5.164251147540984 2.5552217701958493e-05
82 1 51.794996721311485 5.307445901639345 1.8589136832392816e-05
83 1 54.517514754098364 5.435038688524591 1.48679005174033e-05
84 1 57.189036065573774 5.524156721311476 2.5361745282527004e-05
85 1 59.80653114754099 5.58984655737705 8.755668786986293e-06
86 1 62.51592131147541 5.871742295081967 9.269353355571153e-06
87 1 65.58632786885246 5.900573114754098 1.5653600561263325e-05
88 1 68.2957180327869 5.670532459016394 7.268398487545755e-05
89 1 70.87938360655738 5.647508196721312 7.361808646844685e-05
90 1 73.4080131147541 5.59368393442623 2.0322514843704622e-05
91 1 75.96491803278688 5.742028852459017 9.664432698370494e-05
92 1 78.56625573770492 5.678863606557377 2.296863760231094e-05
93 1 81.21000655737706 5.700827540983607 1.5442528058671035e-05
94 1 82.55056393442624 8.016331147540985 1.7438001497956623e-05
95 1 2.651309442622951 7.901209836065575 2.6335077273430687e-05
96 1 5.432261639344262 7.823502950819673 5.304472718813396e-05
97 1 8.269194098360657 7.955892459016394 4.227532556505296e-05
98 1 10.832309508196722 7.779474098360657 2.8520922718419075e-05
99 1 13.505345573770493 7.552917377049181 2.071702688706043e-05
100 1 16.2308931147541 7.441179016393443 7.905862421522271e-05
101 1 18.923772459016398 7.444612459016394 6.217371956694062e-05
102 1 21.5955462295082 7.564833442622952 1.9603153431147292e-05
103 1 24.326142950819676 7.603611147540985 5.20645152764195e-05
104 1 26.931772459016397 7.107428196721312 3.426093305837341e-06
105 1 29.23359278688525 8.452580327868853 6.85376727480018e-05
106 1 31.985900983606562 7.568064918032787 5.3752107842214186e-05
107 1 34.62147213114754 7.55988524590164 5.409874117660052e-06
108 1 37.22341573770492 7.534740327868853 7.070731805043148e-05
109 1 39.75446885245902 7.425930491803279 9.073599475131109e-05
110 1 42.413720655737706 7.446581639344264 9.753670890090229e-05
111 1 45.060147540983614 7.777504918032787 5.844720356981921e-05
112 1 47.70480721311476 7.51908786885246 8.727428539930057e-05
113 1 50.386780327868856 7.507424262295083 6.0990519862878e-05
114 1 53.1148524590164 7.63496655737705 7.179793233763632e-05
115 1 55.79950163934427 7.782352131147542 7.72811210800233e-05
116 1 58.41447213114755 7.89868524590164 5.710876099780157e-05
117 1 61.02287868852459 7.950792786885247 7.454997753111234e-05
118 1 63.244013114754104 7.229820327868853 9.186835178574872e-05
119 1 66.93092459016394 8.010625573770492 9.334533716761074e-06
120 1 69.52620327868854 8.024106885245903 3.919397436881684e-05
121 1 72.10330491803279 8.031428196721311 5.3356940059587155e-05
122 1 74.59457049180328 8.024359344262296 1.933574839724308e-05
123 1 77.25952786885247 8.018300327868854 7.712565895961366e-05
124 1 79.86591475409836 8.051776393442625 3.388755405283425e-05
125 1 1.282910885245902 10.173542950819673 8.014699502188767e-05
126 1 3.9601529180327875 10.08316262295082 3.1158186860117544e-05
127 1 6.583070819672132 10.04968655737705 5.380659764626802e-05
128 1 10.236253770491803 10.231204590163935 2.0817943246550176e-06
129 1 12.517422950819673 9.933858360655739 4.449289047402565e-05
130 1 15.081497704918034 9.720833442622952 9.919004748562445e-05
131 1 17.7524131147541 9.700838688524591 5.3597641137649524e-05
132 1 20.360617704918035 9.779757377049181 6.511658941402276e-05
133 1 23.037238688524592 9.815556065573773 7.222348684823337e-05
134 1 25.799847213114756 9.669533770491805 2.2951761850461963e-05
135 1 28.531554754098362 9.821968524590165 1.4767294402977194e-06
136 1 31.01332786885246 10.031812459016395 9.396484472820388e-06
137 1 33.529637377049184 9.908006557377051 2.3053281531861125e-05
138 1 36.072404590163934 9.91573180327869 8.573540633698013e-05
139 1 38.68888983606558 9.886900983606559 6.523231623993477e-05
140 1 41.30194163934427 9.695739016393444 1.1269494853201356e-05
141 1 43.678691803278696 10.954499672131147 8.276497013079976e-06
142 1 46.44963147540984 9.979755409836066 2.321693500550497e-05
143 1 49.07974950819673 9.82136262295082 4.432960079003246e-05
144 1 51.745514754098366 9.824442622950821 7.83197005562035e-05
145 1 54.48469508196722 9.998184918032788 2.983349273703424e-05
146 1 57.09360655737706 10.19172 3.0066330423179533e-05
147 1 59.79946229508197 10.264579672131148 8.876081329827349e-05
148 1 62.549245901639345 10.086848524590165 3.56128274095148e-05
149 1 65.28640655737705 10.103258360655738 7.80395498787785e-05
150 1 68.03265573770493 10.354707540983608 8.303928412955814e-05
151 1 70.77284590163936 10.399342295081969 3.5009652352145884e-05
152 1 73.50748196721312 10.452257704918035 4.0363084074805724e-05
153 1 76.18708196721312 10.261903606557377 5.296778792269584e-05
154 1 78.49960655737705 11.490773114754099 5.789241548237906e-05
155 1 81.22868852459017 10.36036262295082 4.361196845440547e-05
156 1 0.13790927213114754 12.501063606557379 4.909657485925251e-05
157 1 2.6964945573770494 12.43088 4.759887535295881e-05
158 1 5.204846557377049 12.408007213114756 9.091997417412021e-05
159 1 7.617344918032788 12.561350819672132 8.405382576547964e-05
160 1 9.223943606557379 11.37752 3.189932829727825e-05
161 1 13.835915409836067 12.176956721311477 6.18354239290253e-05
162 1 16.464367213114755 11.97549442622951 6.448098810119549e-05
163 1 19.110238688524593 12.073801967213116 8.060786990640499e-05
164 1 21.604533770491805 12.082385573770493 9.935646468913417e-05
165 1 24.36643540983607 11.952268196721313 3.338677501149453e-05
166 1 27.045278032786886 11.996044590163937 4.3277000804687737e-05
167 1 29.66474229508197 12.339893770491804 7.880512964120981e-05
168 1 32.31076524590164 12.381095081967215 2.460058761146665e-05
169 1 34.87140655737706 12.331057704918035 2.7962287589319625e-05
170 1 37.42699868852459 12.264459016393443 6.978535611145811e-05
171 1 40.104023606557384 12.152872131147541 2.563846387164992e-05
172 1 42.90066360655738 12.279152131147542 9.028870808906111e-05
173 1 45.45221639344263 12.419721311475412 8.606727004766657e-06
174 1 47.99710426229509 12.23269967213115 3.668917651988324e-06
175 1 50.46282098360656 12.127272786885246 8.31256525075309e-05
176 1 53.08203278688525 12.131110163934428 4.2910393494840614e-05
177 1 55.687409836065584 12.4586 7.982128378744903e-05
178 1 58.408413114754104 12.512828196721312 1.73738648162831e-05
179 1 61.188491803278694 12.426588196721314 9.41214589233562e-05
180 1 63.877685245901645 12.375692459016395 4.765142793548871e-05
181 1 66.5476918032787 12.472081311475412 3.714083444547243e-05
182 1 69.31464262295083 12.623203278688525 6.513296568373678e-05
183 1 72.08058360655738 12.679198688524592 8.016207171020057e-05
184 1 74.95255737704919 12.671675409836066 5.755496257886033e-05
185 1 77.73920000000001 12.83400655737705 5.106789774792842e-06
186 1 80.21329836065574 12.875460327868854 9.99582568464281e-05
187 1 1.557374229508197 14.84494360655738 8.166784118159296e-05
188 1 4.138843409836066 14.828079344262296 1.2250277453814164e-05
189 1 6.764134426229509 14.882459016393446 5.925951148422917e-05
190 1 9.431565901639345 14.409754754098362 1.1558625736001171e-05
191 1 12.281727213114756 14.070399344262297 4.8318416388296395e-05
192 1 16.012465573770495 14.18723737704918 8.097453800651555e-05
193 1 17.554990163934427 14.300137049180329 5.527901323446978e-05
194 1 20.18904655737705 14.514373770491805 2.7691075493020746e-05
195 1 22.87667475409836 14.200567213114756 4.455949025362858e-05
196 1 25.58525704918033 14.256310163934428 4.025963572295282e-05
197 1 28.19028065573771 14.482462950819674 9.056795980415377e-05
198 1 30.91249573770492 14.678623606557379 4.4943953213458876e-05
199 1 33.58714754098361 14.758148196721313 7.466549658635716e-05
200 1 36.15152524590164 14.717603278688525 5.978038599155843e-05
201 1 38.70767278688525 14.521644590163936 9.405190076311709e-05
202 1 41.464222295081974 14.408391475409838 3.5101858954082044e-05
203 1 44.15563737704918 14.707000000000003 4.965020269010342e-05
204 1 46.810597377049184 14.699931147540985 6.264167781028194e-05
205 1 49.4572262295082 14.626415081967215 3.621022044324669e-05
206 1 51.975757377049185 14.4321731147541 4.650139191267056e-05
207 1 54.19638688524591 15.8027731147541 2.8815591273783415e-05
208 1 57.00979016393443 14.771881967213117 4.502901948736267e-05
209 1 59.867121311475415 14.689428852459018 5.980837345790602e-06
210 1 62.566413114754106 14.712857049180329 2.6305584263534776e-05
211 1 65.14351475409836 14.750422950819674 6.377677676071745e-05
212 1 67.76605901639344 14.767085245901642 5.5050677598927424e-05
213 1 70.42091803278689 14.863625573770493 7.802186423461968e-05
214 1 73.51000655737705 14.788392786885247 6.426291399538434e-05
215 1 76.29311475409837 14.98233180327869 8.074984605966801e-05
216 1 79.07773770491805 15.285535081967215 5.6773680096397743e-05
217 1 81.71997377049182 14.976373770491806 4.0219803572027084e-05
218 1 0.22423308852459017 17.29803737704918 1.380802938215573e-05
219 1 2.8544531147540986 17.2010931147541 3.537743348453402e-05
220 1 5.5553101639344264 17.182916065573774 1.1746879721416493e-05
221 1 8.212895737704919 16.933183606557378 8.860423672203796e-05
222 1 10.772224262295083 16.367473442622952 8.087495993616822e-05
223 1 13.344226229508198 16.58514360655738 7.814704872600791e-05
224 1 15.819536393442624 16.708596065573772 6.24040815875741e-05
225 1 18.61910491803279 16.769590163934428 2.8253784872090083e-05
226 1 22.335301639344266 16.44992655737705 6.715707714987078e-05
227 1 23.87898754098361 16.42952786885246 6.09458968863186e-05
228 1 26.566363278688527 16.689106229508198 7.80590359910831e-05
229 1 29.34204918032787 16.818668196721312 4.148288031014774e-05
230 1 32.15469508196722 17.02785573770492 9.835179232612217e-05
231 1 34.842171803278696 17.15994229508197 5.160643583601577e-06
232 1 37.50112065573771 17.040731147540985 3.546901919795026e-05
233 1 40.15895868852459 16.670424262295086 1.992830856217245e-05
234 1 42.85214098360656 16.804883934426233 1.083278088955587e-05
235 1 45.441613114754105 17.0070531147541 4.134460951288278e-05
236 1 48.09334163934427 16.980797377049182 3.9113246278732376e-05
237 1 50.80030819672132 16.97312262295082 9.829595701381137e-05
238 1 53.41931803278689 17.14711737704918 5.231078099374318e-05
239 1 55.896445901639346 17.18761180327869 7.578973698963295e-05
240 1 58.64875409836066 16.84305573770492 7.90126645523908e-05
241 1 61.37935081967214 16.990390819672132 5.340905388987446e-05
242 1 63.88222950819672 17.135302295081967 8.339938570811868e-06
243 1 66.51083278688525 17.10637049180328 4.8967307669489604e-05
244 1 69.29141639344263 17.092788196721315 4.903467282951922e-05
245 1 71.2217180327869 16.166768524590164 4.640313684190956e-05
246 1 74.79855737704918 16.991602622950822 6.482946623704585e-05
247 1 76.7960131147541 16.445786229508197 6.314228178048382e-05
248 1 80.33902295081968 17.385741639344264 2.8739710148918786e-05
249 1 1.3680501639344262 19.558605901639343 4.286561140105469e-05
250 1 4.111214295081968 19.45878360655738 3.445245447220297e-05
251 1 6.855575081967214 19.377794754098364 3.948755839250692e-05
252 1 10.292148196721312 18.840612459016395 6.525825459007368e-05
253 1 11.822655737704919 18.799461639344266 9.002839509758689e-05
254 1 14.395263606557378 19.06620983606558 7.295892583800534e-05
255 1 17.17110098360656 18.985120000000002 6.636675966310909e-05
256 1 19.65231868852459 19.216725901639347 6.004217082166219e-05
257 1 22.213666885245903 18.99587475409836 9.018736174219767e-05
258 1 24.99046360655738 18.844399344262296 5.53908418692453e-05
259 1 27.763422950819674 18.95472393442623 9.15169267146567e-05
260 1 30.456554754098363 19.06681573770492 9.545802737959494e-05
261 1 33.15418032786885 19.398294426229512 8.175302066853313e-05
262 1 36.272049180327876 19.46989180327869 1.635565915545223e-05
263 1 39.79986098360656 18.890649836065574 8.268219531163379e-05
264 1 41.33662950819672 18.975980983606558 1.908079292531574e-05
265 1 43.9518524590164 19.258482622950822 8.48669466751501e-05
266 1 46.61756721311476 19.305742950819674 2.8799186728488313e-05
267 1 49.1833586885246 19.234246557377052 4.600562506899483e-05
268 1 51.81367868852459 19.436314754098362 6.812533533038617e-05
269 1 54.662426229508206 19.59586885245902 5.3180215418728776e-05
270 1 57.3496 19.169061639344264 8.715161966197968e-05
271 1 59.966590163934434 19.139422950819675 3.6677617330729445e-05
272 1 62.457350819672136 19.52386754098361 9.176381041420117e-05
273 1 65.3464918032787 19.474537049180327 3.74648216849698e-05
274 1 68.15888524590164 19.268025573770494 2.9842403901225657e-05
275 1 71.6604918032787 18.885247213114756 4.181582779080135e-05
276 1 73.20503606557378 19.018040655737707 9.554155648516527e-06
277 1 75.86898360655738 19.349771803278692 7.321788048599465e-06
278 1 78.58847213114754 19.503165901639345 6.608193601192699e-05
279 1 81.32310819672132 19.662770491803283 1.9266459927855707e-05
280 1 82.53087213114755 21.84240065573771 5.635929739230972e-06
281 1 2.6022465573770495 21.730662295081967 7.817229842266998e-05
282 1 5.28492655737705 21.64639147540984 1.7102834220213782e-05
283 1 7.889899672131148 21.782517377049185 6.197210233665118e-06
284 1 10.388234098360657 21.585700327868857 7.961622289775763e-05
285 1 12.924033442622951 21.306177704918035 7.440453337767441e-05
286 1 15.622062950819675 21.205900983606558 2.9613215863868416e-05
287 1 18.558363278688528 21.550053114754103 6.569337886390563e-05
288 1 21.178231475409838 21.449473442622953 9.757535177088472e-06
289 1 23.68383672131148 21.147835409836066 4.76437363868012e-05
290 1 26.363285245901643 21.10814885245902 1.915892942591252e-05
291 1 29.09221573770492 21.286182950819672 2.9671121663269487e-05
292 1 31.62064327868853 21.46043016393443 9.121561145209543e-05
293 1 33.83102295081967 20.785758688524595 3.7875663733005364e-05
294 1 37.369640000000004 21.738539016393446 8.599434379625015e-05
295 1 39.88165770491804 21.600999344262295 2.9822007134088083e-05
296 1 42.59034098360656 21.473002622950823 6.2416334246616e-05
297 1 45.272516065573775 21.5962531147541 5.377970932606057e-05
298 1 47.91283344262296 21.65815606557377 7.826242424740331e-05
299 1 50.40056459016394 21.638464262295084 3.775127958179771e-05
300 1 52.420085245901646 20.86215278688525 9.06328272660817e-05
301 1 56.0292393442623 21.563635409836067 4.0101141433367995e-05
302 1 58.60179672131148 21.44109180327869 2.684711006185391e-05
303 1 61.04307540983608 21.71379803278689 4.5836895890843525e-05
304 1 63.08748852459017 20.937991475409838 3.433367451481908e-05
305 1 66.59969836065574 21.473154098360656 5.951733081673372e-06
306 1 69.15811803278689 21.536773770491806 5.507086920093093e-05
307 1 71.64988852459017 21.681079344262297 7.595804249304278e-05
308 1 74.38300983606558 21.55505180327869 5.309979072929637e-05
309 1 77.09593442622952 21.71920065573771 8.56391187153254e-05
310 1 79.78108852459017 21.834624918032787 3.6848074035359234e-05
311 1 1.2120052459016395 23.99471475409836 6.51899102353938e-05
312 1 3.9248793442622953 23.968812459016394 9.84298954112839e-05
313 1 6.599026229508198 24.03990491803279 8.532272346042405e-05
314 1 9.298318032786886 24.076006557377053 8.745712842220523e-05
315 1 11.969788852459017 23.849045901639347 5.795430562570585e-05
316 1 15.05312131147541 23.298988196721314 3.669677810484852e-05
317 1 16.36681704918033 22.533582950819675 2.7593504445444974e-05
318 1 19.92744852459017 23.81592327868853 7.672241335074858e-05
319 1 22.410433442622956 23.705548196721313 9.167638706941083e-05
320 1 25.055850491803284 23.409817704918034 8.58360236405809e-05
321 1 27.743933114754103 23.416028196721314 4.939529822258704e-05
322 1 30.361882622950823 23.779619672131147 6.595078146121718e-05
323 1 33.033302950819674 23.65833836065574 7.70156125140518e-05
324 1 35.7604662295082 23.710193442622952 3.1781307615336855e-05
325 1 38.53216327868853 24.040813770491805 1.3961559236784904e-05
326 1 41.27563540983607 23.810722622950824 3.16287655657463e-05
327 1 43.978966557377056 23.835968524590164 7.298609177566375e-05
328 1 46.704766557377056 23.954977704918036 7.551347875596667e-05
329 1 49.431020983606565 24.068685245901644 3.8192624161533794e-05
330 1 51.98737049180328 23.82072 6.106080680444742e-05
331 1 54.73361967213115 23.822588196721313 9.300678999853862e-05
332 1 57.45866229508197 23.811278032786888 8.127969826023395e-06
333 1 59.87620983606558 25.05443672131148 4.1947767549533145e-05
334 1 62.57853114754099 23.902516721311475 5.7889294631135774e-05
335 1 65.2268262295082 23.77260131147541 6.814813357382327e-05
336 1 67.9256131147541 23.82728393442623 8.73295464666476e-05
337 1 70.33811147540985 24.96688393442623 9.853956243410444e-05
338 1 73.03033442622952 23.924581639344265 2.852897476693075e-05
339 1 75.74982295081968 23.95558360655738 2.4648613143030995e-05
340 1 78.41175081967214 24.104180983606557 2.101907469955183e-05
341 1 81.09841967213116 24.08211606557377 6.230707788157872e-05
342 1 82.68386229508198 26.198934426229513 7.228397866704673e-06
343 1 2.628588131147541 26.236146885245905 8.639131017395437e-05
344 1 5.2851285245901645 26.28704262295082 9.867077803913307e-05
345 1 7.960032786885247 26.318196065573773 8.962174618367983e-05
346 1 10.606459672131148 26.249729180327872 5.187324874838427e-05
347 1 13.153215737704919 26.320771147540984 2.3156052965903842e-05
348 1 15.616609836065575 26.07810754098361 7.374207557489384e-05
349 1 18.28419278688525 25.867304262295082 1.3948502429033883e-05
350 1 20.9880793442623 26.204841967213117 2.5086716257802235e-05
351 1 24.055001967213116 25.8182262295082 5.0376413433587346e-05
352 1 26.69961114754099 25.637112131147543 4.110132946594878e-05
353 1 28.90554754098361 27.115108196721312 3.872579884242402e-05
354 1 31.6972393442623 26.06412131147541 5.03643658438012e-05
355 1 34.422281967213124 25.965005901639348 2.0204575059397035e-05
356 1 37.13561049180328 26.07043278688525 1.9302743706497918e-05
357 1 39.90099606557377 26.146776393442625 6.137825074522286e-06
358 1 42.632249180327875 26.106382950819675 2.2409963711022332e-05
359 1 45.35784721311476 26.15737967213115 3.71323166454437e-06
360 1 48.14221770491803 26.27447016393443 7.187450089069432e-05
361 1 50.98510819672132 26.377422950819675 3.264840011909478e-05
362 1 53.505659016393444 26.064525245901642 2.523843045143368e-05
363 1 56.301390163934435 26.065939016393443 3.4816316934091574e-05
364 1 59.03047213114755 26.34071540983607 3.669906259772368e-05
365 1 61.585862295081974 26.457351475409837 8.16706398299464e-05
366 1 64.11095737704919 26.1854531147541 2.4419094867430437e-05
367 1 66.6168655737705 26.090124590163935 9.221499960651237e-06
368 1 69.39593442622952 26.170911475409838 8.14242031071515e-05
369 1 71.82257049180329 26.499158688524595 8.051216613004702e-05
370 1 74.30020327868853 26.221958688524595 6.312950816558275e-05
371 1 76.96970491803279 26.386006557377055 7.372914240382693e-05
372 1 79.96689836065575 26.404688524590167 5.739225736977229e-05
373 1 1.317134229508197 28.53433180327869 8.16202911515814e-05
374 1 3.960157967213115 28.559224262295086 2.8848503297458572e-05
375 1 6.647902295081968 28.584268196721315 1.8364797343875396e-05
376 1 9.343154754098363 28.59244786885246 1.450269125053283e-05
377 1 11.999225573770493 28.65409836065574 1.4012033362923093e-05
378 1 14.634746229508199 28.616078032786888 7.048682461493656e-05
379 1 17.186248524590166 28.303533770491807 5.659300455647329e-05
380 1 19.730732459016394 28.276268196721315 3.6456822566717896e-05
381 1 21.819123934426234 27.507883934426232 4.93920374492044e-05
382 1 25.173142950819674 29.27449114754099 9.714781378763981e-05
383 1 28.081975737704923 28.434358032786886 6.198081515037594e-05
384 1 30.68851409836066 28.508278032786887 6.103690776264094e-05
385 1 33.27303803278689 28.28298360655738 4.2565771180475025e-05
386 1 35.86740786885247 28.291264262295083 4.468713675759917e-06
387 1 38.53539475409836 28.33261704918033 7.238847657248771e-06
388 1 41.25185377049181 28.3769993442623 8.698471727667841e-05
389 1 43.93710885245902 28.395327868852462 3.7948611116948255e-05
390 1 46.58257639344263 28.42234098360656 8.582921570073267e-05
391 1 49.2959049180328 28.496260983606557 8.740358427075995e-05
392 1 53.28198032786886 28.448950163934427 3.9237555641517366e-05
393 1 54.804813114754104 28.226937704918036 8.005924378613753e-05
394 1 57.40918032786886 28.454150819672133 6.261835282554081e-05
395 1 60.105947540983614 28.755233442622952 6.953288262755143e-05
396 1 62.92591475409837 28.71882885245902 4.596379080259877e-05
397 1 65.49493770491804 28.58366229508197 6.968952739966006e-07
398 1 68.08819672131148 28.305906885245903 7.810909027856836e-05
399 1 70.38052459016393 29.805917377049184 1.0146564542561588e-05
400 1 73.09294426229509 28.782902950819675 5.342534541879608e-05
401 1 75.65388852459017 28.573109508196723 1.2940938287072624e-05
402 1 77.72758688524591 27.736763278688528 8.656756609729278e-05
403 1 81.4165180327869 28.51635672131148 1.3421406523708413e-05
404 1 82.57984918032787 30.866901639344267 9.68637862920804e-05
405 1 2.5732743606557382 30.854278688524595 6.52110127968625e-05
406 1 5.281442622950821 30.84200918032787 6.638185012178025e-05
407 1 8.021279344262297 30.853874754098364 8.765630679207892e-06
408 1 10.754905573770493 30.918958688524594 8.8561061243054e-05
409 1 13.451773770491805 30.9518793442623 7.675685319264914e-06
410 1 16.084466885245902 30.84155475409836 9.292657315428373e-05
411 1 18.704234098360658 30.687807213114755 3.0306417451231295e-05
412 1 21.40847409836066 30.445699016393444 5.232424869042578e-05
413 1 24.220261639344265 30.51174229508197 1.690292845809047e-05
414 1 26.793980327868855 30.748902295081972 7.639916377699381e-05
415 1 29.46489573770492 30.7985862295082 9.334878334219245e-05
416 1 32.09233770491804 30.7431462295082 8.341207186994649e-06
417 1 34.63631672131147 30.65463409836066 7.023418142354343e-05
418 1 37.21947737704918 30.620097704918038 7.629948825139843e-05
419 1 39.87822426229509 30.61762360655738 7.522670672432408e-06
420 1 42.568881967213116 30.678567213114757 9.124467364977241e-05
421 1 45.11376983606557 30.734916065573774 7.626695262035157e-05
422 1 47.46522360655738 30.672912131147545 8.986481029110576e-05
423 1 49.803095081967214 30.81322885245902 8.449127134537254e-05
424 1 51.806609836065576 30.265140327868856 7.222679172635135e-05
425 1 55.86110163934427 30.707044590163935 6.401920592747268e-06
426 1 58.51040655737705 30.867406557377052 9.194335097127961e-05
427 1 61.267259016393446 30.85902491803279 9.432884149121346e-05
428 1 64.36089180327869 31.061749508196723 3.897718787768542e-05
429 1 67.0440262295082 30.80595803278689 6.434698519525136e-05
430 1 69.67313442622952 31.1620262295082 2.073293596777809e-05
431 1 72.17399344262296 31.26891737704918 8.166701776926915e-05
432 1 74.73746229508198 31.012469508196723 4.561747184484919e-05
433 1 77.3120393442623 30.67584065573771 2.2004055745337472e-05
434 1 79.92448524590165 30.66458098360656 9.587409395783755e-05
435 1 1.207516524590164 33.14297114754098 1.3153533742157276e-05
436 1 3.891953639344263 33.10182032786886 8.984204475335758e-05
437 1 6.625130491803279 33.06935409836066 7.81959023333633e-05
438 1 9.405007213114756 33.11479672131148 6.327236943470906e-05
439 1 12.165697049180329 33.20825704918033 2.7321404681641738e-05
440 1 14.820909508196724 33.24238950819672 7.840952353598465e-05
441 1 17.41830885245902 33.12630885245902 7.101194441868879e-05
442 1 20.08099409836066 32.88258491803279 4.245923680539552e-05
443 1 22.758574426229508 32.74565114754098 9.58214420749961e-06
444 1 25.343603278688526 32.9771055737705 2.7328388376120773e-05
445 1 28.119996065573773 33.04355278688525 4.337838231095607e-05
446 1 30.812622950819673 33.091822950819676 7.497384904655496e-05
447 1 33.39007803278689 33.09596327868853 4.3768603471694604e-05
448 1 35.93466295081968 33.01093508196722 6.363603844152977e-06
449 1 38.54034295081967 32.927068196721315 9.159362391342613e-05
450 1 41.2537724590164 32.919847868852465 9.962324641924294e-05
451 1 43.97351344262296 33.09929573770492 1.5683242012680011e-06
452 1 46.4350393442623 33.22991803278689 9.285144275541544e-05
453 1 48.949632131147546 33.17468000000001 2.4328827176350034e-05
454 1 51.54506229508197 34.09292393442623 5.233701639003362e-05
455 1 54.32160655737705 32.77983409836066 8.703706336917192e-05
456 1 57.24710163934427 33.14271868852459 1.3068496964122712e-05
457 1 60.670445901639354 32.849664262295086 9.586253677159545e-05
458 1 62.0392786885246 32.17049901639345 8.041983638477325e-05
459 1 65.6772131147541 33.19159475409836 5.79395183341466e-05
460 1 68.20836721311476 33.29974819672132 9.804501131896259e-05
461 1 70.82939672131148 33.60855606557377 9.977831837791815e-05
462 1 73.5155606557377 33.48838557377049 4.110543595515299e-05