# input file

2232 atoms
1 atom types

0.0 82.68810555352132 xlo xhi
0.0 83.16 ylo yhi
-10.0 10.0 zlo zhi
0.0 0.0 0.0 xy xz yz

Masses

1 12.0100 #C

Atoms

1 1 0.8955478688524591 0.7739484590163935 8.37141963142888e-05
2 1 3.707295016393443 0.6802710163934428 8.712675307677361e-05
3 1 6.542929836065574 0.6874660983606558 3.544031222402614e-05
4 1 9.290037377049181 0.9473221639344264 2.119901137243988e-05
5 1 11.850375737704919 0.9464234098360657 2.5632112015018173e-05
6 1 14.75330098360656 0.4714864 6.328131242080305e-05
7 1 17.608612459016395 0.5259832131147542 6.104205867199387e-05
8 1 20.948291803278693 0.20398284590163937 9.055388060684283e-05
9 1 22.49414885245902 0.13645056393442626 4.933541085330578e-05
10 1 25.194854426229508 0.2508569114754099 9.81227606617161e-06
11 1 27.87071803278689 0.6221549508196721 6.846712619559085e-05
12 1 30.336687213114757 1.078156524590164 8.630464874921197e-06
13 1 33.26465639344262 1.0903099016393445 6.877665170075947e-05
14 1 36.53586885245902 0.33537968524590167 2.503320575434349e-05
15 1 39.18229573770492 0.4717267409836066 7.192053237839899e-05
16 1 41.4591731147541 0.7445571803278689 4.621410682647572e-05
17 1 44.05283606557378 1.4264136393442624 1.17850176098524e-06
18 1 47.262600000000006 1.658009442622951 4.917103230485911e-05
19 1 50.75739016393443 1.1079416393442625 5.497999888806753e-05
20 1 52.30849836065574 1.1433565901639346 1.541227879340963e-05
21 1 54.85580983606558 0.927271868852459 3.544990417692014e-05
22 1 57.35818360655738 0.6763528524590166 3.3130947118711756e-05
23 1 59.85651803278689 0.42341416393442627 8.340597480293922e-06
24 1 62.61690491803279 0.3877220131147541 1.3867032620376452e-05
25 1 65.30458360655737 0.6132784918032788 4.686907591511947e-06
26 1 67.88067540983607 0.7807244590163935 4.5847501373910186e-05
27 1 70.36386229508197 0.822592262295082 5.9535104900331895e-05
28 1 72.86017704918032 0.6554593442622951 4.817369693932611e-05
29 1 75.18179016393444 1.888009704918033 2.8454282639003828e-05
30 1 78.0628524590164 0.9681954754098362 7.73931288344332e-05
31 1 80.78991475409836 0.8947147540983608 2.4744028121927278e-05
32 1 82.23499016393443 3.0551630819672138 1.1661840062773488e-06
33 1 2.3031432131147542 2.929206229508197 1.2037742672571827e-05
34 1 5.003929573770492 2.8674699016393443 8.672542775778795e-05
35 1 7.728174426229509 3.134324131147541 5.933630552042136e-06
36 1 10.796308852459019 3.325198295081967 6.616905291809244e-05
37 1 13.545032131147542 2.6477800655737704 6.8404429806512e-05
38 1 16.246394098360657 2.6199237377049185 6.822696942297277e-05
39 1 18.733468852459016 2.9850804590163937 3.5188697438345096e-05
40 1 21.357325901639346 2.938521967213115 2.3200173308651164e-05
41 1 24.034300327868856 2.472947147540984 2.4165562495609417e-05
42 1 26.1646 3.9998293770491804 6.357364375022146e-05
43 1 28.93760983606558 3.233697049180328 5.5154350124157374e-06
44 1 30.972530491803283 2.471285967213115 3.923227582128367e-05
45 1 34.33397180327869 2.165628786885246 8.927650342229708e-05
46 1 36.631752786885244 3.877841180327869 5.6304438723380015e-05
47 1 40.071860327868855 3.179145704918033 6.005523783678223e-05
48 1 42.57630426229509 3.322865573770492 5.507325205664232e-05
49 1 44.78612852459017 2.7751809836065577 9.383782002684369e-05
50 1 48.329390819672135 3.9029659016393445 2.6764833063390128e-05
51 1 50.88412459016394 3.8441429508196725 5.172813373848818e-05
52 1 54.554373770491814 3.1947678688524594 4.706451292753631e-05
53 1 56.11709508196722 3.205946754098361 9.922682917836509e-05
54 1 58.61038032786885 2.9564516065573776 8.839575904082584e-05
55 1 61.25059672131148 2.5744205245901646 4.249644562988533e-05
56 1 63.939285245901644 2.7468348852459017 3.51784987363038e-05
57 1 66.56839344262296 3.0729109508196726 4.823671653803832e-05
58 1 69.06066885245903 3.276211147540984 3.163922742998132e-05
59 1 71.66352131147542 3.227855147540984 8.105079819757804e-05
60 1 74.35422950819672 3.197600459016394 3.367760353260119e-05
61 1 76.91466885245902 3.2704601311475416 1.640502356402842e-05
62 1 79.4836918032787 3.238246360655738 7.891974722805651e-05
63 1 1.0506081967213117 5.2282242622950825 7.82033335369584e-05
64 1 3.7103497704918036 5.188083278688525 9.132038937043041e-06
65 1 6.327935737704919 5.232465573770492 2.950157899599828e-05
66 1 8.456468196721312 4.520854295081968 6.203607725541032e-05
67 1 13.214866229508198 4.753025704918033 9.551221329071214e-06
68 1 14.730024262295084 4.839341442622952 3.159007648897643e-05
69 1 17.064866229508198 5.172178360655739 8.080619147762236e-05
70 1 19.671808524590165 5.250188196721312 4.420422323209663e-05
71 1 23.404162622950825 4.9982845901639354 1.779837921272778e-05
72 1 25.87174754098361 5.5288019672131155 2.986596145492262e-05
73 1 28.09858754098361 5.57212393442623 9.444668044548052e-05
74 1 30.805099672131153 5.335822295081968 2.459033665742616e-05
75 1 34.02137704918033 4.94465724590164 4.734880540742752e-05
76 1 35.54405836065575 4.932226163934427 1.732781150200601e-05
77 1 37.77917901639345 4.857932524590165 5.0078254700998394e-05
78 1 41.14960786885246 5.64796262295082 3.787971959648395e-05
79 1 43.96028459016394 5.588331803278689 4.8220370425823644e-05
80 1 46.612568524590166 5.818725901639345 4.9748142362677255e-05
81 1 49.25344131147541 6.1847409836065586 9.322627586723477e-05
82 1 51.91971147540984 6.074769836065575 7.608527495754917e-05
83 1 54.50236721311476 5.908904262295082 2.173497747052089e-06
84 1 58.198367213114764 5.3974222950819675 9.524877280396478e-05
85 1 60.66287213114755 4.887702491803279 9.090687578231962e-05
86 1 62.190754098360664 4.845875081967214 4.686783367943461e-05
87 1 64.85924590163935 5.170007213114754 3.8922938552695446e-05
88 1 67.45048524590165 5.6228681967213126 3.6143640741825004e-05
89 1 70.19572459016395 5.66528131147541 2.85367452572072e-05
90 1 73.1156655737705 5.554098360655738 4.46947901280513e-05
91 1 75.83212459016394 5.561773114754099 4.6137370177670915e-05
92 1 78.24159344262296 6.692133114754099 8.654065755667864e-05
93 1 80.98531803278689 5.394746229508197 3.9507476877259794e-05
94 1 0.041988630163934434 7.508989508196723 5.69586189361057e-05
95 1 2.5647917377049185 7.51908786885246 1.3899080175391188e-05
96 1 5.154354754098361 7.54721180327869 9.844705176892023e-05
97 1 7.830975737704919 7.461678688524591 5.0519343619550716e-05
98 1 11.192265573770493 7.428808524590164 2.6554352132072758e-05
99 1 12.719945573770493 7.467232786885247 6.608926536124113e-05
100 1 15.37354229508197 7.465617049180328 4.6176805166281345e-05
101 1 18.02931016393443 7.516007868852459 3.5354806163652524e-05
102 1 20.601716065573775 7.744382295081968 6.292944887486667e-05
103 1 22.928580327868854 7.490358032786886 1.6557194833245028e-05
104 1 24.47499278688525 6.1686340983606565 7.617515909575273e-05
105 1 29.12463147540984 7.61608262295082 7.803017499925705e-05
106 1 31.77227016393443 7.873489836065574 4.3708959748936285e-05
107 1 34.22940327868853 7.7650334426229515 1.6862274441673064e-05
108 1 36.9900931147541 7.409773114754099 4.51460899047654e-05
109 1 39.19052590163935 8.434504262295082 9.996652044586746e-05
110 1 42.760144918032786 7.775434754098361 4.240974916537455e-06
111 1 45.309072131147545 8.022592131147542 8.83494829142524e-05
112 1 47.761913442622955 8.29908524590164 3.78909078675265e-05
113 1 50.48826885245902 8.39683737704918 5.865135323391621e-05
114 1 53.15423606557378 8.324533114754098 2.718189446690578e-05
115 1 55.78990819672131 8.282725901639346 5.449923508931186e-05
116 1 58.09536393442623 8.020219016393444 2.6237831577998972e-05
117 1 60.505337704918034 7.311112131147541 8.755164481118532e-05
118 1 63.4055868852459 7.261579672131148 9.21346062810916e-05
119 1 65.46110819672131 8.863432131147542 2.565609792002366e-05
120 1 68.32449836065575 7.9459455737704925 4.383558348541854e-05
121 1 71.89679344262296 7.711360655737706 4.33773696286206e-06
122 1 74.65415081967214 7.90060393442623 4.0921578900332846e-05
123 1 77.69830163934428 8.143873442622953 6.367618478740031e-05
124 1 80.26934426229509 7.747260327868854 5.788492462409815e-05
125 1 1.2363271475409838 9.921336393442624 9.674116827306181e-05
126 1 3.8295760655737707 9.902856393442624 6.192739069412713e-05
127 1 6.360704918032788 9.81641442622951 1.434788783574803e-05
128 1 8.923719344262295 10.100733770491804 2.548981070432599e-06
129 1 11.237102295081968 10.09240262295082 5.6173154711759346e-05
130 1 13.947552786885247 9.794702950819673 3.9180941609779454e-05
131 1 16.708495081967218 9.792380327868852 8.018614725642562e-05
132 1 19.434800000000003 9.946986229508196 8.743805860737153e-05
133 1 22.22194754098361 10.059078032786886 3.9486451880050855e-05
134 1 24.718262295081967 9.351940327868853 6.249206252562033e-05
135 1 27.4821331147541 9.553705573770491 8.626465966733439e-05
136 1 30.12017836065574 9.992832786885247 5.21147824160532e-05
137 1 32.79190163934426 10.263569836065576 1.2171712775039823e-05
138 1 35.70320852459017 9.843881967213115 4.1082976273245145e-05
139 1 38.481873442622955 9.774455737704919 2.5323457649793968e-05
140 1 40.49099278688525 9.220106229508199 6.124899993038423e-05
141 1 43.4758662295082 11.567571147540985 4.47113649915323e-05
142 1 46.27987803278689 10.617668852459017 9.897226192696727e-05
143 1 49.12857508196722 10.57944655737705 9.659701857329284e-06
144 1 51.88184262295083 10.635744918032788 1.1376343196950301e-05
145 1 54.52256393442624 10.594745573770494 3.911794475005074e-05
146 1 57.22488524590164 10.670079344262296 2.3622637211325282e-05
147 1 60.223593442622956 9.898615081967213 5.306752799543126e-05
148 1 62.784537704918044 10.47472655737705 9.242761542542507e-05
149 1 64.82693114754099 11.29319868852459 1.785202181061274e-06
150 1 67.70142950819672 10.277909508196721 2.0154977628856965e-05
151 1 69.51459016393444 8.931747540983606 7.403656968188925e-05
152 1 73.30652459016395 9.972181639344264 1.2915602036158814e-05
153 1 75.37668852459016 9.290794754098362 3.3473589786695335e-05
154 1 78.99695081967215 10.212371147540985 2.429112387986575e-05
155 1 81.428131147541 10.024996065573772 2.8750587928902615e-06
156 1 82.21479344262296 12.304145573770493 1.7788455031232499e-06
157 1 2.2711415081967212 12.238203278688525 9.691715201568309e-05
158 1 5.244836065573771 12.268548852459018 3.828111382084742e-05
159 1 7.842689836065575 12.269508196721313 5.677701251911259e-05
160 1 10.243625573770494 12.635624262295082 8.136637206377472e-06
161 1 12.722419672131148 12.219672786885248 8.382722053377907e-05
162 1 15.489723934426232 11.99937704918033 3.229569662193801e-05
163 1 18.219967213114757 12.089605901639345 4.571532413926067e-05
164 1 20.87134229508197 12.16605049180328 5.499904151147688e-05
165 1 23.549478032786887 12.111115409836067 1.955163666986297e-05
166 1 26.319710819672135 11.692841311475412 9.503188582935807e-06
167 1 28.986536393442627 12.056937704918035 9.680852226991222e-07
168 1 31.457453770491806 12.381347540983608 9.6357028711718e-05
169 1 33.57306032786885 11.585546229508198 1.1872344325785867e-05
170 1 37.21316590163935 11.93621180327869 8.037182333196855e-05
171 1 39.90210688524591 12.070822950819673 7.727130156104357e-06
172 1 42.53060918032787 12.822898360655739 5.2308456807280446e-05
173 1 45.28150360655738 13.061068196721312 3.074747536704314e-05
174 1 48.01785639344263 12.689448524590164 1.0797469673396998e-05
175 1 50.74981639344263 12.79785442622951 4.418293974595833e-05
176 1 53.454157377049185 12.89949442622951 3.2210673811598834e-05
177 1 56.075691803278694 12.844912786885246 2.5075053669254e-05
178 1 58.22411803278689 11.840428852459016 5.346560526428305e-05
179 1 62.02110163934427 11.862746229508197 1.9254914254569935e-06
180 1 64.11550163934427 12.624465573770493 9.93243248655479e-05
181 1 66.03267540983607 12.204323278688525 6.1779876617536366e-06
182 1 69.97709508196722 11.768225573770493 4.86510449296953e-06
183 1 71.49992786885247 11.814476065573773 8.116028828455751e-05
184 1 74.82077377049181 12.236385573770493 6.831777277742235e-05
185 1 78.12243278688526 12.348224918032788 5.919477231562984e-05
186 1 79.66798688524591 12.416136393442624 4.424942984541197e-05
187 1 0.97536531147541 14.447118688524592 4.339444197340097e-05
188 1 3.0795354754098363 13.534226885245904 3.866673905881442e-05
189 1 6.66244393442623 14.568955409836066 2.9073768111239087e-05
190 1 8.646468852459018 16.211554754098362 7.20195263755215e-05
191 1 11.834622295081969 14.85908131147541 4.1978728843226175e-06
192 1 14.424043934426232 14.264792786885247 7.451310702926269e-05
193 1 17.113893770491803 14.244141639344264 1.57514958918912e-05
194 1 19.797533114754103 14.403190819672133 1.8917621523091645e-05
195 1 22.319598688524593 14.413592131147542 1.36438391965381e-05
196 1 24.25010229508197 13.497519344262296 7.007476391229455e-05
197 1 27.522072131147546 15.434081967213116 2.847462067758091e-05
198 1 30.323761311475415 14.65009573770492 6.349242903773341e-05
199 1 33.14529377049181 14.494076065573772 1.5345957459976e-05
200 1 35.86983147540984 14.129777704918034 9.225628833108346e-05
201 1 38.5116131147541 14.228236721311477 6.713385497579911e-05
202 1 40.54835147540984 15.747131147540985 3.195323813385055e-05
203 1 42.91076196721312 14.317051803278689 9.19509377043898e-05
204 1 46.71855081967214 15.029137704918034 9.138582971055965e-05
205 1 49.43268721311476 14.951329836065575 1.5362768852591568e-05
206 1 52.282242622950825 15.086748852459017 2.0521185536581e-06
207 1 55.060806557377056 15.17637180327869 1.7674754107671863e-05
208 1 57.76363278688525 14.782232786885247 2.367442544315239e-05
209 1 60.35689180327869 14.138058360655739 1.9113002360696587e-05
210 1 62.8208918032787 14.751432786885246 7.297169961538395e-05
211 1 65.13139672131148 15.04160918032787 8.460114990160296e-05
212 1 67.70546885245903 14.696194754098363 3.991753181394204e-05
213 1 70.16340983606558 14.657619016393443 8.246701862885277e-05
214 1 72.17803278688525 13.201990819672131 4.4810120910002374e-05
215 1 75.43980327868853 14.803843278688525 8.17658792022578e-05
216 1 78.67632786885247 16.35747606557377 6.090990294067433e-05
217 1 81.10245901639345 14.758148196721313 2.4447210893112115e-05
218 1 0.3947646098360656 16.815840655737706 6.528268639083496e-05
219 1 2.908297573770492 16.356213770491806 5.2867813365593357e-05
220 1 4.825042163934427 17.90717049180328 9.278217692800611e-05
221 1 7.72888131147541 17.43320393442623 5.0272488108050095e-05
222 1 9.997831475409836 16.936364590163937 4.769829919733697e-05
223 1 13.523118688524592 16.794381639344266 5.793838444917431e-05
224 1 15.872855737704919 16.485674754098362 9.76599064059383e-05
225 1 18.59986754098361 16.56398754098361 4.747945110590291e-05
226 1 21.227713442622953 16.817809836065575 5.3248134810512616e-05
227 1 24.015214426229512 16.524200000000004 8.64380459751012e-05
228 1 26.782064262295084 16.798925901639347 3.469881979560884e-05
229 1 29.241620983606563 17.07703475409836 9.884590193478727e-06
230 1 31.724252459016398 16.786302950819675 2.9842899579217554e-05
231 1 35.480792131147545 16.33096786885246 9.766773140558604e-06
232 1 37.034626885245906 16.509506885245905 3.650632171534579e-05
233 1 39.72200262295082 17.04749704918033 2.4789147049628936e-05
234 1 42.39312000000001 17.12379016393443 1.9275942634102994e-05
235 1 45.09130098360656 17.115862950819672 7.854985450172048e-05
236 1 47.8193731147541 17.18488524590164 7.403170398619688e-05
237 1 50.50341639344263 17.058049836065575 9.538660533414072e-05
238 1 53.73943606557378 17.3335331147541 8.57740552054515e-05
239 1 56.511436065573776 17.27566950819672 1.4975785520564622e-05
240 1 59.81360000000001 16.68971213114754 7.420088413099068e-05
241 1 61.355114754098366 16.812104262295083 9.66871909428382e-05
242 1 64.02865573770492 17.410836065573772 4.7777111571279186e-05
243 1 67.22074754098361 16.976505573770496 5.785223690638002e-05
244 1 68.41134426229509 16.043366557377052 6.898473790637591e-05
245 1 71.87104262295084 16.201607868852463 2.527457517749997e-05
246 1 74.04420983606558 17.648955409836066 6.140044323380982e-05
247 1 76.2491868852459 16.098756065573774 7.102283128400455e-05
248 1 80.5344262295082 17.430477377049183 5.248956869409976e-05
249 1 1.7651278032786888 18.962600655737706 3.29951820151181e-05
250 1 4.221564131147541 19.333664918032788 2.458812662116117e-06
251 1 6.599884590163935 19.56370557377049 1.72961209541874e-05
252 1 8.594512786885247 18.686662950819677 7.57711436671891e-05
253 1 12.389527213114755 19.17693836065574 2.992905697316215e-05
254 1 15.22797442622951 19.054293770491807 2.4579908694622088e-05
255 1 17.793866885245905 19.636464262295085 6.911922889285228e-05
256 1 20.2003062295082 19.939112131147546 5.866194062449092e-05
257 1 22.828505573770492 18.890498360655737 8.336816998355733e-05
258 1 25.463773770491805 18.94124262295082 9.043279804886062e-07
259 1 27.973721311475416 19.38208655737705 8.144350304551373e-05
260 1 30.562739016393444 19.373048524590164 1.8018147988477117e-05
261 1 33.017902950819675 19.17047540983607 1.9512777803258574e-05
262 1 35.58374491803279 20.164154098360658 8.733930716615002e-05
263 1 38.308484590163935 19.11109704918033 6.663275829298017e-05
264 1 41.01903606557378 19.37754229508197 8.537415874472892e-05
265 1 43.802295737704924 19.394608524590165 2.304875167276277e-06
266 1 46.54874688524591 19.36365704918033 2.1349948279045795e-07
267 1 49.95734754098361 19.137150819672133 6.306271205085579e-05
268 1 51.2628131147541 18.36684786885246 5.390894599167518e-05
269 1 54.636170491803284 19.40980655737705 6.054604321498658e-06
270 1 57.2112524590164 19.86539409836066 5.43872323994635e-05
271 1 59.93074098360656 19.38834754098361 8.930932973260845e-05
272 1 62.76181639344263 19.376128524590165 8.224304662325443e-05
273 1 65.26267540983606 19.919874754098363 7.7870563004648e-06
274 1 67.79736393442624 19.609249180327872 2.3543398597075883e-05
275 1 70.63752786885247 18.94634229508197 9.675752046761633e-05
276 1 73.36812459016393 19.041165901639346 8.103845912454393e-05
277 1 75.90432786885248 19.005417704918035 6.76222783602871e-05
278 1 78.63643934426231 19.347651147540983 2.764830537162141e-05
279 1 0.2362248918032787 19.09645442622951 1.5576928455232253e-05
280 1 0.09097512131147542 21.743133770491806 2.9776889574645006e-05
281 1 2.797457967213115 21.612713442622955 6.649296231804417e-05
282 1 5.777575081967214 21.85229704918033 8.96980192057385e-05
283 1 8.52311737704918 21.531118688524593 4.4161431160861455e-05
284 1 11.098653770491804 21.254171147540983 2.9208127534930007e-05
285 1 13.145187540983608 20.52865442622951 9.329252252445062e-05
286 1 16.935910163934427 20.92087475409836 1.6640338151072586e-05
287 1 19.618337704918037 21.345056393442622 5.649458842132727e-06
288 1 21.687340327868853 21.479364590163936 4.1539792325477644e-05
289 1 24.106352131147542 21.2482131147541 6.72304518218459e-05
290 1 26.63013442622951 21.59115344262295 8.134300063913614e-06
291 1 29.33907016393443 21.77368131147541 2.266457010612667e-05
292 1 32.024224262295085 21.731722622950823 6.226172052936726e-05
293 1 34.85509770491804 21.516526557377052 3.155539804142171e-06
294 1 37.31889573770492 21.641746229508197 9.656073865897707e-05
295 1 39.793196065573774 21.522282622950822 8.108204664645294e-05
296 1 42.354089836065576 21.580348196721314 3.423278244826438e-05
297 1 45.861099016393446 21.45073573770492 5.435038078880672e-06
298 1 47.35459606557377 21.779740327868854 8.270269726448803e-05
299 1 49.82758360655738 21.9097062295082 2.733359680274321e-05
300 1 52.600340983606564 21.408878032786888 7.593402971280193e-05
301 1 55.31427540983607 21.84522819672131 2.2507766548353702e-05
302 1 57.88077377049181 21.24902098360656 5.136240128539188e-05
303 1 61.52426229508197 21.479011147540987 7.02602154676941e-05
304 1 63.92363278688526 22.04482229508197 1.3427315338902113e-05
305 1 66.890531147541 22.14196852459017 2.992842976407593e-05
306 1 69.49540327868853 21.4138262295082 1.7031417460400524e-05
307 1 72.02908196721312 21.30021967213115 8.991391013709612e-05
308 1 74.63799344262296 21.42463147540984 4.87225477338891e-05
309 1 77.20752131147542 21.3837331147541 6.104294837233863e-05
310 1 79.27920000000002 20.75349442622951 7.646405466634493e-05
311 1 1.3277425573770494 23.884541639344267 2.2115221296064803e-06
312 1 3.484383803278689 22.99957180327869 6.272313536340723e-05
313 1 7.4178518032786895 23.83960393442623 5.174125421469455e-05
314 1 10.143096393442624 23.71463672131148 8.738804113333877e-06
315 1 12.79017967213115 23.465005245901644 5.0688101884740356e-05
316 1 15.271851803278691 23.244810491803282 2.356537956543361e-05
317 1 17.93923278688525 23.278185573770493 6.51310809479011e-07
318 1 20.35885049180328 24.041924590163937 5.4216002169528714e-05
319 1 22.858548196721312 23.806481311475412 9.464643807113093e-05
320 1 25.026110819672134 24.94971672131148 3.0028882166268136e-05
321 1 27.913181639344266 23.99633049180328 5.899150025032783e-05
322 1 30.720071475409842 24.105392786885247 1.4146284351495408e-05
323 1 34.13331737704918 23.643392786885247 5.652061760587772e-05
324 1 35.63711475409836 23.949625573770494 2.6596977955523604e-05
325 1 38.74488524590164 24.010872131147543 9.822977573288544e-05
326 1 41.341224262295086 23.91130229508197 1.159857273441931e-05
327 1 43.59770295081968 24.126397377049184 4.230577247853714e-05
328 1 46.000052459016395 25.440850491803282 1.1559194808937635e-05
329 1 48.65268983606558 24.287769180327874 3.4225312321732826e-05
330 1 51.34561967213116 23.83137377049181 9.007016103467242e-05
331 1 54.047940983606566 23.797594754098363 3.6319469999976285e-05
332 1 56.20899016393443 23.076925245901645 4.395567669923276e-05
333 1 59.94740327868853 23.584418360655743 6.0928064709715996e-05
334 1 62.42453114754099 24.15578360655738 1.4822677005191299e-05
335 1 64.64718032786885 23.409615737704918 2.4298519850635504e-05
336 1 68.32298360655739 24.017385573770493 8.783107795552064e-05
337 1 70.80667540983607 23.7946662295082 1.919198032515258e-05
338 1 73.44689180327869 23.718171147540986 3.962600113892425e-05
339 1 76.14214426229508 23.764320655737706 6.974034820170085e-05
340 1 78.82123934426231 23.648744918032786 3.876885235466743e-05
341 1 81.42459672131149 23.981182950819672 3.4641982512213754e-05
342 1 0.2753873442622951 26.269925901639347 2.614062411191667e-05
343 1 2.9283074754098366 25.901133770491807 4.8142597988675674e-05
344 1 5.844123278688525 25.86594098360656 4.2801474934128984e-05
345 1 8.734880000000002 26.002975737704922 9.526730209618435e-05
346 1 11.510919344262296 25.922693770491808 7.428275033007354e-05
347 1 14.24853442622951 25.876948196721315 9.163742461602419e-05
348 1 17.537671475409837 25.205154754098363 2.464155420789138e-05
349 1 18.399869508196723 27.44880852459017 9.534432766947235e-05
350 1 21.281487213114758 26.371616393442626 7.332293401536126e-05
351 1 24.0626262295082 26.17207278688525 8.614843472782313e-05
352 1 26.554851147540987 26.302745573770494 8.796352286757907e-05
353 1 29.247680000000003 26.270077377049184 7.621546460950666e-05
354 1 32.105061639344264 26.59277049180328 3.5696875575668586e-06
355 1 34.539120000000004 26.195046557377054 6.546195775228396e-05
356 1 36.451951475409835 25.261958032786886 1.0054424024385578e-05
357 1 40.168400655737706 26.27209704918033 7.570405577409455e-05
358 1 42.625180327868854 26.554800655737708 6.727919040538414e-05
359 1 45.313313442622956 26.813924590163936 7.977879042009263e-06
360 1 47.78120131147542 26.853611147540988 5.329288002476319e-05
361 1 50.336238032786895 26.2840131147541 5.4330991942742474e-05
362 1 53.104249180327876 26.007015081967214 3.9592531114062706e-05
363 1 55.95350163934427 25.85463081967213 8.565651812420717e-05
364 1 58.606340983606565 25.629184918032788 3.2840336161297316e-05
365 1 61.108714754098365 27.13732459016394 4.15803222543732e-05
366 1 64.05743606557378 26.262907540983612 1.8223042706652394e-05
367 1 66.87437377049181 26.36873836065574 6.242825784802224e-05
368 1 69.39088524590164 26.34071540983607 6.029549788562231e-05
369 1 72.20024918032787 26.09083147540984 1.8838660863256895e-05
370 1 74.90812459016394 26.02418229508197 4.1417118250596875e-05
371 1 77.72859672131149 25.997017704918036 4.151582068756862e-05
372 1 80.35619016393443 26.13480983606558 2.6706227604161492e-05
373 1 1.7181502295081967 28.410626885245904 8.28820656538703e-05
374 1 4.386137114754099 27.916564590163937 7.1367770708813065e-06
375 1 7.243554098360656 28.01012590163935 7.747221444736637e-05
376 1 9.998588852459017 28.18906885245902 4.73416458134016e-05
377 1 12.695305573770494 28.192249836065574 2.1781002015797235e-05
378 1 15.335420983606559 28.391288524590166 1.1555691693635395e-05
379 1 17.866979016393444 28.895247213114757 5.127724260200742e-05
380 1 20.12997114754099 28.833596721311476 3.539740943788865e-05
381 1 22.74898098360656 28.514236065573773 5.461825582741382e-05
382 1 25.17137573770492 28.625923934426233 7.059139537238307e-05
383 1 27.763877377049184 28.49540262295082 4.533006134444462e-06
384 1 29.907102950819674 27.658248524590167 5.6704772241378027e-05
385 1 33.66137049180328 28.778257704918037 7.48399364299101e-05
386 1 36.885676065573776 28.034967868852462 9.639705679747835e-06
387 1 38.43279540983607 28.201489836065576 6.552424259454148e-05
388 1 41.06402426229509 28.825720000000004 9.701752603369577e-05
389 1 43.722518688524595 28.95159606557377 5.205609867503503e-06
390 1 46.316686557377054 29.250760000000003 4.7907913943372474e-05
391 1 49.408350163934436 28.868335081967217 1.4126963636827717e-05
392 1 52.004537704918036 28.292728524590167 3.354989547316052e-05
393 1 54.70231475409837 28.02547540983607 1.0708779879688447e-05
394 1 57.404636065573776 28.0950531147541 5.759355283210729e-05
395 1 60.54371147540984 28.579824918032788 2.052424374412222e-05
396 1 62.954190163934435 28.436175737704918 2.4043531416427878e-05
397 1 65.51664918032787 28.54826754098361 8.178269397598815e-05
398 1 68.23058360655739 28.88363409836066 3.5771974609245284e-05
399 1 70.84504918032788 28.370637377049185 8.342186468763196e-05
400 1 73.59735737704919 28.340544262295083 4.8102773431411196e-05
401 1 76.65817049180329 28.120500983606558 9.811108171522532e-05
402 1 79.35746229508199 28.379069508196725 3.860668135684947e-05
403 1 81.82954098360656 28.573765901639344 1.8997885147457894e-05
404 1 0.4518955803278689 30.91653508196722 6.470481788079477e-05
405 1 3.870156327868853 30.24847803278689 5.177017211299099e-05
406 1 5.378740327868853 29.979962622950822 1.5111757044946384e-05
407 1 8.149276065573773 30.2633731147541 4.4883881596895404e-05
408 1 11.288906885245904 30.498109508196723 3.967010685749772e-06
409 1 14.002285901639345 30.628277377049184 8.406105625214116e-05
410 1 16.325767213114755 31.01989180327869 8.155917809739084e-05
411 1 18.767399344262294 31.429733770491808 1.9669199013495852e-05
412 1 21.69057180327869 30.96919803278689 1.876392975120066e-05
413 1 24.23152131147541 31.014388196721313 1.734989342890043e-05
414 1 26.627003934426234 30.858923934426233 6.09357608457212e-05
415 1 29.257121967213116 30.53638229508197 1.7972033393661602e-05
416 1 31.973782950819675 30.7554662295082 8.547609691781201e-05
417 1 34.538160655737705 31.155159344262298 2.2593166253322373e-05
418 1 37.025639344262295 30.93264196721312 8.815029908762831e-05
419 1 39.72523409836066 30.83827278688525 3.345986738586868e-05
420 1 42.46542426229509 31.208428196721314 2.568211693265786e-05
421 1 45.17370360655738 31.41640393442623 6.7024416733422e-05
422 1 47.23498098360656 30.47013704918033 5.446090756792247e-05
423 1 50.902301639344266 30.822670819672133 8.803783792602839e-05
424 1 53.52030163934427 30.36496262295082 7.731184856425267e-05
425 1 56.045901639344265 30.29614229508197 1.6192876479051655e-06
426 1 58.17413114754099 29.441669508196725 5.0785593430005496e-05
427 1 61.6464524590164 30.923250491803284 2.1438168598499274e-05
428 1 64.03521967213115 30.81171409836066 2.7024865729764316e-05
429 1 66.14022295081968 29.961028196721315 5.7110492213289116e-05
430 1 69.85187540983607 30.885886557377052 4.0215360803970726e-05
431 1 72.4532131147541 30.51022754098361 1.2223594540071547e-05
432 1 74.42895737704919 29.634548196721315 1.4367578497518907e-05
433 1 77.77706885245902 31.695421639344268 2.9103923344338537e-06
434 1 80.55563278688525 30.95248524590164 9.463303527740833e-05
435 1 1.584821573770492 33.37811147540984 7.641281915299687e-05
436 1 4.05074531147541 32.927674098360654 7.199316701585347e-05
437 1 6.663150819672132 32.26471672131148 9.946314076456161e-05
438 1 8.92048786885246 31.58433967213115 1.5083948494179078e-05
439 1 12.39245573770492 32.76130360655738 2.2037915392739083e-05
440 1 14.889325901639346 33.35382491803279 4.4190405892341604e-05
441 1 17.51232459016394 33.66147147540983 7.001922710045688e-05
442 1 19.543963278688526 32.75388131147541 5.977418326875458e-05
443 1 22.45910754098361 34.706803278688525 7.222053031856713e-05
444 1 26.13698098360656 33.2794 7.103107159600308e-05
445 1 27.63199278688525 32.919847868852465 2.6331781973258406e-05
446 1 30.3150262295082 32.83249704918033 8.449060388309477e-05
447 1 33.06516327868852 33.285560000000004 8.608150576992578e-05
448 1 35.71593245901639 33.44910295081968 1.2712902234573476e-05
449 1 38.444862950819676 33.18543475409837 4.359547393815473e-05
450 1 41.12900721311476 33.27076590163935 3.0298314634874202e-05
451 1 43.937310819672135 33.59800327868853 5.663713328759378e-05
452 1 47.65492131147541 33.08652131147541 7.717725205735511e-05
453 1 49.225569836065574 33.03820065573771 6.102367672215187e-05
454 1 52.90531147540984 32.72020327868853 9.781971931758062e-05
455 1 54.42460983606558 32.65400852459016 3.417966769334882e-05
456 1 57.68436065573771 32.33591016393443 4.721113125318405e-05
457 1 60.22914754098361 32.870466885245904 8.719936874355887e-05
458 1 62.8436131147541 33.32534754098361 9.809888395397215e-05
459 1 65.51462950819672 32.87824262295082 9.837603429654258e-05
460 1 67.65699672131149 31.92929967213115 5.3897936305674854e-05
461 1 71.33835409836067 32.95923147540984 9.478731663945783e-05