ITEM: TIMESTEP
0
ITEM: NUMBER OF ATOMS
2232
ITEM: BOX BOUNDS xy xz yz pp pp pp
0.0 82.68810555352132 0
0.0 83.16 0
-10.0 10.0 0
ITEM: ATOMS id type x y z vx vy vz
1 1 1.379648131147541 0.9524672786885247 9.50094873999e-05 0.0 0.0 0.0
2 1 4.1067356721311485 0.9889375081967214 9.06349489433e-05 0.0 0.0 0.0
3 1 6.616395409836066 0.8936291803278689 9.35251640216e-05 0.0 0.0 0.0
4 1 9.356989508196722 0.6849415081967214 6.57922755347e-05 0.0 0.0 0.0
5 1 12.049111475409836 0.6213066885245903 7.9136515419e-05 0.0 0.0 0.0
6 1 14.69861836065574 0.6951660983606558 9.36725164256e-05 0.0 0.0 0.0
7 1 17.3944262295082 0.8922154098360656 8.7700015366e-05 0.0 0.0 0.0
8 1 20.155772459016397 1.0478260983606558 2.75714483154e-05 0.0 0.0 0.0
9 1 22.852034754098362 0.8087676065573771 7.64817538981e-05 0.0 0.0 0.0
10 1 25.090285901639348 2.1058212459016397 4.33033449348e-06 0.0 0.0 0.0
11 1 27.731916065573774 0.8392444590163936 9.93833794344e-06 0.0 0.0 0.0
12 1 30.610504262295084 0.44412489180327874 5.25661141772e-05 0.0 0.0 0.0
13 1 33.4890924590164 0.41527488524590167 4.1545397558e-05 0.0 0.0 0.0
14 1 36.26710098360656 0.2839507540983607 2.82039693801e-05 0.0 0.0 0.0
15 1 38.51878295081968 1.7237851147540986 4.70661317909e-05 0.0 0.0 0.0
16 1 41.43630032786886 1.1922982950819674 5.88383815137e-05 0.0 0.0 0.0
17 1 44.07288131147541 1.043589836065574 5.02253853789e-05 0.0 0.0 0.0
18 1 46.92718295081968 0.9953095737704919 6.30159941914e-05 0.0 0.0 0.0
19 1 49.78587737704918 0.8744120000000001 4.63768859336e-05 0.0 0.0 0.0
20 1 52.5644918032787 0.582811737704918 4.15058804008e-06 0.0 0.0 0.0
21 1 55.40667540983607 0.45796267540983615 9.66646772907e-05 0.0 0.0 0.0
22 1 58.2352262295082 0.8259398688524592 9.98016985222e-05 0.0 0.0 0.0
23 1 61.585357377049185 0.7704695737704919 5.71225424292e-05 0.0 0.0 0.0
24 1 63.12081311475411 0.7811990819672132 7.53536426408e-05 0.0 0.0 0.0
25 1 65.7236655737705 0.8430717377049182 6.0220029452e-05 0.0 0.0 0.0
26 1 68.3108655737705 0.9043889836065575 2.76445872894e-05 0.0 0.0 0.0
27 1 71.09952786885246 1.114692393442623 5.13432888185e-06 0.0 0.0 0.0
28 1 74.85662295081968 0.6544949508196722 7.03747439843e-05 0.0 0.0 0.0
29 1 76.38551475409837 0.6957417049180329 7.23375474317e-05 0.0 0.0 0.0
30 1 78.89394754098362 0.8435817049180329 5.24277160818e-05 0.0 0.0 0.0
31 1 81.4195475409836 0.8657274098360657 8.58973758884e-05 0.0 0.0 0.0
32 1 82.65457704918035 3.2414929836065576 1.13763204098e-06 0.0 0.0 0.0
33 1 2.6682746885245905 3.2236340327868858 1.04141546129e-05 0.0 0.0 0.0
34 1 5.30648655737705 3.4197694426229512 7.25049717193e-05 0.0 0.0 0.0
35 1 7.975230819672132 3.0253779672131147 7.69516598087e-05 0.0 0.0 0.0
36 1 10.6807331147541 2.952190098360656 8.39033220783e-05 0.0 0.0 0.0
37 1 13.301914098360657 3.0016569180327872 8.98020322107e-05 0.0 0.0 0.0
38 1 16.010496393442626 3.084973442622951 5.28164586614e-05 0.0 0.0 0.0
39 1 18.77694229508197 3.202119475409836 8.16548515236e-05 0.0 0.0 0.0
40 1 21.532229508196725 3.2284459016393448 5.44614795899e-05 0.0 0.0 0.0
41 1 24.273530491803278 3.4083582950819675 6.14997179008e-05 0.0 0.0 0.0
42 1 26.841240655737707 3.412104786885246 4.99066005855e-05 0.0 0.0 0.0
43 1 29.404558032786888 2.765996524590164 8.30635842595e-05 0.0 0.0 0.0
44 1 32.10470819672132 2.575359672131148 7.27095593459e-05 0.0 0.0 0.0
45 1 34.910588196721314 2.615000786885246 6.10548785326e-05 0.0 0.0 0.0
46 1 37.676125245901645 3.0159662950819675 3.46047185985e-05 0.0 0.0 0.0
47 1 40.30472852459017 3.3851270163934433 2.68956322109e-05 0.0 0.0 0.0
48 1 43.16094885245902 3.4144476065573777 1.6704993609e-05 0.0 0.0 0.0
49 1 45.75233967213115 3.2554640655737708 4.31985440892e-05 0.0 0.0 0.0
50 1 48.553170491803286 3.129608196721312 7.60094291591e-05 0.0 0.0 0.0
51 1 51.3476393442623 2.9819297704918037 1.99232626302e-05 0.0 0.0 0.0
52 1 53.97169836065574 2.690430491803279 8.37506580116e-05 0.0 0.0 0.0
53 1 56.55435409836066 2.8045924590163938 6.62001181791e-05 0.0 0.0 0.0
54 1 58.99916721311476 3.4248287213114756 8.97695603999e-05 0.0 0.0 0.0
55 1 61.60302950819673 3.4081765245901643 4.45005711051e-05 0.0 0.0 0.0
56 1 64.36947540983607 3.202099278688525 2.06661745318e-05 0.0 0.0 0.0
57 1 67.10007213114754 3.3103789508196724 2.42664741666e-05 0.0 0.0 0.0
58 1 69.6776786885246 3.1942629508196725 8.09030001287e-05 0.0 0.0 0.0
59 1 72.2997180327869 3.243290491803279 5.36598102728e-05 0.0 0.0 0.0
60 1 74.8480393442623 3.2119704262295086 1.41479205624e-05 0.0 0.0 0.0
61 1 77.48623606557378 3.2063102950819675 4.73858100656e-05 0.0 0.0 0.0
62 1 80.09110819672132 3.284532196721312 6.5540902545e-05 0.0 0.0 0.0
63 1 1.4754209836065575 5.494265573770493 5.07114162277e-06 0.0 0.0 0.0
64 1 3.734126360655738 6.846133114754099 9.63425880539e-05 0.0 0.0 0.0
65 1 7.551150163934427 5.329056393442623 5.3006074759e-05 0.0 0.0 0.0
66 1 9.106196721311477 5.233980327868853 3.91138539341e-05 0.0 0.0 0.0
67 1 11.803822295081968 5.332843278688525 7.75935453199e-05 0.0 0.0 0.0
68 1 14.56420918032787 5.327794098360656 4.85329263084e-05 0.0 0.0 0.0
69 1 17.339188196721313 5.37308524590164 8.98792968608e-05 0.0 0.0 0.0
70 1 20.13603016393443 5.470988852459017 4.2634810715e-06 0.0 0.0 0.0
71 1 22.812297704918034 5.577678032786886 2.04255399553e-05 0.0 0.0 0.0
72 1 25.45130229508197 5.762427540983607 9.42753681521e-05 0.0 0.0 0.0
73 1 28.15210885245902 5.3758622950819674 2.1227742166e-05 0.0 0.0 0.0
74 1 30.72936196721312 4.945434819672132 8.25981175428e-05 0.0 0.0 0.0
75 1 33.27430032786886 4.771106819672132 8.95710232742e-05 0.0 0.0 0.0
76 1 35.96011081967214 5.023237639344263 4.6098419261e-05 0.0 0.0 0.0
77 1 38.93321967213115 5.48280393442623 4.38700247705e-05 0.0 0.0 0.0
78 1 41.73359606557378 5.4851770491803284 4.15411414366e-05 0.0 0.0 0.0
79 1 44.416932459016394 5.766365901639345 1.42857339371e-05 0.0 0.0 0.0
80 1 47.42624393442624 5.418881311475411 7.34957206277e-05 0.0 0.0 0.0
81 1 50.214754754098365 5.28649180327869 6.42032712203e-06 0.0 0.0 0.0
82 1 53.50515409836066 5.00540393442623 7.41916517195e-05 0.0 0.0 0.0
83 1 55.04464918032787 5.099672131147542 9.95327185814e-06 0.0 0.0 0.0
84 1 57.46775081967214 5.488307540983607 7.71996943112e-06 0.0 0.0 0.0
85 1 60.225613114754104 5.729658360655738 2.06145196525e-06 0.0 0.0 0.0
86 1 62.90723278688525 5.526933770491803 9.02306285113e-05 0.0 0.0 0.0
87 1 65.4575737704918 5.530468196721312 4.09064801241e-07 0.0 0.0 0.0
88 1 69.22476721311476 5.477855737704918 5.83604697322e-05 0.0 0.0 0.0
89 1 71.72916065573772 5.325118032786886 3.52130041807e-05 0.0 0.0 0.0
90 1 73.25249836065575 5.523146885245903 6.85288459847e-05 0.0 0.0 0.0
91 1 75.97451147540984 5.540112131147541 2.67282560159e-05 0.0 0.0 0.0
92 1 78.68945573770493 5.621555409836066 3.81800099337e-05 0.0 0.0 0.0
93 1 81.42308196721312 5.676793442622952 3.12381628229e-05 0.0 0.0 0.0
94 1 82.68436721311477 7.902775081967214 7.03244619346e-06 0.0 0.0 0.0
95 1 2.8379776393442624 8.122818360655739 1.56811567582e-05 0.0 0.0 0.0
96 1 5.315322622950821 8.51614950819672 1.43403700052e-05 0.0 0.0 0.0
97 1 7.740696393442624 7.941552786885247 5.06585361261e-05 0.0 0.0 0.0
98 1 10.45397442622951 7.6213337704918045 4.0237030498e-05 0.0 0.0 0.0
99 1 13.177098360655739 7.580788852459017 5.12469804875e-06 0.0 0.0 0.0
100 1 15.909462295081969 7.575184262295083 5.25017481208e-05 0.0 0.0 0.0
101 1 18.679745573770496 7.617597377049181 3.15034269198e-05 0.0 0.0 0.0
102 1 21.522030163934428 7.847587540983607 6.12309912792e-05 0.0 0.0 0.0
103 1 24.118722622950823 8.006434754098361 4.50518642946e-05 0.0 0.0 0.0
104 1 26.84972327868853 7.806083278688526 6.16067417793e-05 0.0 0.0 0.0
105 1 29.59092327868853 7.482279344262295 9.9578662745e-06 0.0 0.0 0.0
106 1 31.9720662295082 7.242443278688525 3.17312962521e-05 0.0 0.0 0.0
107 1 34.528516721311476 7.13333049180328 7.83796566276e-06 0.0 0.0 0.0
108 1 36.55727737704918 6.444824262295082 5.73238741742e-06 0.0 0.0 0.0
109 1 40.0608531147541 7.564631475409836 8.95578473916e-05 0.0 0.0 0.0
110 1 42.70425049180328 7.833601311475411 8.56984273096e-05 0.0 0.0 0.0
111 1 45.15492065573771 7.14060131147541 5.95551808586e-05 0.0 0.0 0.0
112 1 48.77659672131148 7.520754098360657 9.10443412129e-05 0.0 0.0 0.0
113 1 51.21333114754099 7.837741639344263 7.31417367594e-05 0.0 0.0 0.0
114 1 53.63643278688525 7.810930491803279 8.80876202426e-05 0.0 0.0 0.0
115 1 56.27866885245902 7.788108196721312 6.79281784046e-05 0.0 0.0 0.0
116 1 58.80426885245902 7.795580983606558 5.40653244613e-05 0.0 0.0 0.0
117 1 61.46417704918033 7.89520131147541 4.83619043878e-05 0.0 0.0 0.0
118 1 63.91151475409837 7.924486557377049 7.35394861408e-05 0.0 0.0 0.0
119 1 66.27705573770493 8.020017049180328 3.92029720129e-05 0.0 0.0 0.0
120 1 68.85516721311475 7.901310819672132 8.75201401135e-05 0.0 0.0 0.0
121 1 71.42267540983607 7.612699672131148 1.50938377031e-05 0.0 0.0 0.0
122 1 74.28303606557378 7.769527213114755 4.89290277079e-05 0.0 0.0 0.0
123 1 77.1201704918033 7.866269508196722 2.34977484651e-05 0.0 0.0 0.0
124 1 79.86490491803279 7.9400885245901645 5.7615845659e-05 0.0 0.0 0.0
125 1 1.1814728524590163 10.193790163934427 9.52508967094e-05 0.0 0.0 0.0
126 1 4.197267475409837 10.693860983606559 8.54659757638e-05 0.0 0.0 0.0
127 1 6.852192131147541 10.606005245901642 2.60496253147e-05 0.0 0.0 0.0
128 1 9.323109508196723 10.069479344262295 7.67676436424e-05 0.0 0.0 0.0
129 1 11.966001967213115 9.883265573770494 3.64361352436e-05 0.0 0.0 0.0
130 1 14.562946885245902 9.844235409836067 5.53693373472e-05 0.0 0.0 0.0
131 1 17.224773770491804 9.817070819672132 3.56992127342e-05 0.0 0.0 0.0
132 1 19.941030819672132 9.850041967213116 7.63869676001e-06 0.0 0.0 0.0
133 1 22.777155409836066 10.342387540983607 9.49475621266e-05 0.0 0.0 0.0
134 1 25.8921462295082 10.117396065573772 3.37743024099e-05 0.0 0.0 0.0
135 1 28.664701639344266 9.78485704918033 2.09228872311e-05 0.0 0.0 0.0
136 1 31.014438688524592 9.853323934426232 7.94457541151e-05 0.0 0.0 0.0
137 1 33.47949901639345 9.522855081967213 8.19317785945e-06 0.0 0.0 0.0
138 1 36.041554098360656 9.367037377049181 3.59451418011e-05 0.0 0.0 0.0
139 1 38.49803081967213 9.658526557377051 8.274089765e-05 0.0 0.0 0.0
140 1 41.13309704918033 9.927193442622952 3.32451414484e-05 0.0 0.0 0.0
141 1 43.469706229508205 9.149468196721312 9.58526454799e-05 0.0 0.0 0.0
142 1 47.06568196721312 9.59960262295082 1.16294298375e-06 0.0 0.0 0.0
143 1 49.69160918032787 10.09285704918033 8.85781668637e-05 0.0 0.0 0.0
144 1 52.355960655737704 10.28916918032787 3.83679990803e-05 0.0 0.0 0.0
145 1 55.11432786885246 10.159758688524592 8.38830424734e-05 0.0 0.0 0.0
146 1 58.288242622950825 10.061956065573773 9.02842976506e-05 0.0 0.0 0.0
147 1 59.83531147540984 10.101390163934427 2.71046546747e-05 0.0 0.0 0.0
148 1 62.47451803278689 10.367986885245902 3.47132408115e-05 0.0 0.0 0.0
149 1 65.07131147540984 10.475988852459018 8.28743046192e-06 0.0 0.0 0.0
150 1 67.6832524590164 10.265589508196722 6.52982127482e-05 0.0 0.0 0.0
151 1 70.36992131147542 10.086141639344262 4.04660469699e-05 0.0 0.0 0.0
152 1 72.86674098360656 9.888466229508197 8.22406848104e-05 0.0 0.0 0.0
153 1 75.41910163934428 9.972939016393443 3.11913504186e-05 0.0 0.0 0.0
154 1 78.11536393442624 10.167887868852459 7.47459126733e-05 0.0 0.0 0.0
155 1 81.0928655737705 10.147388196721312 5.67478645849e-05 0.0 0.0 0.0
156 1 82.35465573770492 12.307982950819675 4.18919935102e-05 0.0 0.0 0.0
157 1 1.7195993442622952 11.639673442622954 2.94313546387e-05 0.0 0.0 0.0
158 1 5.309516065573771 12.913884590163935 6.31583124012e-06 0.0 0.0 0.0
159 1 8.245563934426231 12.742111475409837 9.1188842495e-05 0.0 0.0 0.0
160 1 10.859878032786886 12.29228 1.83871781253e-05 0.0 0.0 0.0
161 1 13.38769967213115 12.240121967213117 3.15888714697e-05 0.0 0.0 0.0
162 1 15.881843278688526 12.143985573770493 4.79092880857e-06 0.0 0.0 0.0
163 1 18.554879344262297 12.084556721311477 1.98229033874e-06 0.0 0.0 0.0
164 1 21.04962885245902 12.123182950819674 4.49691792331e-06 0.0 0.0 0.0
165 1 23.517213770491807 11.729498360655738 2.47969691072e-07 0.0 0.0 0.0
166 1 27.20119672131148 12.042446557377051 4.55582212294e-05 0.0 0.0 0.0
167 1 29.55068131147541 12.321262295081969 3.12892697912e-07 0.0 0.0 0.0
168 1 33.057740983606564 11.935201967213114 7.52712498203e-05 0.0 0.0 0.0
169 1 34.58299737704918 11.783676065573772 7.98535576275e-05 0.0 0.0 0.0
170 1 37.073758032786884 11.957822295081968 7.00097472272e-05 0.0 0.0 0.0
171 1 39.79304459016394 12.079709508196721 5.28970945365e-05 0.0 0.0 0.0
172 1 42.55923803278689 11.935656393442624 5.21993472866e-05 0.0 0.0 0.0
173 1 45.26125639344263 11.636038032786887 4.76193322833e-05 0.0 0.0 0.0
174 1 47.919498360655744 12.094907540983607 6.93890058793e-05 0.0 0.0 0.0
175 1 50.63015081967214 12.452944918032788 1.76047150445e-05 0.0 0.0 0.0
176 1 54.15397377049181 12.375641967213117 4.69675095377e-05 0.0 0.0 0.0
177 1 55.62328524590164 12.782908852459018 5.03579439198e-05 0.0 0.0 0.0
178 1 58.32459672131149 12.89293049180328 7.58051821536e-05 0.0 0.0 0.0
179 1 61.10215081967213 12.580133770491804 4.72854624515e-05 0.0 0.0 0.0
180 1 63.757009836065585 12.793108196721313 9.67261801813e-05 0.0 0.0 0.0
181 1 67.28386229508197 12.43936262295082 8.28753667111e-06 0.0 0.0 0.0
182 1 68.81679344262297 12.380236721311478 6.04548543545e-06 0.0 0.0 0.0
183 1 71.49235409836066 12.403109508196723 7.55352031197e-05 0.0 0.0 0.0
184 1 74.02552786885246 12.342872786885247 5.15573010071e-05 0.0 0.0 0.0
185 1 76.61727213114754 12.318788196721313 1.8713859508e-05 0.0 0.0 0.0
186 1 78.78892459016394 11.554493770491804 5.60425657544e-06 0.0 0.0 0.0
187 1 0.9595765245901641 14.55340393442623 8.91957425912e-05 0.0 0.0 0.0
188 1 3.605665114754099 14.769357377049182 3.64778963116e-05 0.0 0.0 0.0
189 1 5.966666885245902 14.28933180327869 8.26653576955e-05 0.0 0.0 0.0
190 1 9.556280655737707 14.787433442622952 7.67934995163e-05 0.0 0.0 0.0
191 1 12.127777704918035 14.680542295081969 2.34648788512e-05 0.0 0.0 0.0
192 1 14.763348852459018 14.639492459016395 7.58394824845e-05 0.0 0.0 0.0
193 1 17.399020983606558 14.375066885245902 6.26699697949e-05 0.0 0.0 0.0
194 1 20.0593331147541 14.490743606557379 8.84693542643e-05 0.0 0.0 0.0
195 1 22.636333770491806 14.28397967213115 6.23616877759e-05 0.0 0.0 0.0
196 1 25.211617704918034 14.24656524590164 4.4323093985e-05 0.0 0.0 0.0
197 1 27.722272131147545 14.615761311475412 5.05794438107e-05 0.0 0.0 0.0
198 1 30.28998229508197 14.653832131147544 3.67933357315e-06 0.0 0.0 0.0
199 1 32.97084459016394 14.677563278688526 4.03412530771e-05 0.0 0.0 0.0
200 1 35.64786950819672 14.316849836065575 4.91801719377e-05 0.0 0.0 0.0
201 1 38.40335868852459 14.273780327868854 4.6785785527e-05 0.0 0.0 0.0
202 1 41.089421639344266 14.221521311475412 5.24538320497e-05 0.0 0.0 0.0
203 1 43.68379147540984 14.056918032786886 9.48365726706e-05 0.0 0.0 0.0
204 1 46.29679278688525 14.147500327868855 8.01381474788e-06 0.0 0.0 0.0
205 1 48.917973770491805 14.488925901639345 7.67406584968e-05 0.0 0.0 0.0
206 1 51.47588852459017 14.999953442622951 7.06979711406e-05 0.0 0.0 0.0
207 1 53.98280655737705 14.974404590163935 7.75012511135e-05 0.0 0.0 0.0
208 1 56.145875409836066 14.242222950819674 3.97013051673e-05 0.0 0.0 0.0
209 1 59.83581639344263 14.916641967213117 8.12795231745e-05 0.0 0.0 0.0
210 1 62.397770491803286 15.01156655737705 6.25008081159e-06 0.0 0.0 0.0
211 1 64.9147868852459 15.28614098360656 3.85479027265e-05 0.0 0.0 0.0
212 1 67.30658360655738 15.044891147540985 4.02330608464e-05 0.0 0.0 0.0
213 1 70.02354754098361 14.680390819672132 4.2025657469e-05 0.0 0.0 0.0
214 1 72.67891147540985 14.800510819672132 7.40852766399e-05 0.0 0.0 0.0
215 1 75.4337442622951 14.69478098360656 6.78616784965e-05 0.0 0.0 0.0
216 1 78.20422950819672 14.445553442622952 6.7535287332e-05 0.0 0.0 0.0
217 1 80.93028196721312 14.447674098360658 3.47206195528e-05 0.0 0.0 0.0
218 1 82.3556655737705 16.79801704918033 7.30794194102e-05 0.0 0.0 0.0
219 1 2.361385508196722 16.972617704918036 7.11231780612e-05 0.0 0.0 0.0
220 1 5.087352131147541 17.000640655737705 7.29084311938e-06 0.0 0.0 0.0
221 1 7.8184537704918045 16.962064918032787 9.55746299153e-06 0.0 0.0 0.0
222 1 10.511636065573772 17.061129836065575 9.51618079184e-05 0.0 0.0 0.0
223 1 13.196032786885247 16.981706229508198 2.26493414673e-05 0.0 0.0 0.0
224 1 16.967619016393446 16.601300983606556 8.94557727677e-05 0.0 0.0 0.0
225 1 18.513021639344263 16.697740327868853 4.74895190073e-05 0.0 0.0 0.0
226 1 22.1253062295082 16.561059016393447 5.24891899913e-05 0.0 0.0 0.0
227 1 23.66020655737705 16.58428524590164 7.66658572609e-05 0.0 0.0 0.0
228 1 26.224028852459018 16.925306885245902 1.30138068369e-05 0.0 0.0 0.0
229 1 29.348916065573775 16.962519344262297 6.66973235321e-05 0.0 0.0 0.0
230 1 31.897540327868853 17.84294491803279 9.28829338459e-05 0.0 0.0 0.0
231 1 34.64353704918033 16.79518950819672 8.47043249335e-05 0.0 0.0 0.0
232 1 37.184284590163934 16.51309180327869 3.33905592786e-05 0.0 0.0 0.0
233 1 39.773908196721315 16.539801967213116 6.5523034642e-05 0.0 0.0 0.0
234 1 42.17938819672131 16.500216393442624 3.74344612247e-05 0.0 0.0 0.0
235 1 44.74381639344263 16.431194098360656 3.49918837143e-05 0.0 0.0 0.0
236 1 47.458760655737706 16.62902098360656 4.19056614049e-05 0.0 0.0 0.0
237 1 50.053382950819675 17.051384918032788 3.58912823021e-05 0.0 0.0 0.0
238 1 52.8724918032787 17.36766557377049 8.52609259371e-05 0.0 0.0 0.0
239 1 55.648531147540986 17.135958688524592 3.57750879046e-05 0.0 0.0 0.0
240 1 58.3235868852459 17.166102295081966 2.88552106545e-07 0.0 0.0 0.0
241 1 61.09053770491804 17.342924590163936 2.62582754777e-05 0.0 0.0 0.0
242 1 63.776196721311486 17.53201639344262 4.4568924935e-05 0.0 0.0 0.0
243 1 66.48811147540985 17.609016393442623 9.57871414306e-05 0.0 0.0 0.0
244 1 69.0424918032787 17.056686557377052 4.44412347393e-06 0.0 0.0 0.0
245 1 71.38884590163936 18.212746885245906 6.08346616746e-05 0.0 0.0 0.0
246 1 74.17750819672132 17.0008931147541 4.39087019948e-05 0.0 0.0 0.0
247 1 76.97424918032789 16.798875409836068 1.94764030975e-05 0.0 0.0 0.0
248 1 79.66899672131149 16.73687147540984 4.21651047284e-06 0.0 0.0 0.0
249 1 1.0750563278688525 19.187844590163937 5.51850452635e-05 0.0 0.0 0.0
250 1 3.744340852459017 19.27418557377049 2.69575193411e-05 0.0 0.0 0.0
251 1 6.366158032786886 19.27201442622951 6.64740016164e-05 0.0 0.0 0.0
252 1 8.95860918032787 19.30745967213115 9.81616998694e-05 0.0 0.0 0.0
253 1 11.559340983606559 19.28887868852459 5.48007655115e-05 0.0 0.0 0.0
254 1 14.110439344262296 19.330736393442624 6.8300080342e-05 0.0 0.0 0.0
255 1 16.65966950819672 19.160074098360656 6.23939463738e-05 0.0 0.0 0.0
256 1 19.44979606557377 19.1384131147541 1.37359625827e-06 0.0 0.0 0.0
257 1 22.115763278688526 19.144876065573772 4.59104119018e-05 0.0 0.0 0.0
258 1 24.806269508196724 19.129829508196725 1.68130240335e-05 0.0 0.0 0.0
259 1 26.98468786885246 18.303632131147545 4.44943328725e-05 0.0 0.0 0.0
260 1 30.95829180327869 19.053182950819675 1.9263844591e-05 0.0 0.0 0.0
261 1 33.65329180327869 19.266005901639346 1.42963525255e-05 0.0 0.0 0.0
262 1 36.82155147540984 18.842632131147543 4.50991881756e-05 0.0 0.0 0.0
263 1 38.35826950819673 18.87136196721312 9.81771910045e-05 0.0 0.0 0.0
264 1 40.737443278688524 19.020817704918034 7.77050839885e-05 0.0 0.0 0.0
265 1 43.22507344262295 18.826828196721316 5.25787256876e-06 0.0 0.0 0.0
266 1 45.90124 18.74573836065574 1.7687598227e-06 0.0 0.0 0.0
267 1 48.5092931147541 19.15694360655738 7.37224915878e-05 0.0 0.0 0.0
268 1 51.23352786885246 19.314478032786887 7.3687400784e-05 0.0 0.0 0.0
269 1 54.0853049180328 19.446362622950822 9.44786223977e-05 0.0 0.0 0.0
270 1 57.166819672131155 19.517455081967213 5.57954471394e-05 0.0 0.0 0.0
271 1 59.8600524590164 19.471558032786888 5.26476154069e-05 0.0 0.0 0.0
272 1 62.51996065573771 19.722855737704922 5.13007402383e-05 0.0 0.0 0.0
273 1 65.2465180327869 19.844692459016393 6.34097872284e-05 0.0 0.0 0.0
274 1 67.97560000000001 19.713262295081968 1.97343180121e-05 0.0 0.0 0.0
275 1 70.74053114754099 19.631667540983607 4.82244498645e-05 0.0 0.0 0.0
276 1 73.29592131147541 19.359466229508197 2.44069121826e-05 0.0 0.0 0.0
277 1 75.90836721311476 19.07191540983607 3.05194027537e-05 0.0 0.0 0.0
278 1 78.44860983606559 19.073076721311477 1.52514447759e-05 0.0 0.0 0.0
279 1 81.08731147540985 19.08443737704918 4.928496225e-05 0.0 0.0 0.0
280 1 82.44099672131149 21.452401967213117 2.5261253345e-05 0.0 0.0 0.0
281 1 2.459561770491803 21.563837377049182 7.15102144502e-05 0.0 0.0 0.0
282 1 5.065135737704918 21.65325836065574 2.72868586567e-05 0.0 0.0 0.0
283 1 7.606943606557378 21.681937704918035 1.79596937122e-05 0.0 0.0 0.0
284 1 10.220146885245903 21.6633062295082 3.17223978394e-05 0.0 0.0 0.0
285 1 12.844054426229508 21.678857704918034 2.50690223121e-05 0.0 0.0 0.0
286 1 15.440342950819673 21.58847737704918 5.78355727076e-05 0.0 0.0 0.0
287 1 18.214918032786887 21.294665573770494 1.59491912344e-05 0.0 0.0 0.0
288 1 20.85043868852459 21.405091147540986 3.31525516233e-05 0.0 0.0 0.0
289 1 23.518476065573772 21.479314098360657 8.74741924453e-06 0.0 0.0 0.0
290 1 26.568433442622954 21.25472655737705 2.04728225359e-06 0.0 0.0 0.0
291 1 29.24348918032787 21.04836655737705 1.1679985965e-05 0.0 0.0 0.0
292 1 31.880676065573777 21.324304262295083 3.20077704829e-05 0.0 0.0 0.0
293 1 34.538110163934434 21.70369967213115 5.03393466754e-05 0.0 0.0 0.0
294 1 36.893956721311476 21.76383540983607 8.63159112483e-05 0.0 0.0 0.0
295 1 39.456264262295086 21.520767868852463 3.8661961802e-05 0.0 0.0 0.0
296 1 42.068659672131155 21.374745573770493 1.72132477108e-05 0.0 0.0 0.0
297 1 44.76108459016394 21.032057704918035 1.22424667679e-05 0.0 0.0 0.0
298 1 47.16404000000001 22.291121311475415 2.50291445044e-05 0.0 0.0 0.0
299 1 49.93144524590164 21.467095081967216 4.27049876067e-05 0.0 0.0 0.0
300 1 52.650832786885246 21.454724590163938 5.03603952231e-05 0.0 0.0 0.0
301 1 54.9280131147541 20.729712786885248 7.49455175891e-05 0.0 0.0 0.0
302 1 58.50030819672132 21.759695081967216 1.5210569163e-05 0.0 0.0 0.0
303 1 61.0688262295082 21.9011731147541 2.74481387459e-05 0.0 0.0 0.0
304 1 63.82921311475411 22.055779016393444 6.22678212776e-05 0.0 0.0 0.0
305 1 66.54112786885247 22.081479344262295 6.23324272329e-05 0.0 0.0 0.0
306 1 69.25102295081967 21.96060196721312 2.21590983471e-05 0.0 0.0 0.0
307 1 72.96318032786886 21.589891147540985 1.08095304246e-05 0.0 0.0 0.0
308 1 74.49611147540985 21.494360655737708 2.77709504371e-05 0.0 0.0 0.0
309 1 77.07977704918032 21.482394098360658 1.85176506998e-05 0.0 0.0 0.0
310 1 79.74574426229509 21.423722622950823 9.19874266019e-05 0.0 0.0 0.0
311 1 1.0964446557377052 23.79461573770492 7.04405571959e-05 0.0 0.0 0.0
312 1 3.830888852459017 23.999259016393445 5.90655380512e-05 0.0 0.0 0.0
313 1 6.350253114754099 24.111502295081973 5.37085085048e-05 0.0 0.0 0.0
314 1 8.988853770491804 24.035512131147545 6.4734052274e-05 0.0 0.0 0.0
315 1 11.7194 23.990978360655742 2.50568455087e-05 0.0 0.0 0.0
316 1 14.349366557377051 23.95987540983607 4.69798384701e-05 0.0 0.0 0.0
317 1 17.009173770491802 23.55775868852459 6.33132437152e-05 0.0 0.0 0.0
318 1 19.7321462295082 23.62400393442623 7.01766359605e-06 0.0 0.0 0.0
319 1 22.167719344262295 23.706608524590166 7.08473987734e-05 0.0 0.0 0.0
320 1 24.325133114754102 22.806541639344264 5.5187405087e-05 0.0 0.0 0.0
321 1 27.961199344262297 23.471468196721315 9.5472671219e-05 0.0 0.0 0.0
322 1 31.164500327868854 23.327364590163935 4.18541325182e-05 0.0 0.0 0.0
323 1 32.6610268852459 23.648593442622953 4.27310876147e-05 0.0 0.0 0.0
324 1 35.22550557377049 24.167144262295086 5.02822213076e-05 0.0 0.0 0.0
325 1 37.96049508196722 24.05838491803279 6.99044896616e-05 0.0 0.0 0.0
326 1 40.988993442622956 23.845662950819673 5.99248662362e-05 0.0 0.0 0.0
327 1 43.7352931147541 23.457885901639344 9.86912309456e-05 0.0 0.0 0.0
328 1 46.48416786885246 23.658186885245904 4.51244804822e-05 0.0 0.0 0.0
329 1 49.04455672131148 23.844249180327868 7.09668107697e-05 0.0 0.0 0.0
330 1 51.61120655737705 23.65601573770492 1.41476171993e-05 0.0 0.0 0.0
331 1 54.31403278688525 23.516052459016393 4.79614518711e-05 0.0 0.0 0.0
332 1 56.88305573770492 23.87812918032787 3.96870373463e-05 0.0 0.0 0.0
333 1 59.45460327868853 24.191077377049183 5.27563638063e-05 0.0 0.0 0.0
334 1 62.13218360655738 24.17810098360656 3.99478536769e-05 0.0 0.0 0.0
335 1 64.88095737704919 24.361133770491808 5.68490232954e-05 0.0 0.0 0.0
336 1 67.87916065573772 24.35138885245902 5.76851086369e-05 0.0 0.0 0.0
337 1 70.52745573770493 24.300695081967216 3.20195352019e-05 0.0 0.0 0.0
338 1 72.98085245901639 24.12811409836066 5.0267561402e-05 0.0 0.0 0.0
339 1 75.6947868852459 23.871868196721316 2.6320685448e-05 0.0 0.0 0.0
340 1 78.36226885245902 23.771238032786886 7.79854751946e-05 0.0 0.0 0.0
341 1 81.0580262295082 23.733066229508196 8.22480112325e-05 0.0 0.0 0.0
342 1 82.34708196721313 26.023273442622955 4.39728444626e-05 0.0 0.0 0.0
343 1 2.3584620327868855 26.14738229508197 8.29704375577e-05 0.0 0.0 0.0
344 1 4.994583540983608 26.542581639344267 4.75091925994e-05 0.0 0.0 0.0
345 1 7.932110819672132 26.416503606557377 5.10410369721e-05 0.0 0.0 0.0
346 1 10.669877377049183 26.228977049180333 4.68562500567e-05 0.0 0.0 0.0
347 1 13.284746885245903 26.289971147540985 2.4034716716e-05 0.0 0.0 0.0
348 1 16.685016393442627 25.711284590163938 7.99335213682e-05 0.0 0.0 0.0
349 1 18.213150819672133 25.7689462295082 7.63789827982e-05 0.0 0.0 0.0
350 1 20.86588918032787 26.123853114754098 6.17943553358e-05 0.0 0.0 0.0
351 1 23.586942950819672 25.753293770491805 5.91500854032e-05 0.0 0.0 0.0
352 1 26.31759016393443 25.61772327868853 5.78640977613e-05 0.0 0.0 0.0
353 1 28.933217049180328 26.148341639344267 5.19807227002e-05 0.0 0.0 0.0
354 1 31.404386885245906 25.95980524590164 3.44299829796e-05 0.0 0.0 0.0
355 1 33.793961967213114 27.294505573770493 6.47488293514e-05 0.0 0.0 0.0
356 1 36.590702950819676 26.354348196721315 3.43860196067e-05 0.0 0.0 0.0
357 1 38.788358688524596 25.367738360655743 6.34484670106e-06 0.0 0.0 0.0
358 1 42.458304918032795 25.830293770491807 7.24735497208e-05 0.0 0.0 0.0
359 1 45.1483062295082 25.768037377049183 1.70739364495e-05 0.0 0.0 0.0
360 1 47.81159737704918 26.083560655737706 2.74812169878e-05 0.0 0.0 0.0
361 1 50.55794754098361 26.081086557377052 2.79749642784e-05 0.0 0.0 0.0
362 1 53.24916065573771 25.80040262295082 3.57344089454e-05 0.0 0.0 0.0
363 1 55.29205901639345 27.37801901639345 9.23751521279e-06 0.0 0.0 0.0
364 1 58.05194098360656 26.45760393442623 2.8142688677e-05 0.0 0.0 0.0
365 1 60.75678688524591 26.490474098360657 1.53305888387e-05 0.0 0.0 0.0
366 1 63.42376393442623 26.47083278688525 1.83177600322e-05 0.0 0.0 0.0
367 1 65.60400000000001 25.724260983606563 8.1743775473e-05 0.0 0.0 0.0
368 1 69.26819016393443 26.596961311475415 8.8283864026e-05 0.0 0.0 0.0
369 1 71.87760655737705 26.635537049180332 9.70006383665e-05 0.0 0.0 0.0
370 1 74.45672786885247 26.271390163934427 3.10481663501e-05 0.0 0.0 0.0
371 1 77.04746229508197 26.140919344262297 3.66117085844e-06 0.0 0.0 0.0
372 1 79.65990819672132 26.040693114754102 1.94614918104e-06 0.0 0.0 0.0
373 1 0.9788694426229508 28.34832 9.8577713989e-05 0.0 0.0 0.0
374 1 3.7161866229508203 28.62759016393443 7.60819040144e-05 0.0 0.0 0.0
375 1 5.661393442622952 27.96185573770492 5.83057453619e-05 0.0 0.0 0.0
376 1 9.528560655737706 28.51166098360656 5.89862853241e-05 0.0 0.0 0.0
377 1 12.150448524590164 28.588156065573774 9.21341127582e-05 0.0 0.0 0.0
378 1 14.637674754098363 28.715597377049182 8.52503387513e-05 0.0 0.0 0.0
379 1 17.14721836065574 28.160036065573774 8.33623434317e-05 0.0 0.0 0.0
380 1 19.569512131147544 29.31291540983607 2.98014986129e-05 0.0 0.0 0.0
381 1 22.26299737704918 28.22411016393443 9.89144827588e-05 0.0 0.0 0.0
382 1 24.932650491803283 27.976043934426233 8.88389622729e-05 0.0 0.0 0.0
383 1 27.66309573770492 28.186493770491808 5.0695814895e-05 0.0 0.0 0.0
384 1 30.362993442622955 28.503885245901643 3.28711061505e-06 0.0 0.0 0.0
385 1 33.139386229508204 28.691563278688527 8.11144709481e-05 0.0 0.0 0.0
386 1 35.70436983606558 28.744377704918037 2.99815179363e-05 0.0 0.0 0.0
387 1 38.461171803278695 28.258848524590167 1.02778573809e-05 0.0 0.0 0.0
388 1 41.12693704918033 28.160843934426232 7.1704245155e-05 0.0 0.0 0.0
389 1 43.75968065573771 28.04622754098361 7.82396408108e-05 0.0 0.0 0.0
390 1 46.47982557377049 28.18755409836066 1.17064626123e-05 0.0 0.0 0.0
391 1 49.108681311475415 28.28596262295082 5.15392504865e-06 0.0 0.0 0.0
392 1 51.87224918032787 28.198056393442627 1.50594349297e-07 0.0 0.0 0.0
393 1 54.51044590163935 28.72907868852459 3.72711035813e-05 0.0 0.0 0.0
394 1 56.96232786885246 28.967702950819675 9.08802349083e-05 0.0 0.0 0.0
395 1 59.60506885245903 28.766038688524592 4.05571863649e-05 0.0 0.0 0.0
396 1 62.33314098360656 28.765836721311477 6.44876346898e-06 0.0 0.0 0.0
397 1 65.05111475409836 28.60088 6.8485816476e-05 0.0 0.0 0.0
398 1 67.74535737704919 28.64551475409836 6.95297339714e-05 0.0 0.0 0.0
399 1 70.45828196721313 28.935640655737707 4.14937161403e-05 0.0 0.0 0.0
400 1 73.1656524590164 28.792546885245905 9.02173073075e-05 0.0 0.0 0.0
401 1 75.77860327868852 28.579622950819676 7.77315570007e-07 0.0 0.0 0.0
402 1 78.36327868852459 28.44536524590164 7.10505576198e-05 0.0 0.0 0.0
403 1 80.93280655737705 28.312319344262296 8.58618377816e-05 0.0 0.0 0.0
404 1 82.16026229508198 30.54511737704918 9.18379860856e-05 0.0 0.0 0.0
405 1 2.1974487213114755 30.679274098360658 2.85899311562e-05 0.0 0.0 0.0
406 1 5.347788852459017 30.99919016393443 8.23592110997e-06 0.0 0.0 0.0
407 1 8.070155409836067 30.544006557377053 8.83352840692e-05 0.0 0.0 0.0
408 1 10.916428852459017 30.86094360655738 5.06427424976e-05 0.0 0.0 0.0
409 1 13.561593442622954 31.06770754098361 3.22254065528e-06 0.0 0.0 0.0
410 1 16.213826885245904 30.763040000000004 3.74635294082e-05 0.0 0.0 0.0
411 1 18.92543868852459 30.710579016393446 4.29475924969e-05 0.0 0.0 0.0
412 1 21.275327213114757 30.79439540983607 6.56296934864e-05 0.0 0.0 0.0