ITEM: TIMESTEP
0
ITEM: NUMBER OF ATOMS
2232
ITEM: BOX BOUNDS xy xz yz pp pp pp
0.0 82.68810555352132 0
0.0 83.16 0
-10.0 10.0 0
ITEM: ATOMS id type x y z vx vy vz
1 1 1.111380131147541 0.4817160393442623 7.62097355603e-05 0.0 0.0 0.0
2 1 3.870060393442623 0.6365653114754098 9.00513717174e-05 0.0 0.0 0.0
3 1 6.512735737704919 0.6946510819672131 1.76032732444e-05 0.0 0.0 0.0
4 1 9.291047213114755 0.7423860327868853 9.72350786286e-05 0.0 0.0 0.0
5 1 11.93848393442623 0.801496786885246 5.03894862334e-05 0.0 0.0 0.0
6 1 14.664586885245903 0.7160091147540985 9.62353091254e-05 0.0 0.0 0.0
7 1 17.35847606557377 0.686032131147541 7.17531512541e-05 0.0 0.0 0.0
8 1 20.01247672131148 0.9590968524590165 2.39466093873e-05 0.0 0.0 0.0
9 1 22.67773704918033 0.9245958032786886 5.89798124823e-05 0.0 0.0 0.0
10 1 25.366880000000005 0.830216524590164 5.21030899842e-05 0.0 0.0 0.0
11 1 28.209820983606562 0.9932293114754099 7.03138621127e-05 0.0 0.0 0.0
12 1 31.60796983606558 0.8269598032786886 3.9148054455e-05 0.0 0.0 0.0
13 1 33.15367540983607 0.9355575737704919 8.35716080466e-05 0.0 0.0 0.0
14 1 35.88568590163935 1.0745362622950823 9.60894807812e-05 0.0 0.0 0.0
15 1 38.37296262295082 1.2251735081967214 4.70158050509e-05 0.0 0.0 0.0
16 1 41.02090426229508 1.0757531147540984 5.01095517502e-05 0.0 0.0 0.0
17 1 44.07919278688525 0.8640157377049181 8.20511626064e-05 0.0 0.0 0.0
18 1 46.84447737704918 0.7321563934426231 2.92652157183e-05 0.0 0.0 0.0
19 1 49.442129180327875 0.8512211147540985 3.93118151518e-05 0.0 0.0 0.0
20 1 52.09895737704919 0.911912262295082 7.9760868604e-05 0.0 0.0 0.0
21 1 54.83510819672132 0.7491165901639345 8.95586658466e-05 0.0 0.0 0.0
22 1 57.506124590163935 0.40865793442622955 8.52380653245e-06 0.0 0.0 0.0
23 1 59.98678688524591 1.6107491147540984 4.81962284581e-05 0.0 0.0 0.0
24 1 62.84866229508197 0.8890596721311476 5.76876137196e-05 0.0 0.0 0.0
25 1 65.55502295081968 0.8458437377049182 2.36148300135e-05 0.0 0.0 0.0
26 1 68.16847868852459 0.7927213114754099 1.57417626488e-05 0.0 0.0 0.0
27 1 70.78799344262296 0.6398977704918034 5.89289310576e-05 0.0 0.0 0.0
28 1 73.52818360655738 0.23293989508196722 1.95097175208e-05 0.0 0.0 0.0
29 1 76.29664918032788 0.3447444 4.31608537494e-05 0.0 0.0 0.0
30 1 78.79094426229508 0.4277004131147541 6.41376731595e-05 0.0 0.0 0.0
31 1 81.23424262295083 0.4132723803278689 5.28098357456e-05 0.0 0.0 0.0
32 1 82.35112131147542 2.818053573770492 9.08284338452e-05 0.0 0.0 0.0
33 1 2.3140645901639347 2.739947803278689 7.17891590338e-05 0.0 0.0 0.0
34 1 4.929312786885247 2.9716799344262297 3.80379444489e-05 0.0 0.0 0.0
35 1 7.683691147540984 2.8895600655737708 6.8790440372e-05 0.0 0.0 0.0
36 1 10.402321311475411 3.111966360655738 7.1547161484e-07 0.0 0.0 0.0
37 1 13.191337049180328 3.0369557377049183 2.05932026925e-05 0.0 0.0 0.0
38 1 15.963892459016396 3.012320786885246 5.19489689735e-05 0.0 0.0 0.0
39 1 18.65990229508197 3.1388633442622957 1.85508146494e-05 0.0 0.0 0.0
40 1 21.302239344262297 3.2535403278688526 4.3605288391e-05 0.0 0.0 0.0
41 1 23.806430819672133 3.1486840000000007 6.80148833169e-05 0.0 0.0 0.0
42 1 26.335969180327872 2.9900892459016393 7.37397170243e-06 0.0 0.0 0.0
43 1 29.073180327868855 3.5113060327868855 2.06504441113e-05 0.0 0.0 0.0
44 1 31.71137704918033 3.5821813770491806 1.81601939237e-05 0.0 0.0 0.0
45 1 34.45838360655738 3.2776097704918037 8.76698678767e-05 0.0 0.0 0.0
46 1 37.04881508196722 3.547493508196722 5.60473037199e-05 0.0 0.0 0.0
47 1 39.655151475409845 3.4058185573770494 9.10470363762e-05 0.0 0.0 0.0
48 1 41.7735855737705 2.4155581639344264 9.41115611232e-05 0.0 0.0 0.0
49 1 45.463779016393445 2.96596931147541 6.15936921949e-05 0.0 0.0 0.0
50 1 48.202454426229515 3.1500270819672136 5.8765407767e-05 0.0 0.0 0.0
51 1 50.71800655737705 3.2115816393442627 6.21343481317e-06 0.0 0.0 0.0
52 1 53.53746885245902 3.0959655081967217 7.04044352268e-05 0.0 0.0 0.0
53 1 56.23070163934427 2.9036068852459023 9.86110769076e-05 0.0 0.0 0.0
54 1 59.16074098360656 2.910908 9.80920521031e-05 0.0 0.0 0.0
55 1 61.82569836065574 3.2145808524590165 3.4394117849e-06 0.0 0.0 0.0
56 1 64.43057049180328 3.187194098360656 2.5747127375e-05 0.0 0.0 0.0
57 1 66.97687213114754 3.228940721311476 4.98432995317e-05 0.0 0.0 0.0
58 1 69.55548852459017 3.123988459016394 5.94982147583e-06 0.0 0.0 0.0
59 1 73.19594754098362 2.3068745573770495 3.49871110682e-05 0.0 0.0 0.0
60 1 74.72332459016395 2.4442930491803283 8.37238645212e-05 0.0 0.0 0.0
61 1 77.34081967213116 2.8142161967213117 7.77320531853e-05 0.0 0.0 0.0
62 1 79.85935081967214 2.8988202622950823 3.14667130305e-05 0.0 0.0 0.0
63 1 1.2133937704918034 5.054532459016394 7.86161846989e-05 0.0 0.0 0.0
64 1 3.7130763278688526 6.187013114754099 3.89161908745e-06 0.0 0.0 0.0
65 1 6.526015081967214 5.128452459016394 3.23503799184e-05 0.0 0.0 0.0
66 1 9.012988852459017 6.227507540983607 5.08561685202e-05 0.0 0.0 0.0
67 1 11.83028 5.311737704918033 6.03053880268e-05 0.0 0.0 0.0
68 1 14.604451147540985 5.256954098360656 4.44543845198e-05 0.0 0.0 0.0
69 1 17.383217049180328 5.366268852459017 2.27971873395e-05 0.0 0.0 0.0
70 1 20.078520000000005 5.531276065573771 4.12936950976e-05 0.0 0.0 0.0
71 1 22.656883934426233 5.639480000000001 3.43973695989e-05 0.0 0.0 0.0
72 1 24.98359672131148 5.453064262295082 8.34418447098e-05 0.0 0.0 0.0
73 1 27.48718229508197 5.349303606557378 9.21413001879e-05 0.0 0.0 0.0
74 1 29.718011147540988 4.902203737704919 5.51013667103e-05 0.0 0.0 0.0
75 1 33.32216655737705 5.635339672131148 3.43339391205e-05 0.0 0.0 0.0
76 1 35.88285836065574 5.742432786885246 7.42956354735e-05 0.0 0.0 0.0
77 1 38.54705836065574 5.786512131147542 6.93816697656e-05 0.0 0.0 0.0
78 1 41.159100327868856 5.357584262295082 8.27066016746e-05 0.0 0.0 0.0
79 1 43.588008524590165 4.967277573770493 9.49790108899e-05 0.0 0.0 0.0
80 1 46.305073442622955 5.171774426229509 6.50042097438e-06 0.0 0.0 0.0
81 1 49.31690950819673 5.643064918032787 3.93770944103e-05 0.0 0.0 0.0
82 1 52.024734426229514 5.32112918032787 2.72649291171e-05 0.0 0.0 0.0
83 1 54.72301639344263 5.3267842622950825 6.65570054512e-05 0.0 0.0 0.0
84 1 57.73737704918033 4.953054032786886 3.51101013556e-05 0.0 0.0 0.0
85 1 60.41142295081968 5.319361967213116 9.68978955238e-05 0.0 0.0 0.0
86 1 63.13343606557378 5.566468852459017 4.47678099464e-05 0.0 0.0 0.0
87 1 65.67317377049181 5.670330491803279 8.3782397368e-06 0.0 0.0 0.0
88 1 68.2760262295082 5.6239285245901645 5.18167549809e-05 0.0 0.0 0.0
89 1 71.59333770491804 5.2360504918032795 3.68890449398e-05 0.0 0.0 0.0
90 1 73.09496393442623 4.977588 3.3097177105e-05 0.0 0.0 0.0
91 1 75.80132459016394 4.948237114754098 7.47711562137e-05 0.0 0.0 0.0
92 1 78.48799344262297 5.303507540983607 7.16567039957e-05 0.0 0.0 0.0
93 1 81.19536393442624 5.3087081967213114 7.81276680707e-05 0.0 0.0 0.0
94 1 0.016965700327868857 7.489600655737705 5.9160082974e-05 0.0 0.0 0.0
95 1 2.851090360655738 7.477987540983607 2.59938467149e-05 0.0 0.0 0.0
96 1 5.504868852459017 7.580182950819673 2.50085150399e-06 0.0 0.0 0.0
97 1 8.275253114754099 7.576345573770493 6.90872873562e-06 0.0 0.0 0.0
98 1 10.75924786885246 7.712269508196722 2.52790780408e-05 0.0 0.0 0.0
99 1 13.334228852459017 7.50484918032787 3.43983663063e-05 0.0 0.0 0.0
100 1 16.03599475409836 7.5164118032786895 5.72461595132e-09 0.0 0.0 0.0
101 1 18.87979409836066 7.729436721311476 4.03529240985e-05 0.0 0.0 0.0
102 1 21.588679344262296 7.9618 8.86611068205e-05 0.0 0.0 0.0
103 1 24.320639344262297 8.043596721311477 6.09676052282e-05 0.0 0.0 0.0
104 1 26.805795409836065 7.673895737704918 2.38798875267e-05 0.0 0.0 0.0
105 1 29.140586885245906 8.862876721311476 8.39793658413e-06 0.0 0.0 0.0
106 1 31.920918032786886 7.9523075409836075 8.95835973856e-05 0.0 0.0 0.0
107 1 34.62328983606558 8.066822950819672 7.98715778401e-05 0.0 0.0 0.0
108 1 37.34818098360656 8.058744262295082 9.41118199154e-05 0.0 0.0 0.0
109 1 40.07488983606558 7.881921967213116 6.73100711987e-05 0.0 0.0 0.0
110 1 42.7321724590164 7.595784918032788 9.66477546121e-05 0.0 0.0 0.0
111 1 45.296651147540985 7.195889836065574 8.74885395634e-05 0.0 0.0 0.0
112 1 48.208816393442625 8.334681967213116 4.68749712841e-05 0.0 0.0 0.0
113 1 50.9396655737705 7.711613114754099 3.73080876998e-05 0.0 0.0 0.0
114 1 53.50767868852459 7.572003278688525 3.32187378134e-06 0.0 0.0 0.0
115 1 55.450603278688526 6.690618360655738 6.36096003465e-05 0.0 0.0 0.0
116 1 58.49778360655738 8.58552524590164 9.91450798683e-05 0.0 0.0 0.0
117 1 61.305632786885255 7.610780983606558 1.53105816673e-05 0.0 0.0 0.0
118 1 64.04935737704919 8.046373770491805 6.5205613874e-06 0.0 0.0 0.0
119 1 67.0172655737705 8.083182295081969 8.35331334726e-05 0.0 0.0 0.0
120 1 69.63072131147541 8.044808524590165 4.31006068337e-05 0.0 0.0 0.0
121 1 72.12249180327869 7.807749508196722 6.99861672168e-05 0.0 0.0 0.0
122 1 74.76270819672132 7.210936393442624 2.61943965101e-07 0.0 0.0 0.0
123 1 77.16157377049181 8.53513442622951 7.02894840824e-05 0.0 0.0 0.0
124 1 79.95982950819673 7.636329836065575 8.92928091636e-05 0.0 0.0 0.0
125 1 1.3211281311475411 9.693365901639346 3.06351059517e-05 0.0 0.0 0.0
126 1 3.9783501639344268 9.811718688524591 8.45830421483e-05 0.0 0.0 0.0
127 1 6.768830163934426 9.77713180327869 2.57527220096e-05 0.0 0.0 0.0
128 1 9.332248524590165 10.04620262295082 8.7398111793e-06 0.0 0.0 0.0
129 1 11.970546229508198 9.956983606557378 3.93857095827e-06 0.0 0.0 0.0
130 1 14.544315409836067 9.774708196721313 2.85110847103e-05 0.0 0.0 0.0
131 1 17.22563213114754 9.715986229508196 2.44579032862e-05 0.0 0.0 0.0
132 1 20.360365245901644 10.13012 2.99825925911e-05 0.0 0.0 0.0
133 1 23.178514754098366 10.28568524590164 6.75701825527e-05 0.0 0.0 0.0
134 1 26.619177704918034 10.041961311475411 3.04775564869e-05 0.0 0.0 0.0
135 1 28.184777049180333 10.070287213114756 4.6526040143e-05 0.0 0.0 0.0
136 1 30.749407213114758 10.41898360655738 7.44119950508e-05 0.0 0.0 0.0
137 1 33.407093770491805 10.300580327868854 1.91465388393e-05 0.0 0.0 0.0
138 1 36.10764786885246 10.322140327868855 8.14301834313e-05 0.0 0.0 0.0
139 1 38.86601508196722 10.226559344262297 1.67459048856e-05 0.0 0.0 0.0
140 1 41.63160262295083 10.044435409836067 5.06419243404e-05 0.0 0.0 0.0
141 1 44.371186885245905 9.749159344262296 4.1138722712e-05 0.0 0.0 0.0
142 1 47.29112786885246 9.595108852459017 6.86441262431e-05 0.0 0.0 0.0
143 1 49.87858032786885 10.13012 7.68433292048e-05 0.0 0.0 0.0
144 1 52.501377049180334 9.989348852459017 3.4441059834e-05 0.0 0.0 0.0
145 1 55.12796065573771 9.707049180327871 8.14503895422e-05 0.0 0.0 0.0
146 1 57.82371803278689 9.969101639344263 9.65701828318e-05 0.0 0.0 0.0
147 1 60.31851803278689 9.944007213114753 8.91098438439e-05 0.0 0.0 0.0
148 1 62.60024262295082 11.119102950819673 7.14725920196e-05 0.0 0.0 0.0
149 1 64.77744918032788 9.42055868852459 5.78729951131e-05 0.0 0.0 0.0
150 1 68.5608 10.355363934426231 4.60107380297e-05 0.0 0.0 0.0
151 1 71.11417049180328 10.316434754098362 5.71747591912e-05 0.0 0.0 0.0
152 1 73.80689836065574 9.805912131147542 5.05187099525e-05 0.0 0.0 0.0
153 1 76.50063606557377 9.934716721311476 3.18398052486e-05 0.0 0.0 0.0
154 1 78.94393442622952 10.087605901639344 4.72288117334e-05 0.0 0.0 0.0
155 1 81.48468196721312 9.853525901639346 3.23899692727e-05 0.0 0.0 0.0
156 1 0.13652731147540983 12.221339016393443 3.51233685437e-05 0.0 0.0 0.0
157 1 2.545968393442623 12.056230819672132 7.73604674712e-05 0.0 0.0 0.0
158 1 5.268971147540984 11.94196786885246 6.97513700821e-05 0.0 0.0 0.0
159 1 7.894696393442624 12.271982295081969 9.57122075231e-05 0.0 0.0 0.0
160 1 10.498508196721312 12.303034754098361 2.64712251526e-05 0.0 0.0 0.0
161 1 13.28287868852459 12.22113704918033 1.82319015063e-05 0.0 0.0 0.0
162 1 16.640078688524593 11.79564262295082 4.04337632172e-05 0.0 0.0 0.0
163 1 17.96160065573771 11.044880000000001 1.31165633787e-05 0.0 0.0 0.0
164 1 21.338997377049186 12.29384524590164 4.46295785062e-05 0.0 0.0 0.0
165 1 23.970882622950825 12.770487868852461 3.31580501386e-06 0.0 0.0 0.0
166 1 26.684615081967216 12.804973770491804 2.42732914187e-05 0.0 0.0 0.0
167 1 29.448839344262296 12.614771147540985 6.12657658182e-05 0.0 0.0 0.0
168 1 32.10172918032787 12.671725901639345 6.38953160463e-05 0.0 0.0 0.0
169 1 34.80849377049181 12.606692459016395 1.8906467351e-05 0.0 0.0 0.0
170 1 37.54363475409837 12.514241967213117 1.83617130051e-05 0.0 0.0 0.0
171 1 40.337598688524594 12.37321836065574 2.80997424269e-05 0.0 0.0 0.0
172 1 43.13640983606558 12.166656393442624 4.66222835932e-05 0.0 0.0 0.0
173 1 45.81040524590164 11.762217049180329 2.92087467219e-06 0.0 0.0 0.0
174 1 48.47475672131148 12.149186229508198 4.14277212523e-06 0.0 0.0 0.0
175 1 51.10830819672132 12.371400655737705 4.0032026666e-05 0.0 0.0 0.0
176 1 53.769731147540995 12.190185573770494 2.09426305331e-06 0.0 0.0 0.0
177 1 56.40136393442623 12.146257704918035 1.34505262668e-05 0.0 0.0 0.0
178 1 59.08045901639345 12.379630819672133 6.04987154189e-05 0.0 0.0 0.0
179 1 61.83478688524591 12.44638098360656 2.43586761588e-05 0.0 0.0 0.0
180 1 64.45430163934427 12.313688524590164 7.26802183206e-05 0.0 0.0 0.0
181 1 67.20711475409836 12.37740918032787 3.2239797451e-05 0.0 0.0 0.0
182 1 69.82864918032787 12.728579672131149 5.08729803488e-05 0.0 0.0 0.0
183 1 72.48906229508198 12.285413114754098 8.21439164905e-05 0.0 0.0 0.0
184 1 75.09090491803279 12.187560000000001 9.90890834974e-05 0.0 0.0 0.0
185 1 77.5968131147541 12.468294426229509 2.48076124884e-06 0.0 0.0 0.0
186 1 80.23601967213115 12.374430163934427 3.33158081768e-05 0.0 0.0 0.0
187 1 1.6612308196721313 14.634241311475412 2.77178002828e-05 0.0 0.0 0.0
188 1 4.212677573770492 14.180925901639345 8.40964772288e-06 0.0 0.0 0.0
189 1 6.432958688524591 15.56096786885246 6.75609242559e-05 0.0 0.0 0.0
190 1 9.07327606557377 14.647672131147543 8.5687145801e-05 0.0 0.0 0.0
191 1 11.691276065573772 14.422781639344263 9.52568615858e-05 0.0 0.0 0.0
192 1 14.316193442622952 14.539518688524591 9.0146577452e-05 0.0 0.0 0.0
193 1 16.80286426229508 14.59425180327869 2.86455318578e-05 0.0 0.0 0.0
194 1 19.532350163934428 14.351032786885247 5.64539263191e-05 0.0 0.0 0.0
195 1 22.314549508196723 14.746787540983608 1.89828927304e-05 0.0 0.0 0.0
196 1 24.622630819672132 14.153357377049181 6.91167575102e-05 0.0 0.0 0.0
197 1 28.268492459016397 14.913511475409837 1.5105252385e-05 0.0 0.0 0.0
198 1 30.76511016393443 14.978241967213116 6.50395894832e-05 0.0 0.0 0.0
199 1 33.40068131147542 14.923660327868854 1.24497582021e-05 0.0 0.0 0.0
200 1 36.19136327868853 14.83025049180328 7.84383450997e-06 0.0 0.0 0.0
201 1 38.89020065573771 14.65660918032787 2.84011896906e-05 0.0 0.0 0.0
202 1 41.73511081967214 14.483472786885248 8.8286955333e-05 0.0 0.0 0.0
203 1 45.345628196721314 14.059594098360659 6.21869237649e-05 0.0 0.0 0.0
204 1 46.88275016393443 14.19844655737705 2.94004522002e-05 0.0 0.0 0.0
205 1 49.52109836065574 14.568601967213116 9.05386166869e-06 0.0 0.0 0.0
206 1 52.272144262295086 14.579659672131148 2.6915128986e-05 0.0 0.0 0.0
207 1 54.98102950819673 14.516292459016395 7.09612023504e-05 0.0 0.0 0.0
208 1 57.663659016393446 14.566380327868854 9.96464806269e-05 0.0 0.0 0.0
209 1 60.346288524590165 14.649085901639346 3.0379062027e-05 0.0 0.0 0.0
210 1 62.963278688524596 14.685137049180328 5.50706058592e-05 0.0 0.0 0.0
211 1 65.67064918032789 14.555575081967215 3.65263580887e-05 0.0 0.0 0.0
212 1 68.28713442622951 14.929820327868853 9.29392747255e-05 0.0 0.0 0.0
213 1 71.98717377049181 14.622022295081969 2.99376947055e-05 0.0 0.0 0.0
214 1 73.5352524590164 14.56001836065574 2.8993906946e-05 0.0 0.0 0.0
215 1 76.10276065573773 14.7555731147541 2.78442357532e-05 0.0 0.0 0.0
216 1 78.83487213114755 14.759259016393445 2.36407899444e-05 0.0 0.0 0.0
217 1 81.61848524590164 14.6816531147541 2.09165923841e-05 0.0 0.0 0.0
218 1 0.2562534754098361 16.955753442622953 4.80591338772e-05 0.0 0.0 0.0
219 1 3.9424403934426233 16.561917377049184 2.87346076949e-05 0.0 0.0 0.0
220 1 5.49204393442623 16.769741639344264 2.2192388872e-05 0.0 0.0 0.0
221 1 8.10196524590164 17.237295737704923 1.11237196299e-05 0.0 0.0 0.0
222 1 10.719460327868854 16.819021639344264 8.81580626058e-05 0.0 0.0 0.0
223 1 13.278839344262297 16.725914754098362 4.18670102333e-05 0.0 0.0 0.0
224 1 15.504114098360656 18.139079344262296 4.27895699659e-05 0.0 0.0 0.0
225 1 18.16089180327869 16.754695081967213 9.40232101144e-05 0.0 0.0 0.0
226 1 21.030542950819676 16.683148196721312 1.67742754454e-05 0.0 0.0 0.0
227 1 23.98552524590164 16.885620327868857 8.71657301156e-05 0.0 0.0 0.0
228 1 26.722029508196723 17.133181639344265 7.34102094794e-05 0.0 0.0 0.0
229 1 29.35593442622951 17.39427475409836 1.38084874241e-05 0.0 0.0 0.0
230 1 31.884210491803284 17.292887213114756 7.67140648378e-05 0.0 0.0 0.0
231 1 34.550632131147545 17.05032459016394 9.12545035971e-05 0.0 0.0 0.0
232 1 37.607052459016394 17.055323278688526 1.09959018926e-05 0.0 0.0 0.0
233 1 40.23303016393443 16.70369836065574 7.7342814183e-05 0.0 0.0 0.0
234 1 42.80053836065574 16.814628852459016 5.00120838815e-05 0.0 0.0 0.0
235 1 45.3833455737705 16.71253442622951 6.30966589688e-05 0.0 0.0 0.0
236 1 48.04224393442624 16.731367868852463 7.77252976607e-05 0.0 0.0 0.0
237 1 50.772032786885255 16.824727213114755 9.40444996334e-05 0.0 0.0 0.0
238 1 53.53595409836066 16.82876655737705 8.24249478912e-05 0.0 0.0 0.0
239 1 56.26958032786886 16.847448524590167 5.62496188758e-05 0.0 0.0 0.0
240 1 58.9976524590164 16.914400655737705 2.53876279682e-05 0.0 0.0 0.0
241 1 61.733803278688534 17.015232786885246 7.30232483218e-05 0.0 0.0 0.0
242 1 64.39724590163935 16.853608524590168 4.51722880889e-05 0.0 0.0 0.0
243 1 66.44418360655737 18.245415081967213 5.78741717129e-05 0.0 0.0 0.0
244 1 69.21820327868853 17.36544393442623 1.29465552785e-05 0.0 0.0 0.0
245 1 71.89073442622951 17.214271475409838 5.08370286812e-06 0.0 0.0 0.0
246 1 74.67182295081969 17.09086950819672 4.86333951626e-05 0.0 0.0 0.0
247 1 77.36556065573771 17.044820983606556 2.25039982806e-05 0.0 0.0 0.0
248 1 80.17845901639345 16.945453114754102 8.018849657e-05 0.0 0.0 0.0
249 1 1.2582961311475411 19.348358032786887 8.54753855796e-05 0.0 0.0 0.0
250 1 3.7768323278688527 19.218291147540985 6.74374887395e-05 0.0 0.0 0.0
251 1 6.581101639344263 19.3317462295082 8.04884300929e-05 0.0 0.0 0.0
252 1 10.421811147540984 19.062725901639347 1.83746366973e-06 0.0 0.0 0.0
253 1 11.970748196721313 19.13543409836066 7.17015274999e-05 0.0 0.0 0.0
254 1 14.686348852459018 19.455451147540984 2.04104979669e-05 0.0 0.0 0.0
255 1 17.194024262295084 19.343813770491806 2.42872849451e-05 0.0 0.0 0.0
256 1 19.773044590163934 18.802440655737705 3.32406452487e-05 0.0 0.0 0.0
257 1 22.571350819672134 18.74922229508197 6.84161076064e-06 0.0 0.0 0.0
258 1 25.3069462295082 19.289686557377053 7.93484758171e-05 0.0 0.0 0.0
259 1 27.86980918032787 19.633990163934428 4.95981497576e-07 0.0 0.0 0.0
260 1 30.68497967213115 19.801168524590167 9.31162165669e-05 0.0 0.0 0.0
261 1 34.04435081967213 19.234095081967215 8.31369190985e-05 0.0 0.0 0.0
262 1 35.30846360655738 18.37108918032787 9.31621725749e-06 0.0 0.0 0.0
263 1 38.942661639344266 19.161639344262298 1.71992875459e-05 0.0 0.0 0.0
264 1 41.440642622950826 19.099988852459017 4.65316369042e-05 0.0 0.0 0.0
265 1 44.06520655737705 19.084083934426232 2.28979510119e-05 0.0 0.0 0.0
266 1 46.64952852459017 19.086204590163938 8.76975588012e-05 0.0 0.0 0.0
267 1 49.339428852459015 19.064796065573773 3.25525250098e-05 0.0 0.0 0.0
268 1 52.12016393442623 19.065957377049184 3.39326849688e-05 0.0 0.0 0.0
269 1 54.8588393442623 19.100998688524594 8.99760717606e-05 0.0 0.0 0.0
270 1 57.58539672131148 19.148612459016395 5.21323370318e-05 0.0 0.0 0.0
271 1 60.324577049180334 19.22803606557377 6.7353630328e-05 0.0 0.0 0.0
272 1 63.035986885245904 19.282264262295083 4.29343055778e-05 0.0 0.0 0.0
273 1 65.67519344262296 19.582589508196726 4.82388742672e-05 0.0 0.0 0.0
274 1 68.05386229508198 19.799754754098362 2.18254495898e-05 0.0 0.0 0.0
275 1 70.5516918032787 19.560979016393446 2.9460177485e-06 0.0 0.0 0.0
276 1 73.25603278688526 19.432881311475413 8.58970268986e-07 0.0 0.0 0.0
277 1 76.17597377049181 19.417582295081967 3.66949602974e-05 0.0 0.0 0.0
278 1 78.83891147540984 19.18607737704918 6.10065669076e-05 0.0 0.0 0.0
279 1 81.39228196721312 19.189813770491806 8.7879315946e-05 0.0 0.0 0.0
280 1 82.55611803278688 21.64346295081967 1.32193728194e-05 0.0 0.0 0.0
281 1 2.486332524590164 21.67486885245902 6.71006152252e-05 0.0 0.0 0.0
282 1 5.090381639344263 21.47623409836066 4.89372446737e-05 0.0 0.0 0.0
283 1 7.697071475409836 21.687087868852462 4.28817355827e-05 0.0 0.0 0.0
284 1 10.227872131147542 21.540257704918034 6.47990568651e-05 0.0 0.0 0.0
285 1 13.0677331147541 21.59206229508197 5.4895361575e-05 0.0 0.0 0.0
286 1 16.218421639344264 21.791201967213116 7.43148290645e-05 0.0 0.0 0.0
287 1 18.879844590163938 21.32561704918033 3.06140605681e-05 0.0 0.0 0.0
288 1 21.437203934426233 20.873160000000002 4.83874131467e-06 0.0 0.0 0.0
289 1 23.333070163934426 22.388318032786888 2.10463035027e-05 0.0 0.0 0.0
290 1 26.252910163934427 21.89890098360656 5.86202679327e-05 0.0 0.0 0.0
291 1 29.06262754098361 21.944949508196725 1.20297385242e-05 0.0 0.0 0.0
292 1 31.860176393442625 22.192965245901643 2.29192290092e-05 0.0 0.0 0.0
293 1 34.55871081967213 21.936416393442627 2.49071378927e-05 0.0 0.0 0.0
294 1 37.40114688524591 21.313751475409838 3.55696178774e-05 0.0 0.0 0.0
295 1 40.28549114754099 21.53354229508197 5.6571957705e-05 0.0 0.0 0.0
296 1 42.934947540983615 21.37570491803279 4.71803502445e-05 0.0 0.0 0.0
297 1 45.17218885245902 22.574632786885246 2.03356719846e-05 0.0 0.0 0.0
298 1 47.96428459016394 21.40615147540984 5.08336261788e-05 0.0 0.0 0.0
299 1 50.79778360655738 21.28678885245902 7.12150752481e-05 0.0 0.0 0.0
300 1 53.504144262295085 21.343945573770494 6.12891967532e-05 0.0 0.0 0.0
301 1 56.17516065573771 21.393629508196724 1.45162793556e-05 0.0 0.0 0.0
302 1 58.87697704918033 21.44265704918033 9.80068478798e-05 0.0 0.0 0.0
303 1 61.60302950819673 21.546367213114756 9.89798546081e-05 0.0 0.0 0.0
304 1 64.23264262295082 21.768177704918035 5.25299383125e-05 0.0 0.0 0.0
305 1 66.74814426229509 22.169335081967215 3.44412237138e-05 0.0 0.0 0.0
306 1 69.26061639344263 22.06471606557377 8.79006777039e-05 0.0 0.0 0.0
307 1 71.90184262295082 21.720765901639346 6.08680919792e-05 0.0 0.0 0.0
308 1 73.96746229508197 20.811358032786888 1.51653542793e-05 0.0 0.0 0.0
309 1 77.5084524590164 21.579035409836067 2.69980834595e-05 0.0 0.0 0.0
310 1 80.00628196721313 21.58196393442623 3.68481911793e-05 0.0 0.0 0.0
311 1 1.1079315409836066 23.990069508196722 1.79496066827e-05 0.0 0.0 0.0
312 1 3.786759016393443 23.912463606557377 3.74990141236e-05 0.0 0.0 0.0
313 1 6.449721967213115 23.904485901639347 6.83704027853e-05 0.0 0.0 0.0
314 1 9.157193442622951 23.977345573770496 4.55807626484e-05 0.0 0.0 0.0
315 1 11.796450491803279 23.68560393442623 3.84977430202e-05 0.0 0.0 0.0
316 1 13.896556065573773 22.907878688524594 1.57483011052e-05 0.0 0.0 0.0
317 1 17.832695081967213 23.766996721311475 9.52908480564e-05 0.0 0.0 0.0
318 1 20.544155409836065 23.39310491803279 5.8888206682e-05 0.0 0.0 0.0
319 1 22.77357049180328 24.679989508196723 8.4433341496e-05 0.0 0.0 0.0
320 1 25.11406754098361 25.270693114754103 2.23374988958e-05 0.0 0.0 0.0
321 1 27.827749508196725 24.16694229508197 3.84526769843e-05 0.0 0.0 0.0
322 1 30.410203278688527 24.273379016393445 6.44228816324e-05 0.0 0.0 0.0
323 1 33.114948196721315 24.36628393442623 7.30105114514e-05 0.0 0.0 0.0
324 1 37.183173770491805 23.464247868852464 6.44038244911e-05 0.0 0.0 0.0
325 1 38.748621639344265 23.507317377049183 3.89685352194e-05 0.0 0.0 0.0
326 1 41.58762426229509 23.811429508196724 8.31247126083e-05 0.0 0.0 0.0
327 1 44.33740786885246 23.888429508196726 3.38746118992e-05 0.0 0.0 0.0
328 1 46.87411606557377 23.852883278688527 1.17639596191e-05 0.0 0.0 0.0
329 1 49.71013967213115 23.47500262295082 3.72066465923e-05 0.0 0.0 0.0
330 1 52.28729180327869 23.596990819672133 2.32786253258e-05 0.0 0.0 0.0
331 1 54.84672131147541 23.68762360655738 8.31623880669e-05 0.0 0.0 0.0
332 1 57.45260327868853 23.702872131147544 3.14919074177e-05 0.0 0.0 0.0
333 1 60.13270819672132 23.750889836065575 6.96429955351e-05 0.0 0.0 0.0
334 1 62.877442622950824 23.997037377049185 2.88142085885e-05 0.0 0.0 0.0
335 1 65.45050491803279 24.370070819672133 4.02500182535e-05 0.0 0.0 0.0
336 1 68.10940327868853 24.534775081967215 2.74083870103e-05 0.0 0.0 0.0
337 1 70.77587540983608 24.147805901639348 1.03978392484e-05 0.0 0.0 0.0
338 1 73.43073442622952 23.780276065573773 7.51881849787e-05 0.0 0.0 0.0
339 1 75.93159344262295 23.78875868852459 5.49025892236e-05 0.0 0.0 0.0
340 1 78.5208131147541 23.991887213114754 1.37881602318e-05 0.0 0.0 0.0
341 1 81.14133770491804 23.997744262295083 7.26572052324e-05 0.0 0.0 0.0
342 1 82.41575081967214 26.30491672131148 8.27301103876e-05 0.0 0.0 0.0
343 1 2.4489332459016393 26.237661639344264 3.30694521562e-06 0.0 0.0 0.0
344 1 5.191819672131149 26.19741967213115 4.8016013626e-05 0.0 0.0 0.0
345 1 7.957104262295083 26.176920000000003 4.90647662014e-05 0.0 0.0 0.0
346 1 10.771719344262296 26.102040655737706 9.40453364031e-05 0.0 0.0 0.0
347 1 13.517615081967215 25.813681967213117 3.67632079783e-05 0.0 0.0 0.0
348 1 16.23351868852459 25.833373770491804 2.84127088358e-05 0.0 0.0 0.0
349 1 19.03904524590164 25.82171016393443 3.08548214014e-05 0.0 0.0 0.0
350 1 21.909908196721315 25.971721311475413 9.64481761927e-06 0.0 0.0 0.0
351 1 24.293929180327872 26.560556721311478 3.66137586409e-05 0.0 0.0 0.0
352 1 26.619632131147544 26.656137704918034 6.08738257127e-05 0.0 0.0 0.0
353 1 29.18027344262295 26.616956065573774 2.65184060955e-05 0.0 0.0 0.0
354 1 31.933692459016395 26.5751993442623 2.38927742567e-05 0.0 0.0 0.0
355 1 34.073484590163936 25.569049180327873 2.40990750718e-05 0.0 0.0 0.0
356 1 37.613616393442626 26.293455081967217 9.36670437107e-05 0.0 0.0 0.0
357 1 40.18521442622951 25.87093967213115 2.59510961909e-06 0.0 0.0 0.0
358 1 42.937926557377054 26.174900327868855 5.78958615467e-05 0.0 0.0 0.0
359 1 45.730375737704925 26.257151475409838 8.77128971615e-05 0.0 0.0 0.0
360 1 48.523430819672136 25.691289836065575 2.17239197655e-05 0.0 0.0 0.0
361 1 51.11689180327869 25.904617704918035 2.75171491122e-05 0.0 0.0 0.0
362 1 53.562209836065584 26.04503540983607 8.90422004297e-05 0.0 0.0 0.0
363 1 56.13072786885247 26.061748196721314 7.7997917275e-05 0.0 0.0 0.0
364 1 58.67046557377049 26.015800655737706 2.29091036608e-05 0.0 0.0 0.0
365 1 61.34400655737705 26.078763934426235 3.48256847049e-05 0.0 0.0 0.0
366 1 63.965540983606566 26.55934491803279 2.60733617965e-05 0.0 0.0 0.0
367 1 66.67291147540985 26.796706885245904 5.26807560747e-05 0.0 0.0 0.0
368 1 70.378 26.378634754098364 9.34904669439e-06 0.0 0.0 0.0
369 1 71.91749508196722 26.216808524590167 5.35764111518e-05 0.0 0.0 0.0
370 1 74.48348852459017 26.250688524590167 7.76901931642e-05 0.0 0.0 0.0
371 1 77.08937049180328 26.277752131147544 6.04107132038e-06 0.0 0.0 0.0
372 1 79.73261639344264 26.338998688524594 5.4779596365e-05 0.0 0.0 0.0
373 1 1.108224393442623 28.52433442622951 4.80050377291e-05 0.0 0.0 0.0
374 1 3.886323803278689 28.440972459016397 8.79451096971e-05 0.0 0.0 0.0
375 1 6.658404590163935 28.38528 9.07509476378e-06 0.0 0.0 0.0
376 1 9.431717377049182 28.29252655737705 4.6831743474e-05 0.0 0.0 0.0
377 1 12.250220327868854 28.19356262295082 4.1053149315e-05 0.0 0.0 0.0
378 1 14.93996918032787 28.14625180327869 2.03669849272e-05 0.0 0.0 0.0
379 1 17.465064262295083 28.03774491803279 5.33241216363e-05 0.0 0.0 0.0
380 1 20.18758229508197 27.987152131147543 8.70541307824e-05 0.0 0.0 0.0
381 1 22.682230819672135 28.675708852459017 9.96327663373e-05 0.0 0.0 0.0
382 1 25.195813770491803 29.08651016393443 9.23382301604e-05 0.0 0.0 0.0
383 1 27.802150163934428 28.960533114754103 3.73388593909e-05 0.0 0.0 0.0
384 1 29.86766885245902 27.996644590163935 2.61732975303e-05 0.0 0.0 0.0
385 1 33.532363934426236 28.473792131147544 4.46766457097e-05 0.0 0.0 0.0
386 1 36.093106229508194 28.645918688524596 9.74334812541e-05 0.0 0.0 0.0
387 1 39.14952655737705 28.424007213114756 4.24578327166e-05 0.0 0.0 0.0
388 1 41.7119855737705 28.202651147540987 9.59116529203e-05 0.0 0.0 0.0
389 1 43.681620327868856 27.560092459016396 3.69013310277e-05 0.0 0.0 0.0
390 1 47.51228196721312 27.95751344262295 9.71436807359e-05 0.0 0.0 0.0
391 1 49.50140655737705 29.356237377049183 2.92027506251e-05 0.0 0.0 0.0
392 1 52.23780983606558 28.451777704918037 5.11992468049e-05 0.0 0.0 0.0
393 1 54.861868852459025 28.445769180327872 6.64035384133e-05 0.0 0.0 0.0
394 1 57.485927868852464 28.447132459016395 3.06615640691e-06 0.0 0.0 0.0
395 1 60.10998688524591 28.31418754098361 2.71309800954e-05 0.0 0.0 0.0
396 1 62.33465573770492 29.726796721311477 8.22369631607e-05 0.0 0.0 0.0
397 1 65.12836721311476 28.98022491803279 8.30202531428e-05 0.0 0.0 0.0
398 1 67.7372786885246 29.185322622950824 7.32547402406e-05 0.0 0.0 0.0
399 1 70.31640000000002 28.971035409836066 1.35674714844e-05 0.0 0.0 0.0
400 1 73.08537049180329 28.667529180327872 4.00936488719e-05 0.0 0.0 0.0
401 1 75.75638688524592 28.656269508196726 5.3839300492e-05 0.0 0.0 0.0
402 1 78.38448524590164 28.657430819672133 1.36826938134e-05 0.0 0.0 0.0
403 1 81.05499672131148 28.619713442622952 3.3490774816e-05 0.0 0.0 0.0
404 1 82.4788655737705 30.811461639344266 8.39959420667e-05 0.0 0.0 0.0
405 1 2.605185180327869 30.67069049180328 5.38950385541e-05 0.0 0.0 0.0
406 1 5.367127213114754 30.606818360655744 1.0665932039e-05 0.0 0.0 0.0
407 1 8.080253770491804 30.53668524590164 1.62699554405e-05 0.0 0.0 0.0
408 1 10.740111475409838 30.393389508196723 8.58209238145e-05 0.0 0.0 0.0
409 1 13.485300327868853 30.47710491803279 3.84361602673e-05 0.0 0.0 0.0
410 1 16.519958688524593 30.535725901639346 2.7188210894e-05 0.0 0.0 0.0
411 1 19.047325901639343 30.22792786885246 4.75700085148e-05 0.0 0.0 0.0
412 1 21.1212262295082 31.9135462295082 6.95763582448e-05 0.0 0.0 0.0