# input file

2232 atoms
1 atom types

0.0 82.68810555352132 xlo xhi
0.0 83.16 ylo yhi
-10.0 10.0 zlo zhi
0.0 0.0 0.0 xy xz yz

Masses

1 12.0100 #C

Atoms

1 1 1.1356313442622952 0.44371742295081973 3.82851874235028e-05
2 1 3.67621731147541 0.6539193442622951 5.9131511121597974e-05
3 1 6.336923278688525 0.8531549508196722 1.1134447715516083e-05
4 1 8.956387540983608 0.7302478032786885 1.6414453684868203e-05
5 1 11.750502950819673 0.650379868852459 4.5733548672432856e-05
6 1 14.531843934426231 0.8819655737704919 9.130449920313802e-05
7 1 17.183269508196723 1.0069782295081968 8.083218728515833e-05
8 1 19.84332918032787 0.9583293770491804 1.652089952609418e-05
9 1 22.627851147540987 0.7732415737704919 4.8372454119856645e-05
10 1 25.50563147540984 0.5684114754098362 4.7664466740842464e-05
11 1 28.26526098360656 0.5450792131147542 5.482910811071651e-06
12 1 31.81387540983607 0.3682604524590164 8.47573875611224e-05
13 1 33.36276196721312 0.531032393442623 9.941387718935572e-05
14 1 36.97428918032787 0.49632331803278695 7.084229078552017e-05
15 1 38.5191868852459 0.5147437377049181 2.156393677490529e-05
16 1 41.118807868852464 0.801648262295082 9.095946755874767e-05
17 1 43.77947344262296 0.928352393442623 6.49787089227747e-05
18 1 46.40575409836066 1.15184931147541 1.8058309682685138e-05
19 1 49.01097967213115 0.9880589508196723 1.0539978333503985e-05
20 1 51.86013114754098 0.7811031475409838 9.384576674477109e-05
21 1 54.697265573770494 0.8524531147540984 1.2170955457096456e-05
22 1 58.37357377049181 0.49191841311475415 6.459780717058961e-05
23 1 59.92013770491804 0.5256297704918034 8.781643676700314e-06
24 1 62.53510819672132 0.7538981639344263 7.404546293174033e-05
25 1 65.23238032786885 0.7898786229508198 6.334733129659977e-05
26 1 67.98266885245901 0.8250360655737705 1.9289051039064733e-05
27 1 70.79354754098361 0.946640524590164 8.950067948440274e-05
28 1 74.35372459016394 0.6214228196721312 5.1618270392782416e-05
29 1 75.89927868852459 0.5642610491803279 1.7079432792798556e-06
30 1 78.58796721311477 0.7659455081967214 3.6326572884937816e-05
31 1 82.28497704918034 0.46027015081967215 7.587074772992259e-05
32 1 82.14158032786885 3.135025967213115 7.447075873486263e-05
33 1 2.1426247213114755 2.9654845901639346 1.4743106646498984e-05
34 1 4.878775540983606 3.0412576393442627 8.081437302375372e-05
35 1 7.677076721311476 3.1051398688524596 4.8917874185447256e-05
36 1 10.370410491803279 2.909443737704918 2.027120956173739e-05
37 1 12.944230163934426 2.9786074098360658 4.1829928746730905e-05
38 1 15.608935081967214 3.3107879344262297 2.022443398497712e-05
39 1 18.65641836065574 3.335271409836066 5.00623128116956e-05
40 1 21.39191278688525 3.0627873442622953 9.503210107093096e-05
41 1 24.075148196721315 2.7344946885245904 1.5866894658948772e-05
42 1 26.700318032786885 2.777432918032787 3.532568110973691e-05
43 1 29.1169062295082 3.07746531147541 5.916952099668297e-05
44 1 31.576361967213117 3.0735521967213115 9.733357411548592e-05
45 1 34.24318754098361 3.139560131147541 8.078561951177934e-05
46 1 36.779542295081974 3.086947672131148 4.5944694087238794e-05
47 1 39.596227540983605 3.038005967213115 4.1124933237185624e-05
48 1 42.341719344262295 3.195651475409836 9.686219429545747e-05
49 1 45.02641901639345 3.369217049180328 6.936507699994343e-05
50 1 47.72035868852459 3.40041593442623 8.792472981105116e-05
51 1 50.415207213114755 3.054102754098361 2.4242720014266897e-05
52 1 53.119396721311475 2.998415344262295 2.7090156198405613e-05
53 1 55.76213770491804 3.2269462950819676 2.423028583648247e-05
54 1 58.33469508196722 3.1149605245901646 2.022866844860404e-05
55 1 61.0844786885246 3.027034098360656 3.49687926888514e-05
56 1 63.73782295081968 3.080131278688525 2.9214931125473967e-05
57 1 66.42903606557377 3.056248655737705 4.986146963404148e-06
58 1 69.14499016393444 3.06559468852459 5.79804825063989e-05
59 1 71.84579672131149 3.396836065573771 3.577169593614367e-05
60 1 74.3204 3.3312775081967216 9.238622192186514e-05
61 1 76.87629508196721 2.965656262295082 2.752310521406656e-05
62 1 79.57710163934428 3.0461149508196725 8.108506205229054e-05
63 1 0.9841256393442623 5.3861121311475415 3.947041654911391e-05
64 1 3.565716 5.256297704918033 4.689731150962232e-05
65 1 6.346971147540984 5.238171147540984 3.884517038434032e-05
66 1 9.103066229508197 5.275989508196721 5.74553704666001e-06
67 1 11.67521967213115 5.334105573770492 4.1538536022951476e-05
68 1 14.160779672131149 5.415346885245902 6.954498770616101e-05
69 1 16.30435868852459 4.698696524590164 4.823174343917884e-05
70 1 19.92729704918033 5.402168524590164 2.2514443535849072e-05
71 1 23.55058885245902 4.95896662295082 2.3363820125910397e-05
72 1 25.082156721311478 5.034446819672132 2.5688702585193626e-05
73 1 27.56266754098361 5.367026229508197 5.780530492675994e-05
74 1 30.269785573770495 5.5106249180327875 2.733213058113353e-05
75 1 32.97801442622951 5.42468786885246 9.003160623660367e-06
76 1 35.59540852459017 5.51976393442623 5.7917019913262196e-05
77 1 38.20820786885246 5.288864918032788 6.030228310562857e-05
78 1 41.016965901639345 5.386768524590164 7.922299045026821e-05
79 1 43.72287213114754 5.589745573770493 1.4876547293192766e-05
80 1 46.41857901639345 5.678560655737705 7.451983658438192e-05
81 1 49.06000721311476 5.491236065573771 1.3049230119395317e-05
82 1 51.80459016393443 5.30456786885246 9.743740467284381e-05
83 1 54.45995409836066 5.414841967213115 7.76800312901938e-05
84 1 57.10168524590164 5.525469508196722 2.9885038589991343e-05
85 1 59.809560655737705 5.356826885245902 3.996522226197943e-05
86 1 62.407363934426236 5.423072131147542 7.199521719981512e-05
87 1 65.0339475409836 5.378437377049181 9.707632284678471e-05
88 1 67.75040655737706 5.32688524590164 2.9334447193356063e-05
89 1 70.3593180327869 5.461546885245903 4.833311462408621e-05
90 1 73.06517377049181 5.8043357377049185 6.119400727455426e-07
91 1 76.06236721311477 5.5376380327868855 5.4083088495999635e-05
92 1 78.63290491803279 5.18056 7.21573944336561e-05
93 1 81.01510819672131 6.549695737704918 7.806761295652646e-05
94 1 0.11378984262295083 7.962001967213116 1.3323035679762985e-05
95 1 2.620756852459017 7.69464786885246 7.523477166319342e-05
96 1 5.127947540983607 7.41669049180328 2.1531393287732216e-05
97 1 7.808961311475411 7.460416393442623 3.0904863011363194e-06
98 1 10.449682622950819 7.685357377049181 4.783511438166055e-05
99 1 12.993863606557378 7.821634754098361 1.5807081028390326e-05
100 1 15.619134426229511 7.625625573770493 5.8596601864742526e-05
101 1 18.228954754098364 7.573871475409836 9.108553092020034e-06
102 1 20.74804131147541 7.784422295081968 1.0600773022785137e-05
103 1 23.344784262295086 7.566196721311476 2.7423956080522818e-05
104 1 26.036249836065576 7.634007213114756 3.281765403540099e-05
105 1 28.76003016393443 7.694546885245902 5.49680711798626e-05
106 1 31.605798688524594 7.732617704918034 7.987827688775771e-05
107 1 34.31140196721312 7.841881967213116 6.154619719957169e-05
108 1 36.90511540983607 7.778615737704919 6.419609034597142e-05
109 1 39.56805311475411 7.516310819672132 7.493558143538837e-05
110 1 42.42306163934427 7.788815081967214 9.033624965971368e-05
111 1 45.17062360655738 7.943219016393443 1.8074915678599504e-05
112 1 47.89985704918033 7.932868196721312 8.605485440954653e-05
113 1 50.55138360655738 7.606792131147542 9.681972880875102e-05
114 1 53.216340983606564 7.66001049180328 1.0949183486592684e-07
115 1 55.7328524590164 7.791339672131148 8.226468799807912e-05
116 1 58.29329180327869 7.695051803278689 4.089781875141095e-05
117 1 60.96279344262296 7.797196721311477 3.628809517243155e-05
118 1 63.93272131147542 7.767810491803279 8.383056265953245e-05
119 1 66.62645901639345 7.594421639344263 6.939128656716137e-05
120 1 69.18336393442624 7.721156065573771 7.642029269698434e-05
121 1 71.75137704918033 7.833853770491804 3.006774320927941e-06
122 1 73.92252459016395 7.079910163934427 7.340496281312174e-05
123 1 77.62205901639345 7.691214426229509 9.150074390981103e-05
124 1 80.28499672131149 7.89944262295082 7.98396200329516e-05
125 1 1.4004558032786885 10.2341331147541 1.5791237706358596e-05
126 1 4.732238229508197 9.774102295081969 4.836670368555997e-05
127 1 6.261942950819672 9.678622295081968 3.0023239491072695e-05
128 1 8.859897704918033 9.858070163934428 8.247790149497463e-05
129 1 11.559744918032788 10.17707737704918 3.43708469416398e-05
130 1 14.322302950819674 10.105782950819673 7.98166840855412e-05
131 1 16.991047213114754 10.002022295081968 4.199789201539049e-05
132 1 19.690742950819676 10.069176393442623 2.4610145595068933e-05
133 1 22.430377704918033 9.936332459016393 9.818648916868131e-05
134 1 24.779660327868854 11.019331147540985 3.035050882508409e-05
135 1 27.425380327868854 9.936584918032787 2.0215657765961783e-05
136 1 30.141031475409836 9.833278688524592 5.9311075612127e-05
137 1 32.8136131147541 10.069832786885247 5.723413931331601e-06
138 1 35.531283934426234 10.22676131147541 2.2442265169319022e-07
139 1 38.724890491803286 9.89730229508197 5.0773956850507156e-05
140 1 41.25129836065574 10.719460327868854 9.252988659580626e-05
141 1 44.01693639344263 10.136481967213117 7.157809669431057e-05
142 1 46.66765508196721 10.243171147540984 8.795109505672894e-05
143 1 50.20975606557378 9.813031475409836 5.2593819279064095e-05
144 1 51.75157377049181 9.904320655737706 8.896544776637295e-06
145 1 54.36401967213115 10.143096393442624 2.768397888795975e-05
146 1 57.0032262295082 10.13092786885246 1.576786026837297e-05
147 1 59.559626229508204 10.018432131147541 3.197239706803934e-06
148 1 61.6964393442623 9.161030819672131 2.7292885334881303e-05
149 1 65.4383868852459 9.918357377049182 1.6489657621407173e-05
150 1 68.02912131147542 10.023733770491804 9.068506435885545e-05
151 1 70.66277377049181 10.121637377049181 7.185850406429322e-05
152 1 73.36358032786886 9.94996524590164 4.690309580674604e-05
153 1 76.05782295081967 9.860039344262296 4.735195130643818e-05
154 1 78.71268196721311 10.089676065573771 4.609138322442111e-05
155 1 81.36451147540984 10.314415081967214 8.054452191785448e-05
156 1 82.47179672131148 12.50060918032787 3.8009636554663196e-05
157 1 2.3862981639344265 12.573519344262296 3.210249511252801e-05
158 1 4.930135803278689 12.59417049180328 5.683393493916034e-06
159 1 7.633199344262295 12.117275409836067 5.5051345419372425e-05
160 1 10.09669442622951 13.260510819672131 3.703293819965604e-05
161 1 13.031681967213116 12.428607868852461 9.03638408526284e-05
162 1 15.7935331147541 12.411794098360657 5.762739474954754e-05
163 1 18.480302950819674 12.341761967213117 1.2639034367317693e-05
164 1 21.294716065573773 12.25653180327869 8.873102560533736e-05
165 1 24.099333770491803 12.396040655737705 2.054258137353551e-05
166 1 26.696278688524593 12.481068852459018 7.390191370390022e-05
167 1 29.198198032786888 12.073196065573772 8.342683014042108e-05
168 1 31.513348196721314 13.390123278688526 4.36112004036042e-05
169 1 34.247883278688526 12.398363278688526 3.551625510848772e-05
170 1 36.43347147540984 11.492843278688527 5.028819906450907e-05
171 1 40.26009377049181 11.872844590163934 1.9993456159188506e-05
172 1 42.73914032786886 12.545344918032788 7.051779835590896e-05
173 1 45.34532524590164 12.557412459016396 2.669230911149332e-05
174 1 47.98281508196722 12.598310819672133 9.935945520029534e-05
175 1 50.40909770491804 12.461276065573772 1.0861235496240962e-05
176 1 53.10475409836066 12.39477836065574 2.355753326904775e-06
177 1 55.80758032786886 12.475868196721313 1.0062930562565065e-05
178 1 58.52050491803279 12.449612459016395 7.613252791183292e-05
179 1 61.15870163934427 12.086172459016396 6.192454342090544e-05
180 1 63.947363934426235 12.013817704918035 6.273537078589384e-05
181 1 66.65927868852461 12.314496393442624 6.434317373616162e-05
182 1 69.33080000000001 12.397403934426231 8.831022605219739e-05
183 1 72.0220131147541 12.32045442622951 9.245475395873055e-05
184 1 74.69757377049181 12.223560655737707 5.801038262838414e-05
185 1 77.33425573770492 12.314799344262298 5.873506652926534e-05
186 1 79.94114754098361 12.51600918032787 9.274219042156583e-05
187 1 1.311772 14.827422950819674 6.716254591130513e-05
188 1 3.768061901639345 15.981615081967215 7.31450715271053e-05
189 1 6.461183606557378 14.678421639344265 8.16143748568986e-06
190 1 9.272365245901641 14.574812459016394 7.760187246858688e-05
191 1 11.831946229508198 14.674079344262298 4.397765927712506e-05
192 1 14.528915409836067 14.71013049180328 4.2567647505217935e-05
193 1 17.4673868852459 14.700587540983607 5.6746957599854266e-05
194 1 20.163750163934427 14.470041967213117 8.041519899875096e-05
195 1 22.776700983606556 14.526037377049182 2.2551681047790386e-05
196 1 25.441102950819676 14.775416393442626 4.3534145818191506e-05
197 1 28.139283934426235 14.673271475409837 5.125043378625095e-05
198 1 30.836859016393447 14.769862295081968 8.363110948319036e-05
199 1 33.365185573770496 14.854587540983607 9.22087775955062e-05
200 1 35.94708393442623 14.434445245901642 5.403860589037968e-07
201 1 39.30074950819672 14.00708262295082 3.488348903898595e-05
202 1 40.78616786885246 14.394506229508199 9.546007764905756e-05
203 1 43.13868196721312 14.01864524590164 9.950665241456541e-05
204 1 46.76954754098361 14.855092459016396 4.598973360882205e-05
205 1 49.36654295081968 14.972788852459018 7.588175842200516e-05
206 1 51.92223606557378 14.73896131147541 9.951794193008576e-05
207 1 54.554373770491814 14.736992131147543 6.38709970670712e-05
208 1 57.31375081967214 14.749312131147542 1.302185310107873e-05
209 1 60.06252459016394 14.613287213114756 7.620518935477644e-05
210 1 62.69516721311476 14.248433442622952 8.54490884799657e-05
211 1 65.36365901639346 14.42061049180328 2.9590718147214723e-05
212 1 67.95186885245903 14.662112786885247 4.8464315810835046e-05
213 1 70.61985573770492 14.653630163934427 6.1050705205521e-05
214 1 73.31056393442624 14.586829508196724 4.281164808391336e-05
215 1 76.02348852459018 14.619750163934427 7.501957679957849e-06
216 1 78.69753442622951 14.773800655737706 2.9090594711541353e-05
217 1 81.35441311475411 14.92037836065574 9.557497346137832e-05
218 1 0.08784513442622952 17.22421836065574 7.410038321244081e-05
219 1 2.9398650491803284 17.291675409836067 6.422531221694536e-05
220 1 5.510372459016394 17.266177049180328 3.562547388409597e-05
221 1 7.965940327868854 16.84684262295082 4.998118655387196e-05
222 1 10.658617704918035 16.968022950819673 3.3987791640640985e-05
223 1 13.280101639344265 16.917228196721315 2.2778152018831067e-05
224 1 15.301540983606559 16.057100327868856 8.637045928730184e-05
225 1 18.96098491803279 16.828968524590167 5.120768898152714e-05
226 1 21.512184262295083 16.85194229508197 9.751764497771355e-06
227 1 24.12059081967213 16.946765901639345 1.6777049726746262e-05
228 1 26.78181180327869 17.00281180327869 8.606160512040654e-05
229 1 29.390117377049183 17.008012459016395 1.4300918959711585e-05
230 1 31.981003278688526 17.193620327868857 6.0910310839277465e-05
231 1 34.56275016393443 16.976404590163938 5.704269611391431e-05
232 1 37.046240000000004 16.95358229508197 6.363462547952048e-06
233 1 39.50130295081967 16.732781639344264 5.791627949304212e-08
234 1 42.26992 16.69723540983607 9.400401741085828e-05
235 1 45.0983193442623 16.847196065573772 1.781643088681728e-05
236 1 47.886830163934434 17.23537704918033 7.96915895363978e-05
237 1 50.586222950819675 17.235528524590165 6.797131934564341e-05
238 1 53.18756065573771 17.09859475409836 6.895104404033853e-05
239 1 55.916137704918036 16.995389508196723 6.0348757517275435e-05
240 1 58.7512524590164 16.962822295081967 2.47595827951983e-05
241 1 62.32607213114755 16.53046098360656 1.7825771434900395e-05
242 1 63.87364590163935 16.61503475409836 1.871018228239616e-05
243 1 66.50426885245902 16.91616786885246 9.882269786498082e-05
244 1 69.20103606557377 16.977262950819675 2.829765980741147e-05
245 1 71.87912131147542 16.917581639344263 9.339540552978801e-05
246 1 74.60315409836066 16.87930885245902 9.229364596972096e-05
247 1 77.38878688524592 17.010082622950822 4.560520887966401e-05
248 1 80.02647868852459 17.186601967213118 1.9771906058823852e-05
249 1 1.4123062295081967 19.441919344262296 4.096842335792035e-05
250 1 4.217827737704919 19.64772393442623 9.531938334904828e-05
251 1 6.955195409836066 19.492209180327873 3.198646034344226e-05
252 1 9.542041967213116 19.135080655737706 3.961841729018705e-05
253 1 12.26612524590164 19.221825573770495 7.09191052270561e-05
254 1 14.881146229508198 19.027735081967215 3.061954000251634e-05
255 1 17.50828524590164 19.030411147540985 9.687215024443696e-06
256 1 20.124619016393446 19.22621836065574 5.3493248422801445e-05
257 1 22.782659016393442 19.249293114754103 5.67254707576772e-05
258 1 25.45872459016394 19.287565901639343 3.406712967325571e-05
259 1 28.06945377049181 19.362243278688524 1.0987907170724288e-05
260 1 30.639789508196724 19.455097704918035 1.3982077457441368e-05
261 1 33.24259147540984 19.441262950819674 6.854174462535163e-05
262 1 35.82802426229509 19.388448524590167 2.7203687677644995e-05
263 1 38.42779672131148 19.276154754098364 6.470196397074771e-05
264 1 40.98455016393443 18.95952065573771 6.562831008943829e-05
265 1 43.64496327868853 18.938263606557378 1.0068955446621042e-05
266 1 46.4134793442623 19.210666885245903 6.809493755295005e-05
267 1 49.124586229508196 19.524271475409837 3.163488126196264e-05
268 1 51.765206557377056 19.544013770491805 7.670142829277711e-05
269 1 54.42965901639345 19.31791147540984 8.950674418361338e-05
270 1 57.19408524590165 19.145633442622955 8.687363586812448e-05
271 1 59.88378360655738 19.332705573770493 6.293671998264698e-05
272 1 62.4629049180328 19.18850098360656 3.91743538956697e-05
273 1 65.19299672131149 19.142856393442624 7.162219779122956e-05
274 1 67.85441967213116 19.263329836065576 9.506973212001637e-05
275 1 70.53200000000001 19.268782950819674 1.7264228573843154e-05
276 1 73.1772655737705 19.16103344262295 3.695818691297526e-05
277 1 75.9139213114754 19.131344262295084 7.934798840467364e-05
278 1 78.57635409836067 19.464741639344265 9.747725961310081e-05
279 1 81.30594098360656 19.48347409836066 4.756907839673097e-05
280 1 0.011642551475409837 21.694005245901643 2.8469502737685305e-05
281 1 2.812070295081967 21.732681967213118 9.297703553032417e-05
282 1 5.622969180327869 21.83043409836066 5.149859639719371e-05
283 1 9.246311475409836 21.386762622950823 5.021679373257026e-06
284 1 10.790805245901641 21.39413442622951 6.494721716389379e-05
285 1 13.49817573770492 21.475224262295082 6.472134345854533e-05
286 1 16.20817180327869 21.404182295081966 4.842417159988556e-05
287 1 18.85389180327869 21.497844590163936 2.6842352084226975e-05
288 1 21.439375081967217 21.5531331147541 2.25259074559361e-05
289 1 24.174061639344266 21.56232262295082 5.0587769569675125e-05
290 1 26.793980327868855 21.676787540983607 3.5901348273453815e-07
291 1 29.337555409836067 21.790444590163936 8.200103375991338e-05
292 1 31.925260327868855 21.807106885245904 8.782511490652869e-05
293 1 34.54916786885246 21.775852459016395 2.0472674595239162e-06
294 1 37.19155540983607 21.678100327868854 6.168902248231008e-05
295 1 39.80819213114755 21.49117967213115 3.5632977863183426e-05
296 1 42.298801311475415 21.263209180327873 4.3271269629475864e-05
297 1 44.91346885245902 21.256190819672135 5.068974162698733e-05
298 1 47.4805731147541 21.61942885245902 3.553568278345483e-05
299 1 50.14926688524591 21.8834 7.153497579579329e-05
300 1 53.21987540983607 21.760906885245905 7.539068566641442e-05
301 1 55.92724590163935 21.43563868852459 6.256224643009703e-05
302 1 58.588163934426234 21.493855737704923 4.534518126874397e-05
303 1 61.35057049180328 21.60165573770492 8.705836239345115e-05
304 1 64.05996065573771 21.46189442622951 8.171899153894823e-05
305 1 66.6284786885246 21.55969704918033 4.116664898375614e-05
306 1 69.26011147540984 21.598020327868856 3.2396777804180946e-05
307 1 72.02554754098361 21.550053114754103 8.32398968632492e-05
308 1 74.7637180327869 21.35682098360656 3.681769145893302e-05
309 1 77.12118032786887 22.691723278688528 3.879736529862036e-05
310 1 79.92549508196723 21.79079803278689 5.0541954814337935e-05
311 1 1.4868270819672134 23.911504262295082 6.289554948747828e-05
312 1 4.163180459016393 23.972750819672132 3.6238697654896867e-05
313 1 6.78448262295082 24.19547016393443 1.708334154439839e-05
314 1 9.331390163934428 23.980072131147544 8.141871838031155e-05
315 1 12.109903606557378 23.745133770491808 6.265524635100553e-05
316 1 14.870845901639347 23.73448 9.432683398142686e-05
317 1 17.619316721311478 23.79966491803279 3.8665172979769726e-05
318 1 20.305379672131153 23.920693770491805 9.556693570550086e-05
319 1 22.92151147540984 23.78300262295082 5.666375754271501e-05
320 1 25.55728459016394 23.95523016393443 3.408181954518226e-05
321 1 28.03461442622951 24.141241967213116 2.6714430175666273e-05
322 1 30.60489967213115 24.17345573770492 3.0602113636445464e-05
323 1 33.24678229508197 24.13195147540984 1.479806737703393e-05
324 1 35.92885639344262 24.045963934426233 9.629898488430041e-05
325 1 38.61653508196722 23.921097704918033 5.2787894309514174e-05
326 1 41.2978518032787 23.798251147540984 6.749874371241405e-06
327 1 43.84233573770492 23.559626885245905 4.18301083029323e-05
328 1 46.09926885245902 24.964914754098363 5.667521172991683e-05
329 1 48.78417049180328 24.032078688524592 6.730079551662695e-05
330 1 50.92451803278689 23.218908196721316 5.080002582767022e-05
331 1 54.59628196721312 23.810419672131147 6.606348603665869e-06
332 1 57.20822295081968 23.75280852459017 3.6646592125401704e-05
333 1 59.91963278688525 23.739024262295082 9.506352014955409e-05
334 1 62.73455081967214 23.796584918032792 8.30733975743537e-05
335 1 65.44697049180328 23.943263606557377 6.0200385642669924e-05
336 1 67.95035409836066 23.968862950819673 3.979366772853684e-05
337 1 70.69660327868853 23.828091803278692 6.193856097341426e-05
338 1 73.47264262295083 23.738670819672134 1.4469629658565353e-06
339 1 76.31886557377051 24.016577704918035 1.2529094624913485e-05
340 1 78.83083278688525 24.253636721311477 7.317465125913194e-05
341 1 81.43772459016394 23.98749442622951 5.341774472458372e-05
342 1 0.32034272131147545 26.178687213114756 5.221200247552064e-05
343 1 2.953376655737705 26.233016393442625 4.992079012480566e-05
344 1 5.5817678688524595 26.39342885245902 8.04738873221697e-05
345 1 8.239959344262298 26.448161967213117 4.6318293103173615e-05
346 1 10.858009836065575 26.09042754098361 8.123043080299298e-05
347 1 13.530742950819672 25.992019016393446 5.3750351132178365e-05
348 1 16.26820655737705 26.023980327868852 1.819278345092692e-05
349 1 19.01021442622951 26.187674754098364 2.9582721468871756e-06
350 1 22.48990754098361 25.99035278688525 5.0668950203341645e-05
351 1 24.0294531147541 26.16162098360656 3.986460242548074e-06
352 1 26.626650491803282 26.499764590163938 2.7290394213251203e-05
353 1 29.243792131147547 26.55167016393443 3.083997040036431e-05
354 1 31.914909508196725 26.48537442622951 6.190591017058736e-05
355 1 34.6346 26.38126032786886 8.487772067543353e-06
356 1 37.330104918032795 26.269925901639347 4.65772774135269e-05
357 1 40.035304262295085 26.154198688524595 7.82325633570555e-05
358 1 42.76140721311476 26.083409180327873 4.57080794998917e-05
359 1 45.47039344262296 26.363436721311476 5.249771854907914e-06
360 1 47.96675868852459 26.529857704918037 4.6110849977712e-05
361 1 50.496347540983614 26.126781639344266 6.462224325776874e-05
362 1 53.057796721311476 25.995755409836068 7.025831935481843e-05
363 1 55.718209836065576 26.092800655737708 6.045058174267604e-06
364 1 58.4124524590164 25.980910819672133 3.881828834690523e-05
365 1 61.05620327868853 25.89022754098361 3.199721733471208e-05
366 1 63.799927868852464 26.12390360655738 9.528380193201578e-05
367 1 66.80419016393442 26.481537049180332 3.3047313597455455e-05
368 1 69.43935737704919 26.16621573770492 9.007299967751312e-05
369 1 72.06038688524592 26.025495081967215 6.427808655491856e-05
370 1 74.61880655737706 26.021001311475413 8.055449585120885e-05
371 1 77.27871475409836 26.53541180327869 8.41330379049473e-05
372 1 80.30822295081968 26.467146885245906 7.856951506538021e-05
373 1 1.670602098360656 28.524233442622954 4.320120321873222e-05
374 1 4.349318491803279 28.63218491803279 6.2027450831021014e-06
375 1 7.017451803278689 28.72352459016394 8.969367867905403e-05
376 1 9.624343606557378 28.594720000000002 3.767925175946204e-05
377 1 12.206595409836067 28.35538885245902 7.937213495215424e-06
378 1 14.894930491803281 28.263443278688527 2.449903797684353e-05
379 1 17.556454426229507 28.35700459016394 1.6096945386963713e-06
380 1 20.075540983606558 28.700399344262298 2.160664150277114e-06
381 1 22.52404 28.67252786885246 6.29975028007077e-05
382 1 25.28649704918033 28.725443278688527 9.534475212764357e-05
383 1 27.933125901639347 28.911101639344267 8.812396445675315e-05
384 1 30.599042622950822 28.84005967213115 5.9910784686251556e-06
385 1 33.36594295081968 28.693532459016396 5.3847200834193e-05
386 1 36.05478295081968 28.60880721311476 9.437573318748066e-05
387 1 38.69787737704919 28.48626360655738 5.2249354365574964e-05
388 1 41.376316065573775 28.378312131147545 1.1218049992943292e-06
389 1 44.107013770491804 28.49151475409836 7.06028530066079e-05
390 1 46.67341114754099 28.855964590163936 7.852382175068107e-05
391 1 49.32448327868853 28.71383016393443 7.546105506401143e-05
392 1 51.88133770491804 28.48318360655738 5.613262962847992e-05
393 1 54.37159344262295 28.35887278688525 8.8604858426891e-05
394 1 57.08451803278689 28.291617704918036 1.035936516974273e-05
395 1 59.689895081967215 28.229613770491806 1.1220883925972415e-05
396 1 62.210950819672135 28.171396721311478 7.402586850384052e-05
397 1 64.51388196721312 27.481022295081967 9.039646883905069e-05
398 1 68.31641967213115 28.643899016393444 8.193011597281952e-06
399 1 70.89150163934426 28.44122491803279 4.516766336094775e-05
400 1 73.30097049180328 28.423805245901644 9.698946922497955e-05
401 1 75.86999344262296 28.501158688524594 7.798672534141938e-05
402 1 77.99973770491803 27.89449967213115 2.514988517685003e-05
403 1 81.66796721311476 28.543016393442628 6.824620579681485e-06
404 1 0.14683066885245902 30.775057049180333 5.040043272431982e-05
405 1 2.9625358688524592 30.856096393442627 9.240716971469905e-05
406 1 5.722488524590165 30.977377704918037 4.243965244169157e-06
407 1 8.419003278688525 31.02529442622951 1.7860447133957181e-06
408 1 10.970505573770494 30.845493114754102 9.956226023212107e-05
409 1 13.596786229508197 30.586571147540987 6.273076391522598e-05
410 1 16.33031147540984 30.602627540983608 5.7262908992316064e-05
411 1 18.893578360655738 30.899266885245904 5.4782269563985776e-05
412 1 21.387923934426233 31.13274098360656 4.836708269081759e-05
413 1 23.87055540983607 30.95379803278689 5.787205515958505e-05
414 1 26.509459016393443 31.20166229508197 4.522586559096539e-05
415 1 29.51877049180328 31.213527868852463 8.10017057153624e-05
416 1 32.23194754098361 30.96793573770492 8.418523247746539e-05
417 1 34.85348196721312 30.938600000000005 4.989006643623945e-05
418 1 37.46920983606558 30.87568721311476 4.1605584260834875e-05
419 1 40.018440000000005 30.72239409836066 3.5244116608691294e-05
420 1 42.678853114754105 30.664782950819674 4.451434484646291e-05
421 1 45.300286557377056 31.050186885245903 9.431981308466315e-05
422 1 48.001699016393445 31.111180983606562 4.6683000472242125e-05
423 1 50.72154098360656 30.999392131147545 1.9487589837435216e-05
424 1 53.34004590163935 30.874323934426233 7.675849555667776e-05
425 1 55.91108852459017 30.553852459016397 4.6437778272033384e-05
426 1 58.550295081967214 30.581925901639348 8.669211459266273e-05
427 1 61.05620327868853 30.582127868852464 4.846107130218426e-05
428 1 63.68430163934427 30.25539540983607 1.1050781283777044e-05
429 1 66.02964590163936 29.406274754098362 6.704072708010733e-05
430 1 69.54084590163936 30.8824531147541 3.417293547145565e-05
431 1 72.04826885245903 30.93501508196722 8.381212305707095e-05
432 1 74.72332459016395 30.809189508196724 8.921623989754928e-05
433 1 77.31001967213116 30.772936393442624 1.9003021447495416e-05
434 1 79.99012459016394 30.6647324590164 4.160288934185722e-05
435 1 1.4562441967213116 32.958373114754096 8.678210794005591e-05
436 1 4.275741836065574 33.13049967213115 4.493082128580762e-05
437 1 7.0594609836065585 33.2962137704918 1.2146110499434749e-05
438 1 9.919417704918034 33.35200721311475 2.3471779459941147e-05
439 1 12.52721836065574 33.024163934426234 1.821720195286666e-05
440 1 15.115983606557378 32.79599147540984 6.998163507236528e-05
441 1 17.724592131147546 33.091419016393445 4.4286616579757265e-05
442 1 20.18571409836066 33.4350662295082 3.669075998190599e-05
443 1 22.68813836065574 33.48581049180328 5.085199924823248e-05
444 1 25.18945180327869 33.379676721311476 5.7184862624539535e-05
445 1 27.27466229508197 32.55635737704918 5.866298424706955e-05
446 1 31.010146885245906 33.314744262295086 9.421499542453898e-05
447 1 33.63400393442623 33.29146754098361 7.328373151296088e-05
448 1 36.277502295081966 33.25400262295083 5.974656233077649e-05
449 1 38.94488327868853 33.189322622950826 8.83081479710066e-05
450 1 41.556066885245905 32.96412918032787 5.088426679038308e-05
451 1 43.88035606557378 34.27393704918033 9.852012025869725e-05
452 1 46.69461770491804 33.39164327868853 9.149798664173505e-05
453 1 49.42369967213116 33.33701114754099 1.034973998828146e-05
454 1 52.14389508196722 33.31206819672131 1.3424995352653047e-05
455 1 55.60662295081968 32.81876327868853 9.62981757606603e-05
456 1 57.1496524590164 32.85905573770492 3.0905028435152504e-05
457 1 59.787344262295086 32.99790819672131 6.193429828159847e-06
458 1 62.417967213114764 32.716113442622955 7.849968570443581e-05
459 1 65.10615081967214 32.258203278688526 6.492655942917908e-05
460 1 67.73121967213116 32.86970950819673 7.304276828805378e-05
461 1 70.40324590163935 33.30838229508197 8.549865439451022e-05
462 1 74.0169442622951 33.03350491803279 2.0807172918440443e-05