# input file

2232 atoms
1 atom types

0.0 82.68810555352132 xlo xhi
0.0 83.16 ylo yhi
-10.0 10.0 zlo zhi
0.0 0.0 0.0 xy xz yz

Masses

1 12.0100 #C

Atoms

1 1 1.4017433442622953 0.7759630819672132 1.1726681039418664e-05
2 1 4.113562163934427 0.8842730491803279 3.203883576352378e-05
3 1 6.808112786885246 0.9172744918032788 8.462585290673608e-06
4 1 9.489076065573771 0.9142954754098361 3.853459972175595e-05
5 1 12.107984918032788 0.8334681967213116 9.065378336347718e-06
6 1 14.687863606557379 0.4175394426229509 8.34347806277469e-06
7 1 17.29470491803279 0.3977224196721312 7.899775230193192e-05
8 1 19.77713442622951 0.6211703606557377 8.906169554007925e-05
9 1 22.456128524590167 1.0241302950819673 3.633029065224081e-05
10 1 25.515022950819674 1.0779848524590165 8.958213670038454e-05
11 1 28.219666885245907 0.8379872131147542 9.351182577578477e-05
12 1 30.771825573770496 0.6946005901639345 1.3401098334629203e-05
13 1 33.45940327868853 0.5408328524590164 5.836640404566755e-05
14 1 36.07311147540984 0.5749703606557378 2.457257581647727e-05
15 1 38.39820852459017 1.8906403278688526 8.96590131255543e-05
16 1 41.24776393442623 0.974057573770492 9.031331621478777e-05
17 1 43.98840852459017 0.939056655737705 6.319869989287556e-05
18 1 46.65326491803279 0.986529049180328 4.139308780548359e-05
19 1 49.357201967213115 0.982525049180328 2.8254809650814862e-05
20 1 52.07017704918034 0.884116524590164 1.3481045487804433e-05
21 1 54.77300327868853 0.808505049180328 6.135342917333517e-05
22 1 57.45916721311476 0.8055108852459016 2.6328767557221577e-06
23 1 60.1448262295082 0.839072786885246 5.32891319562013e-05
24 1 62.86229508196722 0.9531943606557378 9.76281734468607e-06
25 1 66.50628852459018 0.48284352131147545 8.757492184963412e-05
26 1 68.02811147540984 0.26331778360655744 9.763870122825915e-05
27 1 70.65772459016394 0.41443470163934426 9.810541066906884e-05
28 1 73.36358032786886 0.47354545573770496 7.739095734334243e-05
29 1 76.03409180327868 0.5176167213114755 5.869460079745721e-05
30 1 78.69147540983607 0.5644074754098362 1.263574358891747e-05
31 1 81.37612459016394 0.6551361967213115 5.720095460902065e-05
32 1 0.07827744262295083 2.97736531147541 9.873710925756614e-05
33 1 2.781825704918033 3.096692590163935 9.180393880801762e-06
34 1 5.455336393442623 3.19097593442623 2.8399700234795644e-05
35 1 8.129079344262294 3.2250680000000003 6.0997646534950325e-05
36 1 10.821504262295084 3.2492636721311476 8.200685974682366e-05
37 1 14.305994098360658 2.764567606557377 1.4548747196289347e-05
38 1 15.846398032786887 2.733207147540984 5.2175003952656786e-05
39 1 18.40188918032787 2.948913180327869 6.874694692558227e-05
40 1 21.028422295081967 3.0589600655737708 4.535475595462835e-05
41 1 23.236933770491806 2.3553012459016394 3.3498410301058615e-05
42 1 27.049266885245903 3.179625377049181 6.103680288755718e-05
43 1 29.745781639344266 3.138373573770492 2.4990934150821123e-05
44 1 32.404730491803285 2.8513832131147545 6.244264459763794e-06
45 1 34.67832590163935 4.078137114754099 4.94586536954388e-05
46 1 37.58170557377049 3.2146969836065575 7.859350911236728e-05
47 1 40.22485049180328 3.350388655737705 5.788591252729212e-05
48 1 42.85557442622951 3.2226241967213114 4.398419994184876e-05
49 1 45.41914426229509 3.2927876065573773 3.092955250697991e-05
50 1 48.02416786885246 3.2721364590163935 4.661618341825677e-05
51 1 50.72204590163935 3.1995696393442623 7.705661091088734e-05
52 1 53.45718688524591 3.1197269508196723 1.797810416373996e-05
53 1 56.13527213114755 3.1013428852459017 4.970859208492411e-05
54 1 58.76690491803279 3.119939016393443 3.7661489072256784e-05
55 1 61.38389508196722 3.1592620327868857 6.911927700758769e-07
56 1 63.99533114754099 3.3124188196721316 6.834220884179495e-05
57 1 66.54062295081968 3.0610352786885247 3.136345047961796e-05
58 1 69.29091147540984 2.6986556065573772 6.606072408731975e-05
59 1 72.03968524590164 2.7357367868852465 6.859713824581574e-05
60 1 74.73140327868853 2.815978360655738 7.064257844553489e-05
61 1 77.34334426229509 2.868959409836066 1.2845777534910463e-05
62 1 80.0269836065574 2.9049449180327875 3.719618269178399e-05
63 1 1.469700262295082 5.307950819672131 2.9890968514213626e-05
64 1 4.096364655737705 5.45200393442623 7.088170317253564e-05
65 1 6.7162681967213125 5.5219350819672135 5.627773985497707e-05
66 1 9.309224262295084 5.537133114754099 9.342912229451345e-05
67 1 11.882286557377052 5.680327868852459 2.913377176375761e-05
68 1 14.411471475409838 5.458062950819672 6.848120838344162e-05
69 1 17.15484262295082 5.253116721311476 3.5327485860659474e-05
70 1 19.89483081967213 5.327137704918033 9.320340300585274e-05
71 1 22.67349573770492 5.201918032786886 9.253518094777426e-05
72 1 25.473468196721313 5.255388852459017 8.985859252366587e-05
73 1 28.278843278688527 5.4302924590163935 7.380049959968914e-05
74 1 31.059780327868854 5.327390163934427 2.871680935832438e-05
75 1 33.821782950819674 5.378689836065574 4.4282590690625245e-05
76 1 36.29219540983607 5.538597377049181 9.958919470578475e-06
77 1 38.91554754098361 5.57676918032787 2.1829436159620086e-05
78 1 41.66629049180328 5.607114754098362 1.5155223638598449e-05
79 1 44.203049180327874 5.666745573770493 4.575553132099024e-05
80 1 46.802417704918035 5.660434098360656 8.460424088998669e-05
81 1 49.39153639344263 5.520369836065574 7.176141886421013e-05
82 1 52.16964590163935 5.396361967213116 1.4322868090903019e-05
83 1 54.86136393442623 5.403582295081968 2.9039881655303812e-05
84 1 57.474819672131154 5.447459672131148 4.4041294002538935e-05
85 1 60.09635409836066 5.483308852459017 4.391979039910693e-05
86 1 62.74111475409837 5.558794098360656 4.086094916625982e-05
87 1 65.44242622950821 5.539506229508198 6.924867201951608e-05
88 1 68.06699016393443 5.099470163934427 6.0436551212643125e-05
89 1 70.73750163934427 4.963510885245902 6.1025169351378243e-05
90 1 73.49536393442624 5.0723055737704925 9.543623692652918e-05
91 1 76.08054426229509 5.216914098360657 3.947811025267478e-06
92 1 78.67430819672133 5.1860636065573775 5.213092236452729e-05
93 1 81.45337704918033 5.17631868852459 4.746274316254439e-05
94 1 0.18174423606557377 7.501971147540984 6.635739841168764e-06
95 1 2.7508843278688526 7.722923278688525 8.781425580896426e-05
96 1 5.374095081967213 7.842184918032787 3.310753844091391e-05
97 1 7.978209836065575 7.906158032786887 5.877872942290536e-05
98 1 10.592422950819673 7.975584262295083 3.8865587894144e-05
99 1 13.28838229508197 7.949530491803279 3.9735528761677955e-05
100 1 15.968689180327871 7.614618360655738 9.410985461143395e-05
101 1 18.65641836065574 7.556552786885247 1.2739016232530276e-05
102 1 21.37984524590164 7.505909508196722 6.388807966370011e-05
103 1 24.098273442622954 7.463900327868854 6.472242642028148e-06
104 1 26.826396065573775 7.555441967213115 7.82173274934898e-05
105 1 29.568100983606563 7.611841311475411 9.701059689903921e-05
106 1 32.25350754098361 7.615678688524591 2.6797842954425366e-05
107 1 34.876455737704916 7.88520393442623 1.2373403074208701e-05
108 1 37.468502950819676 7.860917377049181 2.7949897819108285e-06
109 1 40.18031672131148 7.782251147540984 7.035296929410821e-05
110 1 42.826945573770494 8.059451147540985 3.456312388853846e-05
111 1 45.540173114754104 8.051624918032788 4.386149240210895e-05
112 1 48.26122688524591 7.978159344262296 3.514922103879088e-05
113 1 50.914924590163935 7.634310163934427 9.29415901534092e-05
114 1 53.61825573770492 7.671876065573771 6.221064285094213e-05
115 1 56.18980327868853 7.776040655737706 9.471529315054627e-05
116 1 58.814872131147546 7.807699016393443 4.767267747252966e-05
117 1 61.473770491803286 7.834459672131148 1.7096496049040687e-05
118 1 64.18467540983607 7.807042622950821 9.097728853469147e-05
119 1 66.89204590163935 7.617395409836066 7.823303985320129e-05
120 1 69.45500983606557 7.32928918032787 2.019678222660447e-05
121 1 72.13460983606558 7.227800655737705 2.9807325209239124e-05
122 1 74.7864393442623 7.543626885245903 5.559022011367413e-05
123 1 77.50643278688524 7.59184655737705 4.256818925774041e-05
124 1 80.16583606557379 7.363017704918033 5.6510886923263225e-05
125 1 1.263925967213115 9.985057049180329 7.12276996007242e-05
126 1 3.9845556065573775 10.132190163934427 8.27040979268885e-05
127 1 6.654112786885246 10.24640262295082 5.142264349714232e-06
128 1 9.274132459016394 10.297247868852459 2.7779539146131063e-05
129 1 11.974383606557378 10.242363278688526 4.73914327031645e-05
130 1 14.721895081967215 10.05973442622951 3.853291852145468e-06
131 1 17.409220327868855 9.89417180327869 1.8062725673452973e-05
132 1 20.091092459016394 9.81873704918033 8.41597914729393e-05
133 1 22.774226885245902 9.78208 9.066555333741591e-05
134 1 25.45897704918033 9.798085901639345 3.331241733964477e-05
135 1 28.156855081967215 9.857615737704919 3.805503007662911e-05
136 1 30.85326885245902 9.931737704918035 5.947829224082241e-05
137 1 33.538776393442625 10.085384262295083 3.910812665825592e-05
138 1 36.27452327868853 10.225499016393444 9.672067976055443e-05
139 1 38.98658950819673 10.041304918032788 1.8489556641735562e-05
140 1 41.304668196721316 11.28209049180328 8.89126808584887e-06
141 1 44.15902032786886 10.362483278688526 4.877772115456757e-05
142 1 46.95429704918033 10.316232786885246 6.898366333050776e-05
143 1 50.57259016393443 9.84368 2.108882890373356e-05
144 1 52.12016393442623 9.89109180327869 5.479184924961793e-05
145 1 54.807337704918034 10.103864262295083 1.6064787159195238e-05
146 1 57.495521311475414 10.134310819672132 2.9518082830311455e-05
147 1 60.17108196721312 10.132240655737705 8.476600138449214e-05
148 1 62.898144262295084 10.08084 4.827642680599348e-05
149 1 65.66761967213117 9.96920262295082 6.560610145651925e-05
150 1 68.42548196721312 9.835550819672132 2.7801955169732896e-05
151 1 71.04752131147542 9.528358688524591 8.34742854662261e-05
152 1 73.37266885245903 10.80620524590164 6.993263562596547e-05
153 1 76.25070163934427 9.872005901639346 2.344211257262129e-05
154 1 79.78209836065574 9.538255081967213 6.932132456423864e-05
155 1 81.32209836065574 9.663424262295083 7.765567738457256e-05
156 1 82.56470163934426 12.178875409836067 6.428361848888483e-05
157 1 2.5434034098360656 12.32969442622951 8.831783800886264e-05
158 1 5.297700983606558 12.512626229508198 5.612185049269567e-05
159 1 7.963920655737706 12.64193573770492 2.6066334541249735e-06
160 1 10.64680262295082 12.559785573770494 2.3273532998249193e-05
161 1 13.430769180327871 12.383468196721314 1.3157917254237528e-05
162 1 16.1347062295082 12.27041704918033 4.586249920824102e-05
163 1 18.801380327868856 12.170493770491804 7.610495719901026e-05
164 1 21.45997573770492 12.120001967213117 1.4562313930899717e-05
165 1 24.12038885245902 12.110307540983607 7.34435927233333e-05
166 1 26.78847672131148 12.13752262295082 5.6554764006255614e-05
167 1 29.46843016393443 12.202556065573772 3.73638956126386e-05
168 1 32.15989573770492 12.313183606557379 3.697391125231643e-05
169 1 34.87261836065574 12.416035409836066 2.122776359510331e-05
170 1 37.60619409836066 12.42441704918033 6.362306440132155e-05
171 1 40.39162491803279 12.53262098360656 9.127414337395917e-05
172 1 42.97720918032787 12.737213770491804 1.2216540721944448e-06
173 1 45.607478688524594 12.564279344262296 2.51732272647078e-05
174 1 48.16372721311476 12.68616655737705 2.6615789958037442e-05
175 1 50.70790819672131 12.426739672131148 5.4692224593797035e-05
176 1 53.542518032786894 12.306316721311477 6.619028156104224e-05
177 1 56.244334426229514 12.419872786885247 8.606942632505088e-06
178 1 58.86435409836066 12.44097836065574 8.78754316773623e-05
179 1 61.56768524590165 12.361908196721313 6.267356411258496e-05
180 1 64.34220983606558 12.234567868852459 3.615126554855508e-06
181 1 67.1172393442623 12.129140983606558 2.224474026779385e-05
182 1 69.88772459016394 12.035226229508197 6.367187628652123e-05
183 1 72.64053770491805 12.172412459016396 4.4906996620310835e-06
184 1 75.08737049180328 12.15292262295082 8.538687695892549e-05
185 1 77.58469508196721 12.26774098360656 2.9345209515505356e-05
186 1 79.90428852459017 12.215330491803279 6.053158692059062e-05
187 1 1.1824120000000002 14.580921967213117 9.616680401827987e-05
188 1 3.754812852459017 14.648480000000003 9.247752417913855e-05
189 1 6.451135737704918 14.913460983606559 7.031322839610519e-05
190 1 9.516392131147542 14.915935081967215 3.1278091958666845e-05
191 1 12.238354754098362 14.658275409836067 8.960155447214273e-05
192 1 14.865140327868854 14.606470819672133 5.7790541451276705e-05
193 1 17.50061049180328 14.538407868852461 9.201488071574915e-06
194 1 20.140725901639346 14.477363278688525 2.1321165307812474e-05
195 1 22.786193442622956 14.449542295081969 2.673890618588165e-05
196 1 25.434438032786886 14.453834098360657 6.533262841900468e-05
197 1 28.09050885245902 14.489077377049183 9.71072203855568e-05
198 1 30.768038688524594 14.563199344262296 4.0468556109146484e-05
199 1 33.457383606557386 14.652317377049183 5.131790616072967e-05
200 1 36.12481508196722 14.6963462295082 7.276766254256012e-05
201 1 38.75942688524591 14.698517377049182 7.222659900333246e-05
202 1 41.456143606557376 14.956782950819674 3.651637648906906e-05
203 1 44.27348524590165 14.958348196721312 3.641582142771872e-05
204 1 47.00448590163935 14.997277377049182 2.2591864595725744e-05
205 1 49.654952131147546 14.91033049180328 2.1887220178834965e-05
206 1 52.39786885245903 14.510384918032788 6.689257915400394e-05
207 1 55.130990163934435 14.645601967213116 2.804135419998748e-05
208 1 57.673252459016396 14.796673442622952 8.155455655817745e-05
209 1 60.233691803278695 14.686197377049183 4.917297968094313e-05
210 1 63.01730491803279 14.50144786885246 5.218618022238192e-05
211 1 65.71861639344263 14.390315409836067 1.7907103113862067e-05
212 1 68.41184918032788 14.307761311475412 1.0216552640343235e-05
213 1 71.15607868852459 14.366533770491804 8.7600825348215e-06
214 1 74.62537049180328 14.40480655737705 5.777171217925652e-05
215 1 76.14517377049181 14.570419672131148 9.985100418978698e-06
216 1 78.73237377049182 14.758905573770493 9.511685619346061e-05
217 1 81.31957377049181 14.537347540983607 4.387664190201974e-05
218 1 82.65457704918035 16.971607868852463 2.8448645757474325e-05
219 1 2.509977836065574 17.001751475409836 5.823064194140623e-05
220 1 5.066650491803279 17.02164524590164 8.611161711203861e-05
221 1 7.222852459016394 16.252301639344264 7.97097521786813e-05
222 1 10.950359344262296 17.000337704918035 8.615756468312081e-05
223 1 13.549020983606558 16.968830819672135 3.597941844584486e-05
224 1 16.1624262295082 16.910512786885246 5.936622844168115e-05
225 1 18.79542229508197 16.847499016393442 5.673673343431845e-05
226 1 21.43881967213115 16.803621639344264 2.6710939343584128e-05
227 1 24.084388196721314 16.79306885245902 2.516194374885945e-05
228 1 26.721373114754098 16.80725704918033 3.086316041760583e-05
229 1 29.364265573770496 16.841187540983608 2.6358929306175284e-05
230 1 32.04674360655738 16.91389573770492 2.7783812345161463e-05
231 1 34.72386950819672 17.00594229508197 8.242239676416298e-05
232 1 37.3274793442623 17.053303606557378 7.137298373914558e-05
233 1 39.93285639344263 17.085416393442625 6.293145237625637e-05
234 1 42.687083278688526 17.084204590163935 3.576088836853447e-05
235 1 45.53880983606558 17.20523344262295 8.422097956808377e-05
236 1 48.69762754098361 17.235427540983608 3.231898458155904e-05
237 1 51.32693770491804 16.873300327868854 6.2435694219353e-05
238 1 53.92423606557378 16.799329836065574 6.973360070735898e-05
239 1 56.512950819672135 17.15408524590164 5.9930685176417465e-05
240 1 59.08500327868853 17.163981639344264 8.37041335508761e-05
241 1 61.73935737704918 16.768226885245905 3.0252354279314497e-05
242 1 64.41643278688525 16.71824 3.5237327483592542e-06
243 1 66.8940655737705 16.626496393442622 7.473869536685653e-05
244 1 69.55952786885247 16.562523278688527 9.991856073871772e-05
245 1 72.10633442622951 16.923287213114754 1.3718464984928358e-05
246 1 74.62284590163935 16.990693770491802 1.712320527396808e-05
247 1 77.38979672131148 17.017706885245904 2.4887254926891345e-05
248 1 80.07697049180328 17.00907278688525 1.082811192791029e-05
249 1 1.3645813770491806 19.39667868852459 8.824047812740507e-05
250 1 3.978900524590164 19.388499016393443 8.758159022199235e-05
251 1 6.664564590163935 19.149167868852462 9.196880772203838e-05
252 1 9.397281967213116 19.130687868852462 1.9132936791979837e-05
253 1 12.097381639344263 19.326747540983607 9.023703815831948e-05
254 1 14.760622295081967 19.288272786885248 5.302212137112522e-05
255 1 17.410078688524592 19.21844262295082 7.133132153028489e-05
256 1 20.06776524590164 19.16148786885246 7.346529636491227e-05
257 1 22.72676459016394 19.137049836065575 9.9751446253732e-05
258 1 25.372080655737705 19.14881442622951 7.998254226693107e-05
259 1 27.981497049180334 19.16689049180328 7.060514703445309e-05
260 1 30.59343803278689 19.180876721311478 4.209591442189555e-05
261 1 33.30151540983607 19.27464 1.2486238484068668e-05
262 1 35.98677049180328 19.415613114754102 1.5970479546601703e-05
263 1 38.623149508196725 19.435557377049182 9.19206041101458e-05
264 1 41.32744 19.288727213114758 2.364326531469304e-05
265 1 44.18668983606558 19.198346885245904 8.234846426733067e-05
266 1 46.46957573770492 18.420975081967214 4.790939289373705e-05
267 1 50.31084065573771 19.311044590163934 4.423240039630194e-05
268 1 52.8724918032787 19.141493114754102 7.05959523878119e-05
269 1 55.0784786885246 20.53289573770492 1.698407309561516e-05
270 1 57.84340983606558 19.6096531147541 5.292538568344445e-05
271 1 61.39500327868853 19.00137836065574 2.3994778556840224e-05
272 1 62.94308196721312 19.00864918032787 1.3700837997556959e-05
273 1 65.57976393442624 19.126143606557378 8.209069862901566e-05
274 1 68.18514098360656 18.869190819672134 7.962076960523115e-05
275 1 70.80415081967215 19.07600524590164 7.446164715666313e-05
276 1 73.39589508196721 19.339471475409837 1.6099408620577217e-05
277 1 76.1189180327869 19.22036131147541 2.814012712666908e-05
278 1 78.81568524590165 19.305944918032786 1.1440291734179443e-05
279 1 81.4432786885246 19.375320655737706 7.896617901317856e-05
280 1 0.12497377704918035 21.7557062295082 9.853478002835544e-05
281 1 2.7892833442622953 21.76030098360656 2.462537287810961e-05
282 1 5.380961967213115 21.578379016393445 6.467906221747605e-05
283 1 8.094542950819674 21.419733770491803 4.573140192970695e-05
284 1 10.737182950819673 21.522484590163938 4.4182285246944186e-05
285 1 13.363110163934428 21.62543737704918 4.919679313583137e-06
286 1 16.01029442622951 21.579994754098365 5.1165282099280434e-05
287 1 18.671262950819674 21.510720000000003 8.998775492866371e-05
288 1 21.353387540983608 21.472548196721313 8.955044929231944e-05
289 1 24.027483934426233 21.480980327868856 6.099691101748581e-05
290 1 26.661994754098362 21.528139672131147 7.814028069828195e-05
291 1 29.193855737704922 21.537581639344264 3.280576251489451e-05
292 1 31.701531147540987 21.487392786885245 4.782750585156513e-05
293 1 34.3474531147541 21.632657704918035 8.701152870688616e-05
294 1 37.41013442622951 21.783628196721313 6.388309734424727e-05
295 1 40.402278688524596 21.580348196721314 8.659135311488423e-05
296 1 43.17796459016394 21.246142950819674 5.3081963457028997e-05
297 1 46.03585114754099 21.168840000000003 2.2028728391350595e-05
298 1 48.743019672131155 21.376563278688526 3.594498516276995e-05
299 1 51.4748786885246 21.602211147540984 2.0685693300790986e-05
300 1 54.22213770491804 21.82149704918033 5.620446174261944e-05
301 1 56.70532459016394 22.106068852459018 7.553919516465476e-05
302 1 59.153167213114756 22.065776393442626 3.4782524919591673e-05
303 1 61.52880655737705 21.57741967213115 8.732506895289528e-05
304 1 64.27808524590165 21.438314754098364 2.0433061139159015e-05
305 1 67.72112131147541 21.14112 6.926883570484624e-05
306 1 69.25506229508197 21.255080000000003 8.438493243731678e-05
307 1 71.88164590163935 21.525615081967217 3.1940523237440824e-05
308 1 74.66071475409836 21.503348196721316 4.498655260486451e-06
309 1 77.49936393442624 21.540762622950822 5.663546995909169e-05
310 1 80.13402622950821 21.692238032786886 6.933832978158983e-05
311 1 1.5383640655737707 24.09463803278689 6.34214991397554e-05
312 1 4.247405836065574 24.071007868852462 4.491056230206916e-05
313 1 6.849718032786886 23.762452459016394 3.825700596765455e-05
314 1 9.477160000000001 23.809864262295086 7.937734993153169e-05
315 1 12.003012459016395 23.935740327868857 3.3224718552115485e-05
316 1 14.629545573770493 23.938113442622953 7.14689268301464e-05
317 1 17.27420524590164 23.863688524590167 2.8385881893495625e-05
318 1 19.95117967213115 23.789920000000002 9.48608401694026e-05
319 1 22.667588196721315 23.78577967213115 9.938526834708086e-05
320 1 25.35582229508197 23.848339016393446 3.413358272021785e-05
321 1 27.991645901639348 23.962601967213114 2.5881921331809945e-05
322 1 30.48412327868853 23.944879344262297 7.86655924602501e-05
323 1 33.037998688524596 23.84576393442623 5.533509865752784e-05
324 1 35.058024262295085 22.991745573770494 8.845702327261072e-05
325 1 38.39936983606558 22.945697049180332 1.0893871619350782e-05
326 1 41.88668721311476 23.51827409836066 6.0290377332671457e-05
327 1 44.602843278688525 23.262735081967215 7.143456237024409e-05
328 1 47.20468590163935 23.539783606557382 2.0549378210365345e-05
329 1 49.866815737704925 23.74069049180328 8.645235502381288e-05
330 1 52.55489836065574 23.94482885245902 5.6786815116042434e-05
331 1 55.17744262295083 24.361941639344263 9.784450879620321e-05
332 1 57.89339672131148 24.543358688524595 1.919655328161598e-05
333 1 61.297049180327875 24.056062295081972 8.277335565447522e-05
334 1 62.79413114754099 23.73256131147541 5.3506544751651136e-05
335 1 65.17936393442623 23.95144327868853 4.08438146667783e-05
336 1 67.87916065573772 23.759422950819673 5.372967658873606e-06
337 1 70.56229508196722 23.72609836065574 2.9578688108265616e-05
338 1 73.18584918032788 23.70337704918033 5.727008765517118e-05
339 1 75.99874754098362 23.62567016393443 1.9345240684189527e-05
340 1 78.70460327868854 23.963409836065576 8.11198196281809e-05
341 1 81.4432786885246 24.041318688524594 4.85392334484878e-05
342 1 0.11646994754098361 26.300220983606557 5.373008790372076e-05
343 1 2.920627672131148 26.412110819672133 9.602471193022289e-06
344 1 6.443107540983607 26.07881442622951 6.108247575120953e-05
345 1 7.993811803278689 26.105524590163938 9.089099220475105e-05
346 1 10.584546229508199 26.307239344262296 4.868273343138196e-05
347 1 13.259147540983609 26.296434098360656 6.285779576661788e-05
348 1 15.919964590163938 26.238469508196726 2.81712128229622e-05
349 1 18.561140327868856 26.128144918032792 8.377154641336849e-05
350 1 21.242810491803283 26.050539016393447 6.389904194013724e-05
351 1 23.995977049180333 26.11077573770492 4.6292240019686136e-05
352 1 26.63816262295082 26.24977967213115 2.3927549903197766e-05
353 1 29.439245901639346 26.413625573770496 7.885415188488309e-05
354 1 32.11177704918033 26.241095081967213 9.992329451193726e-05
355 1 34.921040000000005 25.873716721311478 4.2385570605124906e-05
356 1 37.79882032786885 25.757181639344264 5.669270571360319e-06
357 1 40.63332918032787 25.92138098360656 3.027258067571581e-05
358 1 43.355948196721315 25.558395409836066 4.4564217093274586e-05
359 1 45.45297377049181 26.81846885245902 5.058990496478805e-05
360 1 48.249058360655745 25.938447213114756 8.56211632427676e-06
361 1 51.00530491803279 26.128599344262295 1.1249544117730714e-07
362 1 53.5576655737705 26.45669508196722 3.812885519261007e-05
363 1 56.204445901639346 26.686281311475412 1.522327317072122e-05
364 1 58.8704131147541 26.949040655737708 6.022744718749091e-05
365 1 61.45862295081968 26.798625573770497 4.829036811625486e-05
366 1 63.96352131147542 26.357125245901642 3.4763608314062147e-05
367 1 66.78752786885246 26.058213770491808 3.472085653833113e-05
368 1 69.55952786885247 26.034482622950822 1.3236455544493342e-05
369 1 72.04473442622952 26.06073836065574 8.025986319901181e-05
370 1 74.85510819672132 25.768239344262298 3.2796844325226816e-05
371 1 77.24135081967215 27.059870163934427 9.553338681179568e-05
372 1 80.05828852459017 26.28012524590164 7.201709184530825e-06
373 1 1.2665666885245903 28.55235737704918 4.03871864782964e-05
374 1 3.957628327868853 28.846068196721316 2.861418005259697e-06
375 1 6.546464262295083 28.79032524590164 1.7132315624720273e-05
376 1 9.28236262295082 28.63481049180328 8.999241711480234e-05
377 1 11.973323278688525 28.637486557377052 3.428550512228595e-05
378 1 14.63469573770492 28.602293770491805 6.349449539442454e-05
379 1 17.30737836065574 28.52170885245902 4.4724499525938145e-05
380 1 19.85948655737705 28.37836262295082 3.1722208661152964e-05
381 1 22.50227803278689 28.29111278688525 2.8086163345593618e-05
382 1 25.055244590163937 28.514185573770497 6.831668397037952e-05
383 1 27.658702950819674 28.505349508196723 5.6031956129884386e-05
384 1 31.4553331147541 28.573765901639344 7.65206764325654e-05
385 1 33.79729442622951 28.20557967213115 6.70715686129792e-05
386 1 36.50824983606558 27.947112131147545 2.8649659856284884e-05
387 1 39.211631475409845 28.058951475409838 7.088510616086217e-05
388 1 42.85648327868853 27.81356131147541 8.373609766476614e-05
389 1 44.40309770491803 27.940851147540986 3.7118276583730904e-06
390 1 46.80554819672131 28.343876721311478 4.555107859780109e-05
391 1 49.448743606557386 28.229765245901643 4.292593360321923e-05
392 1 52.002518032786895 28.673992131147543 9.08837269225248e-05
393 1 54.664950819672136 28.88004918032787 3.882954666533848e-05
394 1 57.41675409836066 29.08615672131148 2.7575504901617886e-05
395 1 60.23217704918033 29.209609180327874 6.0615344993526824e-05
396 1 63.02740327868853 29.018497704918033 9.769215617630867e-05
397 1 66.3285573770492 28.025273442622954 6.213865780653716e-06
398 1 67.84937049180328 28.181141639344265 8.085577450645055e-05
399 1 70.94300327868852 28.547611147540984 2.4635202819758506e-06
400 1 73.6584524590164 28.061375081967213 5.637269237359286e-05
401 1 76.41833442622952 28.354025573770496 9.922460342128636e-06
402 1 78.82881311475411 28.677072131147543 9.025809449522805e-07
403 1 81.37057049180329 28.551246557377052 7.724831600807624e-05
404 1 82.44958032786886 30.917393442622956 8.155406487374116e-05
405 1 2.3414412459016396 30.932742950819677 1.6626204369726616e-05
406 1 5.093764590163935 31.163793442622953 5.3395009958837824e-05
407 1 8.27444524590164 31.01044983606558 2.162160486829896e-05
408 1 10.902897049180329 30.95869573770492 7.048739678206728e-05
409 1 13.43804 30.962735081967214 3.709201321882072e-05
410 1 16.165910163934427 30.867810491803283 5.334299284638829e-05
411 1 18.856012459016398 30.836556065573774 1.0494791793988834e-05
412 1 21.438163278688528 30.613533770491806 5.9884344112049685e-05
413 1 23.675960000000003 31.983224918032793 2.937292635391119e-05
414 1 26.231754098360657 30.87896918032787 4.3771496964511547e-05
415 1 28.84308918032787 30.892450491803285 8.942053062081935e-06
416 1 30.4050531147541 29.68095016393443 8.655384426093014e-05
417 1 34.924473442622954 30.279530491803282 8.850857037532266e-05
418 1 37.55953967213115 30.273673442622954 8.362277342113137e-05
419 1 40.170773770491806 30.5097731147541 3.781356809642534e-05
420 1 42.704351475409844 30.470086557377055 9.25392439042908e-06
421 1 45.468070819672135 30.602122622950823 4.388497947590101e-05
422 1 48.17251278688525 30.56284 9.101808325522745e-05
423 1 50.39097114754099 31.90960786885246 4.124395516283893e-05
424 1 53.20876721311476 31.094468196721312 7.053181158088136e-05
425 1 55.92270163934427 31.201359344262297 2.315291534643771e-06
426 1 58.6472393442623 31.299161967213116 7.080770841518226e-05
427 1 61.36066885245902 31.29290098360656 3.466405473009121e-05
428 1 65.08292459016394 31.197320000000005 6.358045441388887e-05
429 1 67.17076065573771 30.276652459016397 8.406346810806365e-05
430 1 68.53302950819672 29.554518688524592 4.343798672407866e-05
431 1 73.07931147540985 30.35966098360656 3.681107255617457e-05
432 1 74.6172918032787 30.349158688524593 2.401705963041346e-05
433 1 77.19136393442624 30.927845245901644 1.7884164727879625e-05
434 1 79.89015081967213 30.984648524590167 9.496783876301876e-05
435 1 1.0139915409836067 33.28707475409837 7.807375501634442e-05
436 1 3.721397377049181 33.21285180327869 1.1773454743541346e-05
437 1 5.937987540983608 32.439418360655736 2.7479927911076676e-05
438 1 9.577335737704919 33.336354754098366 9.434617613737803e-05
439 1 12.376399344262296 33.41345573770492 9.15277484129459e-05
440 1 15.043881311475412 33.16670229508197 1.2681059846830234e-05
441 1 17.665062295081967 33.153422950819674 5.33207169899017e-05
442 1 20.34728786885246 33.11797770491804 3.02942878333762e-05
443 1 23.081570491803284 33.400277377049186 6.639870348132057e-05
444 1 25.627973114754102 33.504643934426234 4.155222870588797e-05
445 1 28.138425573770498 33.06329508196722 9.971552814738428e-05
446 1 30.804140327868858 32.67370032786885 8.467778071006448e-05
447 1 33.34564524590164 32.3663062295082 7.142633152112018e-05
448 1 36.01570229508197 32.59296393442624 6.0390834677707054e-05
449 1 38.75064131147541 32.716113442622955 2.5534274612031194e-05
450 1 41.46250557377049 32.87718229508197 6.754612401932425e-05
451 1 44.11898032786886 32.78230819672132 3.725380056976193e-05
452 1 46.795197377049185 32.88707868852459 1.2801200657778889e-05
453 1 49.52604655737705 33.18205180327869 9.384306713092325e-05
454 1 52.042911475409845 33.47515672131148 4.594792499921553e-05
455 1 54.60082622950821 33.41284983606558 6.3495205552375e-05
456 1 57.17338360655739 33.49757508196722 5.69191414565007e-05
457 1 59.74644590163935 33.53998819672131 2.3593104821922673e-06
458 1 62.26497704918033 33.77699672131148 3.085354653372999e-05
459 1 64.7764393442623 33.65480655737705 8.450460828540439e-05
460 1 67.35000655737706 33.02057901639345 6.571938602137835e-05
461 1 70.11897704918034 32.8114924590164 8.614054414626918e-05
462 1 72.7228393442623 32.96635081967213 6.171486493338647e-05