# input file

2232 atoms
1 atom types

0.0 82.68810555352132 xlo xhi
0.0 83.16 ylo yhi
-10.0 10.0 zlo zhi
0.0 0.0 0.0 xy xz yz

Masses

1 12.0100 #C

Atoms

1 1 0.979091606557377 1.0304064262295083 8.10979556959354e-05
2 1 3.62340793442623 0.9833733114754099 2.6278465858735012e-05
3 1 6.407914754098361 0.9302963278688525 5.543771392067956e-05
4 1 9.082819016393444 0.9260600655737705 2.26657281447652e-06
5 1 11.741868852459017 0.7416640000000001 9.506507439585127e-05
6 1 14.566026885245902 0.6974685245901641 4.4072658528503884e-05
7 1 18.11767081967213 0.5476593442622951 2.168223381175091e-05
8 1 19.668324590163934 0.5369803278688524 3.215249247810279e-05
9 1 22.344289180327873 0.7620020983606558 4.01367391277915e-05
10 1 25.04913508196722 0.8243039344262295 2.3350170485584978e-05
11 1 27.720353442622955 0.8741393442622951 4.939579211687022e-05
12 1 30.394500327868855 0.9036619016393443 5.1741325880915194e-05
13 1 33.08278491803279 0.9156890491803279 1.4329275503546723e-05
14 1 35.863368524590165 1.1376914098360655 9.121238633778672e-05
15 1 39.03374885245902 1.1604783606557378 9.719102920670879e-05
16 1 41.75682229508197 0.9436160655737705 1.4404096526116172e-05
17 1 44.377397377049185 0.9575063606557378 2.837403674090211e-06
18 1 46.96035606557378 1.0179147540983609 2.627227866952535e-05
19 1 50.67811803278689 0.6069064262295082 9.499311948687156e-05
20 1 52.192872131147546 0.8067883278688526 4.7913646292446366e-05
21 1 54.73059016393443 0.8122666885245903 7.732064287369434e-05
22 1 57.205698360655745 0.27909394754098366 6.642892302765598e-05
23 1 59.7984524590164 0.11775546885245904 4.605569828322501e-05
24 1 62.388177049180335 0.47568630819672136 2.5156436187352772e-05
25 1 64.76028196721312 0.5457457049180328 1.3815238910242967e-05
26 1 67.39342950819672 0.4926848786885246 4.134931951049541e-05
27 1 69.98062950819673 0.7493892459016395 5.975279925994984e-05
28 1 72.59156065573771 0.6084918688524591 5.7261912470492454e-05
29 1 75.4332393442623 0.4598763147540984 2.1821358679490433e-05
30 1 78.22947540983607 0.5646296393442624 1.2217969070005309e-05
31 1 80.97471475409837 0.7076527213114755 4.442543268448285e-05
32 1 82.18500327868854 3.1052761967213116 2.3609545658470543e-05
33 1 2.2770995409836066 3.295675737704918 6.196237042802394e-05
34 1 5.050341639344262 3.1991960000000006 5.6573502736546114e-05
35 1 7.734637377049181 3.272141508196722 6.818555633043623e-05
36 1 10.438978360655739 3.1635790819672134 9.713016978804204e-05
37 1 13.142360000000002 2.854599540983607 8.062722044064368e-05
38 1 15.39389049180328 4.2439118032786896 3.3812794431039386e-05
39 1 18.06122098360656 3.1401003934426233 5.899931621169121e-05
40 1 20.900021639344263 2.9776278688524593 1.834801586310042e-05
41 1 23.643493770491805 3.0877302950819674 6.045516951493283e-05
42 1 26.320114754098363 3.1664520655737705 1.1480538109920958e-05
43 1 28.982800000000005 3.196020065573771 2.9903174023248924e-05
44 1 31.658865573770495 3.191894885245902 7.905382331462614e-05
45 1 34.33902098360656 3.1807059016393446 2.6424396124128246e-05
46 1 36.65326229508197 2.458875081967213 5.20668489246095e-05
47 1 40.36334950819673 3.2820833442622956 7.476928543735091e-05
48 1 42.92065836065574 3.3152968524590167 1.7918391012471913e-05
49 1 45.556380983606566 3.405964983606558 7.25468780695665e-06
50 1 48.85485901639345 3.3070060983606564 8.754141399831125e-05
51 1 50.3760255737705 3.1769139672131153 1.2098197641316433e-05
52 1 53.196144262295086 3.1996958688524595 5.656500631471455e-05
53 1 56.642714754098364 2.842819803278689 6.482750745348408e-05
54 1 58.13474754098361 2.477794360655738 8.32154842998304e-06
55 1 60.73659016393444 2.584352262295082 7.570487613105279e-05
56 1 63.45456393442624 3.0284781639344267 3.3535115854249734e-05
57 1 66.1159868852459 2.925323409836066 6.699668914246467e-05
58 1 68.6996524590164 2.9974963934426233 9.613260222700876e-05
59 1 71.31916721311475 3.0063930491803283 8.299785567391728e-05
60 1 74.0396655737705 2.699352393442623 1.9519381733162035e-06
61 1 76.78389508196722 2.704017836065574 3.2852598806814446e-05
62 1 79.456931147541 2.8593457704918035 6.162057868193287e-05
63 1 0.7641227540983607 5.372529836065574 1.899677633858703e-05
64 1 3.404970295081968 5.431908196721311 7.107998762753077e-06
65 1 6.14768 5.557986229508197 1.2201144387930596e-05
66 1 9.258782950819672 5.532740327868853 5.6708139057552724e-05
67 1 11.988319344262296 5.2797259016393445 7.696167931743128e-05
68 1 14.643582295081968 5.5754059016393445 4.775249950417989e-05
69 1 17.171302950819673 5.66952262295082 4.6368093098329177e-05
70 1 19.743557377049182 5.229991475409837 4.7166413395235485e-05
71 1 22.38508655737705 5.296539672131148 9.686148735443011e-05
72 1 25.012730491803282 5.4488734426229515 9.062213931115251e-05
73 1 27.64582754098361 5.507494426229509 8.527072457083907e-06
74 1 30.344614426229512 5.495628852459017 1.2302658242251376e-05
75 1 33.09545836065574 5.462152786885246 1.9889083536922394e-05
76 1 35.84711016393443 5.262306229508197 2.5371848153737376e-05
77 1 38.65516131147541 5.344355409836066 9.303883462392515e-06
78 1 41.339356065573774 5.678510163934426 9.369447232072371e-05
79 1 43.933422950819676 5.694213114754099 7.527057104055531e-05
80 1 46.5935331147541 5.962324590163935 2.631771577773712e-05
81 1 49.20300000000001 5.8749232786885255 1.6510159908432456e-05
82 1 51.85356721311476 5.358796065573771 3.1211243841213636e-05
83 1 54.18780327868853 6.7495927868852466 6.04947478308131e-06
84 1 56.779042622950826 5.492750819672132 6.053992190520942e-05
85 1 59.47530491803279 4.866132393442624 6.761698642459561e-05
86 1 62.00544918032787 5.861744918032787 3.371509516417034e-05
87 1 64.9415475409836 5.339609180327869 3.7524755996433744e-05
88 1 67.63124590163935 5.3660668852459015 5.737432898433637e-06
89 1 70.19067540983608 5.357180327868853 9.023926859459789e-05
90 1 72.67386229508197 5.0875036065573775 2.5526526963881937e-05
91 1 75.52260983606558 4.928459475409837 7.723469579535043e-05
92 1 78.05224918032788 5.0737698360655745 6.890689551951395e-05
93 1 80.64702295081969 5.199948852459017 6.89985686998269e-05
94 1 81.88255737704918 7.4105304918032795 1.1192968884839384e-05
95 1 1.8900344262295086 7.722468852459016 2.4448032249330888e-05
96 1 4.646755606557377 7.69580918032787 9.575521700578142e-05
97 1 6.922123278688526 6.8923331147540985 7.676378859737621e-06
98 1 10.645590819672131 7.621990163934426 4.0798677783855724e-05
99 1 13.211685245901641 7.721913442622951 6.144883035398075e-05
100 1 15.787272131147542 7.988510163934428 5.691127615163317e-06
101 1 18.435466229508197 7.758974426229509 2.165124072454795e-05
102 1 21.076793442622954 7.5919475409836075 7.549386802742541e-05
103 1 23.66863868852459 7.729335737704918 7.816494944073746e-05
104 1 26.34531016393443 7.838700983606558 7.575374802631811e-05
105 1 29.026879344262298 7.79472262295082 9.229724159700068e-05
106 1 31.778127213114757 7.712067540983607 6.065832144805622e-05
107 1 34.419403934426235 7.600430163934427 1.9491223446661744e-05
108 1 36.99504131147542 7.484299016393444 5.040978872203417e-05
109 1 39.68196262295083 7.807699016393443 9.312210738670945e-05
110 1 42.694202622950826 8.079849836065575 7.507935829157979e-05
111 1 45.4039462295082 8.084848524590164 2.3630591460154185e-05
112 1 48.11682032786886 8.228295737704919 2.0941090109405758e-05
113 1 50.855344262295084 7.918780983606558 3.903815578565961e-06
114 1 53.56776393442623 8.154880655737706 5.676668881453773e-05
115 1 56.094878688524595 8.096007213114756 9.521533351197611e-05
116 1 58.6896524590164 7.413761967213115 2.4876487898074274e-05
117 1 61.47175081967214 7.2933895081967215 6.112083873401892e-05
118 1 63.94231475409836 8.614457049180329 6.727063273923873e-05
119 1 66.7087606557377 7.641379016393444 2.0299724324010083e-05
120 1 69.35150163934428 7.752158032786887 2.4963246977515053e-05
121 1 71.75541639344263 7.667079344262295 3.6783375678871247e-06
122 1 74.1936655737705 7.065772459016394 9.896865269334827e-05
123 1 76.81671475409837 7.4085108196721325 8.351759244118264e-05
124 1 79.17266229508198 7.484652459016393 8.70236541136064e-05
125 1 0.5457709508196722 10.71001836065574 8.771140152083557e-06
126 1 3.482404524590164 9.917044590163934 1.25664695570618e-05
127 1 6.281988196721311 9.736637377049181 9.293116314651252e-05
128 1 9.074336393442625 9.742040000000001 7.641261743147392e-05
129 1 11.800186885245903 10.039638688524592 2.6477703615687867e-05
130 1 14.449390819672132 10.206615081967215 1.2959594252337026e-05
131 1 17.018363278688525 10.15168 5.446257406784303e-05
132 1 19.619499016393444 9.957740983606557 8.674231178515179e-06
133 1 22.056435409836066 10.010504918032789 7.34803701886161e-05
134 1 24.76829967213115 10.08780786885246 6.717947964395434e-05
135 1 27.93605442622951 10.12012262295082 6.0524273371347476e-05
136 1 30.631205901639348 9.969707540983608 7.661646500176492e-05
137 1 33.184121967213116 9.989500327868853 5.1959456656316705e-05
138 1 35.66135081967214 9.921538360655738 3.3038766993422155e-05
139 1 38.17175278688525 9.882710163934428 8.499844397800126e-05
140 1 40.38349573770492 9.18344918032787 1.591878512184074e-05
141 1 43.97467475409836 10.306639344262297 1.1124884428864513e-05
142 1 46.691335737704925 10.394646557377051 6.040774847625749e-05
143 1 49.465153442622956 10.295985573770492 4.1296469404323156e-05
144 1 52.21559344262295 10.324059016393443 7.268824207676909e-05
145 1 54.844196721311484 10.526884590163936 1.811862231492142e-05
146 1 57.51723278688525 10.040648524590164 8.917760025451455e-05
147 1 60.2680262295082 9.587939016393443 7.52956571242161e-05
148 1 63.07234098360656 9.87145049180328 9.742505915798069e-05
149 1 65.71659672131148 10.053978360655739 6.339993905674268e-06
150 1 68.42346229508198 10.005960655737706 3.060859178485751e-05
151 1 70.95360655737706 10.256652459016395 5.439515635112484e-05
152 1 75.0560655737705 10.550413770491804 5.8022360002809316e-05
153 1 74.42845245901641 9.144065573770492 5.906498417064821e-06
154 1 77.9472262295082 9.99040918032787 4.612521679585066e-05
155 1 80.70256393442624 9.670038688524592 7.18244697723665e-05
156 1 82.41878032786886 12.014827540983609 2.3060921540509263e-05
157 1 2.344637377049181 12.074609836065576 8.750487189527353e-05
158 1 5.008579868852459 12.045324590163936 1.6053607029288753e-05
159 1 7.773213114754099 11.970596721311475 1.2344973537742721e-05
160 1 10.519260327868853 12.145146885245902 1.2518301818111144e-05
161 1 13.215825573770493 12.431788852459018 6.345232546483315e-05
162 1 15.940514754098361 12.548929836065575 9.803451779346829e-06
163 1 18.586537704918033 12.354233442622952 2.5942910826975687e-05
164 1 20.901485901639347 13.635563934426232 6.6943679274654396e-06
165 1 23.396689836065576 12.283595409836067 1.2250290106331054e-06
166 1 25.64443344262295 11.3490931147541 4.6649618776212615e-05
167 1 29.36668918032787 12.288341639344264 4.5462453271263825e-05
168 1 31.96933967213115 12.371350163934427 9.738120344230347e-05
169 1 34.49993836065574 12.41128918032787 6.33172957341475e-05
170 1 36.99367803278689 12.310659016393444 5.207726815385626e-05
171 1 39.654293114754104 12.031540327868854 4.6798811099368654e-05
172 1 42.28476459016394 12.353223606557378 3.240822106222422e-05
173 1 45.06868065573771 12.569429508196722 2.2331467541630913e-05
174 1 47.93101049180328 12.53756918032787 7.4177131310767645e-06
175 1 50.68619672131148 12.533883278688526 1.732527782003445e-05
176 1 53.36074754098361 12.792148852459018 6.84872377137601e-05
177 1 56.38015737704919 12.569782950819674 2.2239858979631255e-05
178 1 59.062281967213124 11.998266229508197 1.3810197566098536e-05
179 1 61.682806557377056 11.898241967213115 9.508803253615326e-05
180 1 64.27758032786886 12.22835737704918 7.552130719230806e-05
181 1 66.98798032786885 12.251482622950821 4.77334860964925e-05
182 1 69.52014426229509 12.593312131147542 4.459160361275475e-05
183 1 71.8796262295082 12.819919344262297 3.6708626265796256e-05
184 1 74.30575737704918 12.818657049180329 4.470346303120376e-09
185 1 76.98535737704918 12.334794098360657 5.795082828400456e-06
186 1 79.69222295081968 12.072893114754098 7.711784269039105e-05
187 1 1.3201485901639347 14.303873442622953 9.987962808107497e-05
188 1 3.70040793442623 15.377783606557378 1.1759790574588269e-05
189 1 6.45992131147541 14.238638032786886 3.410790661128235e-05
190 1 9.30200393442623 14.295037377049182 6.651481237744081e-05
191 1 11.948178360655739 14.570116721311477 5.056437695642075e-05
192 1 14.639240000000003 14.76057180327869 6.427945027085254e-05
193 1 17.376501639344262 14.800965245901642 2.3136321914080516e-05
194 1 20.18142229508197 15.003336393442625 8.63860346737423e-05
195 1 23.56401967213115 14.516292459016395 8.476532792814767e-05
196 1 25.06554491803279 14.190418360655737 9.618352479670156e-05
197 1 27.73242098360656 14.326998688524592 2.509392130488637e-05
198 1 30.554811803278692 14.669484590163936 3.920308470104989e-05
199 1 33.20760065573771 14.814699016393444 1.5448016436180333e-05
200 1 35.89775344262295 14.807832131147544 8.126698746503126e-06
201 1 38.55155213114754 14.450148196721313 2.3621865743526862e-05
202 1 40.85160524590164 15.701335081967216 8.263855503588759e-05
203 1 43.68823475409837 14.68705573770492 1.0373979733533634e-05
204 1 46.46139606557378 14.657921967213117 2.3164104246893914e-05
205 1 49.369118032786886 14.749059672131148 6.090804146142826e-05
206 1 52.034327868852465 14.924367213114756 8.045291887963649e-05
207 1 54.14640000000001 14.125738360655738 8.504398576286553e-05
208 1 57.84038032786886 14.468931147540985 8.394480998958596e-05
209 1 60.45939016393443 14.260702950819674 3.0439391044247013e-05
210 1 63.10364590163935 14.363554754098361 3.63012242092293e-05
211 1 65.781731147541 14.44146360655738 3.342682635122078e-05
212 1 67.79433442622951 16.013323934426232 2.5086266942554004e-06
213 1 70.64257704918033 15.280788852459018 8.58351097368668e-05
214 1 73.19089836065574 15.294320655737707 8.465162998744825e-05
215 1 75.95582950819673 14.821868852459017 7.2340066143525065e-06
216 1 78.67834754098362 14.46867868852459 4.1411772911400145e-05
217 1 81.35340327868855 14.310285901639345 9.923238117958563e-05
218 1 0.239579062295082 16.630232786885248 7.093387972932212e-05
219 1 2.944878885245902 16.715311475409838 4.2488700113653545e-05
220 1 5.4052485245901645 16.666485901639344 1.7404307543342692e-05
221 1 8.066721967213116 16.367019016393442 1.6687099352185355e-05
222 1 10.691285901639345 16.760703606557378 9.874748771949253e-05
223 1 13.297420327868853 16.973375081967216 9.778337634645821e-05
224 1 15.934253770491805 17.063755409836066 3.594880880369219e-05
225 1 18.57436918032787 17.115307540983608 8.705079594090546e-05
226 1 21.18131147540984 17.47218360655738 8.436485669830851e-06
227 1 23.711809180327872 17.20099213114754 2.4218786441957964e-05
228 1 26.29714098360656 16.58711278688525 6.325887791175972e-05
229 1 29.05025704918033 16.63038426229508 3.0992386062811254e-05
230 1 31.727685901639347 17.083144262295082 4.8661169781830854e-05
231 1 34.44187278688525 17.138887213114756 2.6869697347989686e-05
232 1 37.30071868852459 16.992965901639344 5.8897527829244656e-05
233 1 40.17344983606558 17.106017049180327 6.216842254261782e-05
234 1 42.77069770491804 17.00735606557377 7.531221249048903e-06
235 1 45.37663016393443 16.875219016393444 1.841685926146114e-05
236 1 47.9269206557377 16.71561442622951 1.326908722981981e-05
237 1 50.67458360655738 17.132878688524592 1.1129282564833832e-05
238 1 53.780334426229516 17.04507344262295 2.7980329546342122e-05
239 1 56.531127868852465 16.79428065573771 2.5628257597577908e-05
240 1 59.11883278688525 16.655024262295083 5.139093163719665e-05
241 1 61.665639344262296 16.595999344262296 9.662217111122958e-05
242 1 64.22456393442623 16.671535081967217 9.40046324362275e-05
243 1 66.74814426229509 17.15908393442623 8.960594998163225e-05
244 1 69.24849836065574 17.665567213114755 6.237696740834298e-06
245 1 72.21135737704918 17.744031475409837 7.119695032933064e-05
246 1 74.92579672131149 17.217805901639345 2.043206547556643e-05
247 1 77.65942295081969 16.86683737704918 6.630711108878055e-05
248 1 80.30519344262295 16.690520000000003 4.4937427907068876e-05
249 1 1.7017757377049183 18.956137704918035 8.280676312679704e-05
250 1 4.328081639344262 19.10362426229508 4.777042852561634e-05
251 1 7.010130491803279 18.728975081967214 6.805573011701864e-05
252 1 9.193547540983607 20.027573770491806 5.366817898880477e-05
253 1 12.03169180327869 19.235205901639347 6.234188381998957e-05
254 1 14.586274098360658 19.382692459016393 8.750657197149964e-05
255 1 17.24537442622951 19.441919344262296 5.094945061451815e-05
256 1 19.93971803278689 19.606371147540987 4.621905051409251e-05
257 1 22.704851147540985 19.69155081967213 6.307069892224997e-05
258 1 25.33582754098361 19.19420655737705 3.6423209700473414e-06
259 1 27.91989704918033 18.79082754098361 8.260153086778019e-05
260 1 29.9184131147541 20.37066557377049 7.479327485738562e-05
261 1 32.8403737704918 19.448836721311476 3.4260817386761234e-06
262 1 35.72971672131148 19.25459475409836 6.418184445609629e-05
263 1 38.57760590163935 19.24712196721312 1.263219807137398e-05
264 1 42.36923737704918 19.15765049180328 8.67607466462895e-05
265 1 43.9170131147541 19.246768524590166 9.932430870130135e-05
266 1 47.46537508196722 18.973001967213115 2.696561442325045e-05
267 1 49.000123934426234 19.031269508196722 8.52570805195148e-05
268 1 51.39964590163935 18.488280655737707 1.8640411479643284e-05
269 1 55.173908196721314 19.15108655737705 1.6398297481427625e-05
270 1 58.695711475409844 18.873785573770494 2.4422998171148947e-05
271 1 60.24177049180329 18.9751731147541 3.518243131196942e-05
272 1 62.83351475409837 18.988957377049182 8.114589230366726e-05
273 1 64.89761967213116 20.427216393442624 2.5879303511597397e-06
274 1 67.6797180327869 19.736589508196726 7.883417123118645e-05
275 1 70.03263606557377 18.973456393442625 4.255270823023586e-05
276 1 73.97503606557378 19.652520655737707 4.7375371860224016e-05
277 1 76.65716065573771 19.226066885245903 5.394146175902903e-06
278 1 79.25193442622952 19.088224262295086 6.854713183324662e-05
279 1 81.83913442622952 19.00556918032787 8.526772114046345e-05
280 1 0.6282947540983608 21.381158032786885 7.248961913395427e-05
281 1 3.1756011803278694 21.347732459016395 2.2931777587534653e-05
282 1 5.840689836065574 21.146320655737707 8.333134608782447e-05
283 1 8.354575737704918 21.310166557377052 3.101974973631426e-05
284 1 10.785907540983606 21.5562131147541 3.483219253521486e-05
285 1 13.25404786885246 21.743436721311475 1.0850072261313948e-05
286 1 15.922186229508197 21.751616393442628 5.4568382479190663e-05
287 1 18.67000065573771 21.806299016393446 2.1687769368014133e-05
288 1 21.476385573770493 21.857093770491808 5.5702573608923736e-05
289 1 24.322659016393445 21.733994754098365 9.221275468358525e-05
290 1 27.05199344262295 21.314458360655742 6.546150933075996e-05
291 1 29.001582950819675 22.802401311475414 5.774113444681558e-05
292 1 31.721980327868856 21.863203278688527 8.698330342945957e-05
293 1 34.391986885245906 21.511729836065577 6.154280700879578e-05
294 1 37.06295278688525 21.437961311475412 5.5729437075121424e-05
295 1 39.669188196721315 21.68133180327869 5.906522508906743e-05
296 1 42.192768524590164 21.64467475409836 5.538070430862712e-05
297 1 44.97007016393443 21.72440131147541 2.3314768240835006e-05
298 1 47.62891803278689 21.509912131147544 8.443538170505339e-05
299 1 50.48786491803279 21.22619868852459 5.3409306054845634e-05
300 1 53.304701639344266 21.187521967213115 1.741171464509368e-05
301 1 56.0100524590164 21.605392131147546 5.8354067952253664e-05
302 1 58.66238688524591 21.54278229508197 4.0203497311941974e-05
303 1 61.44902950819672 21.408423606557378 4.008211209588603e-05
304 1 64.17255737704919 21.77953836065574 4.694978031134367e-06
305 1 66.78449836065575 22.06517049180328 9.482882054746187e-05
306 1 69.46359344262297 21.696984262295082 8.387096011939056e-05
307 1 71.70088524590165 20.72239147540984 5.2370885137381123e-05
308 1 75.40597377049181 21.64704786885246 8.834360762669423e-05
309 1 78.04568524590165 21.50466098360656 1.7034481348292276e-05
310 1 80.72326557377049 21.41185704918033 4.313824816183467e-05
311 1 2.17895862295082 23.75371737704918 3.607798665983982e-05
312 1 5.119818360655739 23.424106885245905 8.593447766811411e-05
313 1 6.692234098360656 23.592900983606558 8.052483252351026e-05
314 1 9.41828655737705 23.84596590163935 4.750762273799589e-05
315 1 11.787462950819673 25.06468655737705 3.8107452322859994e-05
316 1 14.596120000000003 24.08605442622951 8.687699803646589e-05
317 1 17.3513062295082 24.030614426229512 4.6766359610600784e-05
318 1 20.11825704918033 24.026827540983607 6.148301673797127e-05
319 1 22.896215081967217 23.969822295081972 6.862213265921392e-05
320 1 25.63645573770492 23.84985377049181 8.982538440166869e-05
321 1 28.255819016393446 24.160933770491805 2.0373535692368905e-05
322 1 30.662662295081972 24.373504262295082 8.085805346087816e-05
323 1 33.228201311475416 23.97280131147541 5.5586689391241677e-05
324 1 35.860843934426235 23.78113442622951 3.860154375733811e-05
325 1 38.4855593442623 23.876513442622954 5.460252076967608e-05
326 1 41.15612131147541 24.033088524590166 2.858431049286878e-05
327 1 43.83052065573771 23.871363278688527 8.065048132105866e-05
328 1 46.54511147540984 23.89428655737705 7.88375408722797e-05
329 1 49.23682950819673 23.539076721311478 6.063742409486017e-05
330 1 51.917186885245904 23.443950163934428 5.753954257418659e-05
331 1 54.613954098360665 23.645765901639347 3.2138957511470004e-05
332 1 57.385449180327875 23.8754531147541 3.722448105817089e-06
333 1 60.12160000000001 23.722866885245907 1.821116845667483e-05
334 1 62.77797377049181 23.855609836065575 3.436689148504002e-05
335 1 65.48988852459017 24.222331803278692 2.091303562606134e-05
336 1 68.32550819672132 24.115188196721313 9.093194042764594e-05
337 1 71.0899344262295 23.652531803278688 4.530498464864411e-05
338 1 73.8397180327869 23.812641311475414 3.4864128170905574e-05
339 1 76.56980983606557 23.86520327868853 5.2450862038044247e-05
340 1 79.40946885245901 23.741700327868852 4.2929341695412736e-05
341 1 82.16632131147541 23.765532459016395 1.5163594233193178e-05
342 1 0.5139964590163936 26.073664262295086 8.45534996510796e-05
343 1 3.055748786885246 26.64932131147541 3.571468178233045e-05
344 1 5.356321967213115 26.4927462295082 2.4417798918066794e-05
345 1 8.103681967213115 26.060940327868853 2.592423362613129e-05
346 1 10.909309508196722 26.33334360655738 1.6255624928680835e-05
347 1 13.501811147540986 26.507085901639346 2.8332364275046443e-05
348 1 16.12193180327869 26.302594098360657 2.428469131019947e-05
349 1 18.776841311475412 26.26361442622951 2.9070943437555575e-05
350 1 21.46931672131148 26.229633442622955 2.9836248331662796e-05
351 1 24.136798688524593 26.189593442622954 2.8166259845647004e-05
352 1 26.78196327868853 26.37903868852459 9.555602588795559e-05
353 1 29.28736655737705 26.736520655737706 6.358139494757374e-05
354 1 31.95242491803279 26.5074393442623 7.925658663833164e-05
355 1 34.670247213114756 26.188886557377053 2.012787596123955e-06
356 1 37.31738098360656 26.14581704918033 8.357825258961283e-05
357 1 39.978601967213116 26.221958688524595 4.1763603838722696e-05
358 1 42.670875409836064 26.22438229508197 7.367296793486644e-05
359 1 45.3378524590164 26.139455081967217 7.619488340428664e-05
360 1 48.00629377049181 25.988585573770493 3.881623243738985e-06
361 1 50.63822950819673 25.818832131147545 4.146412406282244e-05
362 1 53.29157377049181 25.83902885245902 2.5164612444233892e-05
363 1 56.00904262295083 25.970105573770496 9.52332071236279e-05
364 1 58.784577049180335 26.05533573770492 6.70868057783973e-05
365 1 61.48285901639345 26.13051803278689 7.164288183895063e-05
366 1 64.13973770491803 26.291738360655742 8.578957384518884e-05
367 1 66.92840000000001 26.31365180327869 1.0596298895146239e-06
368 1 69.74180327868854 26.090023606557377 2.2558515558681748e-05
369 1 72.49007213114756 26.008883278688526 7.925363211604462e-05
370 1 75.23026229508197 26.118349508196722 2.5648540915281827e-05
371 1 77.96035409836065 25.91860393442623 8.182870256368758e-05
372 1 80.6737836065574 25.98192065573771 9.400648093689488e-05
373 1 1.4554009836065576 28.68106098360656 1.926586000467434e-05
374 1 4.128553180327869 29.061718688524593 5.580812589893962e-05
375 1 6.790996065573771 28.50317836065574 1.1519937853015406e-05
376 1 9.447016393442624 28.415474098360658 2.6678581847671526e-05
377 1 12.118588196721314 28.753971147540987 3.445913140815845e-05
378 1 14.796521967213117 28.725645245901642 5.6337644252073164e-05
379 1 17.423105573770492 28.60557573770492 2.631754135810245e-05
380 1 20.053274098360657 28.541552131147544 7.407332964650379e-05
381 1 22.69162229508197 28.534584262295084 2.4844072642245664e-05
382 1 25.229239344262297 28.609312131147544 1.6587594819545936e-05
383 1 27.792455737704923 28.99724065573771 4.0636090863901264e-05
384 1 30.803433442622953 28.917362622950822 1.4766785565519448e-05
385 1 33.532818360655746 28.55483147540984 8.734124967347137e-05
386 1 36.145264262295086 28.465965901639347 8.84761670247452e-05
387 1 38.77765442622951 28.46970229508197 1.0751878515126857e-05
388 1 41.44720655737706 28.49060590163935 3.24803931820917e-05
389 1 44.11241639344263 28.477225573770497 2.7605670564532792e-05
390 1 46.74112065573771 28.373161967213118 4.031779413132106e-05
391 1 49.35306163934426 28.24713442622951 4.807621966336959e-05
392 1 51.985350819672135 28.1613993442623 2.666934572733222e-05
393 1 54.65333770491804 28.175436065573773 4.415717034357389e-05
394 1 57.36070819672132 28.2305731147541 8.784999755986543e-05
395 1 60.13927213114755 28.39088459016394 7.914156064587392e-05
396 1 62.82291147540984 28.55008524590164 2.755497910040151e-05
397 1 65.53331147540983 28.52049704918033 5.012741937929245e-05
398 1 68.34368524590164 28.380281311475414 7.339722015548071e-05
399 1 71.05862950819673 28.30535147540984 7.537773404015737e-05
400 1 73.79629508196722 28.347865573770495 9.242279892772288e-05
401 1 77.44382295081968 28.057638688524595 4.138701306962418e-05
402 1 78.98584262295083 28.155340327868856 5.3218948012445324e-05
403 1 81.57607213114754 28.426582295081968 3.445650701977756e-05
404 1 0.007659303606557377 30.934964590163936 6.673351974475629e-05
405 1 2.6506782950819674 31.127136393442626 2.9406193629594203e-05
406 1 5.387424918032788 31.009288524590165 9.414894731723469e-05
407 1 8.110700327868853 30.78162098360656 8.897624271786376e-05
408 1 10.80044918032787 30.863316721311477 5.403586105109705e-05
409 1 13.428446557377052 31.029081311475412 4.657120668870019e-06
410 1 16.055181639344262 30.998584262295086 4.6889784953308095e-06
411 1 18.673535081967216 30.911586885245903 3.071486612921162e-05
412 1 21.289565901639346 30.869123278688527 7.439390345432728e-05
413 1 23.94659606557377 30.986011803278693 8.965309411676697e-05
414 1 26.43841704918033 31.14627278688525 1.4432209177881728e-05
415 1 28.496816393442625 30.37824196721312 5.3632890088336794e-05
416 1 32.28627672131148 30.90754754098361 3.741459249496498e-05
417 1 34.89276459016394 30.831557377049183 9.540613327206183e-06
418 1 37.52106491803279 30.780257704918036 1.0535077040279351e-05
419 1 40.15936262295082 30.76657442622951 1.1531478217245428e-06
420 1 42.83568065573771 30.783287213114757 4.6743806270345135e-07
421 1 45.472564590163934 30.764453770491805 9.080343045120493e-05
422 1 48.04941377049181 30.668620327868858 3.7502538174406895e-05
423 1 50.67559344262296 30.545975737704918 8.606424351640033e-05
424 1 53.32893770491804 30.481346229508198 3.927563733529653e-05
425 1 55.956531147540986 30.482255081967217 1.3724695881229643e-05
426 1 58.57503606557378 30.50719803278689 1.3090657538712615e-05
427 1 61.286445901639354 30.78510491803279 5.1306500946914104e-05
428 1 64.35836721311476 30.835293770491806 1.6608448497233354e-05
429 1 67.07785573770492 30.62656065573771 3.6560252073643096e-05
430 1 69.66253114754099 30.625146885245904 5.175746957721904e-05
431 1 72.1805573770492 30.573342295081968 7.174929850510138e-05
432 1 74.78088524590164 30.742540327868856 1.1181348872303432e-05
433 1 77.40544918032788 30.65988524590164 4.0049744218849763e-05
434 1 80.1264524590164 30.676800000000004 3.34913342819535e-05
435 1 1.2481624262295083 33.36074229508197 1.4306610400154619e-05
436 1 3.9276866885245907 33.313481967213114 2.158362684153036e-05
437 1 6.6986465573770495 33.12353180327869 8.958421945225962e-05
438 1 9.551180983606558 33.0936406557377 8.868501979327263e-05
439 1 12.11096393442623 33.28465114754099 3.515136551670045e-05
440 1 14.688671475409837 33.3549862295082 1.615292979948113e-06
441 1 17.315961967213116 33.29888983606558 3.128284288138843e-05
442 1 19.92956918032787 33.23633049180328 1.859766418773138e-05
443 1 22.495714098360658 33.2272924590164 6.242742237559719e-05
444 1 25.154713442622953 33.509895081967215 9.120727000565788e-05
445 1 28.143626229508197 33.32287344262296 3.53981210753185e-05
446 1 30.82277180327869 33.04178557377049 1.74109809800998e-05
447 1 33.47939803278689 33.18366754098361 2.0601405351922087e-05
448 1 36.17853836065574 33.116311475409844 3.915804304460624e-06
449 1 38.81931016393443 33.08369377049181 5.0218000371569074e-05
450 1 41.43811803278689 33.056175737704926 5.5670028147785115e-05
451 1 44.147255737704924 33.10495081967213 3.14751248770109e-05
452 1 46.74601836065575 33.10560721311476 2.9917985809495453e-06
453 1 49.3726524590164 32.950597377049185 5.956569919124681e-05
454 1 52.064622950819675 32.829467540983615 5.370193561654936e-05
455 1 54.67605901639345 32.822348196721315 1.4715561889887719e-05
456 1 57.27992131147542 32.836435409836064 5.7496191868683356e-05
457 1 59.87368524590165 32.866023606557384 9.487193076141185e-05
458 1 62.04887213114755 32.12778295081967 9.958096914143805e-05
459 1 65.75194098360657 32.95382885245902 1.522412824348669e-05
460 1 68.34267540983608 32.999574426229515 2.5804640486584385e-05