# input file

2232 atoms
1 atom types

0.0 82.68810555352132 xlo xhi
0.0 83.16 ylo yhi
-10.0 10.0 zlo zhi
0.0 0.0 0.0 xy xz yz

Masses

1 12.0100 #C

Atoms

1 1 1.6096180983606558 0.41455133770491803 2.090334874277724e-05
2 1 3.7341011147540986 1.7311468196721314 5.408383973601595e-05
3 1 7.766800655737706 0.511820262295082 3.7218761794032055e-06
4 1 10.453318032786886 0.03936825704918033 5.6299197870890873e-05
5 1 11.998114754098362 0.052921468852459026 4.8304510788259e-05
6 1 14.357041311475411 0.8340387540983607 3.449241080664397e-05
7 1 17.177462950819674 0.7372156721311476 6.177839163129803e-05
8 1 20.965560000000004 0.44668129180327876 2.5784396079580096e-05
9 1 22.52792786885246 0.5093007213114755 3.222589586759234e-05
10 1 25.204700327868853 0.6833914098360656 6.0619377512723695e-05
11 1 28.01780065573771 0.755488655737705 9.09347446203895e-05
12 1 30.802575081967216 1.1188276721311476 4.4741952282739484e-05
13 1 33.35145180327869 1.3477928524590166 5.167192918299735e-05
14 1 35.8741737704918 1.1398070163934428 9.728308998684989e-05
15 1 38.3922 0.929776262295082 2.1955644018362452e-05
16 1 40.85892655737705 0.6522127213114755 5.866985359946932e-05
17 1 43.53049836065574 0.5759700983606558 5.139669791479549e-05
18 1 46.21863147540984 1.046048786885246 1.1023998224170296e-05
19 1 49.30994163934427 0.9950268196721312 6.19471302873741e-05
20 1 52.07623606557378 0.8397847213114755 1.837372186612214e-05
21 1 54.73765901639345 1.1408067540983606 6.674604049334426e-05
22 1 57.21074754098361 0.7830268852459017 4.120456270078723e-05
23 1 59.93225573770493 0.8819251803278689 2.987302085251281e-05
24 1 62.43008524590165 1.0822564590163934 7.1431706440292e-05
25 1 65.04404590163935 1.0537285901639346 9.447099682096592e-05
26 1 67.7796918032787 0.9637875409836066 7.172190801385264e-05
27 1 70.5784524590164 0.9077719344262296 7.762094098676616e-05
28 1 73.42316065573772 0.8382699672131149 8.120287306204482e-05
29 1 76.28301639344264 0.7995074098360656 7.859471665548985e-05
30 1 80.00325245901641 0.3902799278688525 1.494521157231491e-05
31 1 81.55335081967213 0.5645993442622952 6.787602024363974e-05
32 1 0.08034659672131148 2.8129084590163935 6.311817132715547e-05
33 1 2.802774754098361 2.9816217704918038 6.394817216395987e-06
34 1 5.240796721311476 3.449256655737705 7.92318693310525e-05
35 1 7.693133114754099 2.975633442622951 2.5736362080000963e-05
36 1 10.16092 2.301108393442623 2.62234805340429e-05
37 1 12.577053770491803 3.6817057704918037 8.164882018495065e-05
38 1 15.435495737704919 2.9475044590163937 9.09104764410567e-05
39 1 18.072430163934428 3.024100524590164 6.66916465089557e-05
40 1 20.67341442622951 3.1072100327868855 5.765038857981006e-05
41 1 23.958714098360655 2.9739672131147543 9.33936443876333e-05
42 1 26.702539672131152 2.9112059016393443 3.832478934703644e-05
43 1 29.335990163934426 3.131723803278689 4.93500772663184e-05
44 1 32.00428 3.592512 8.615574057185986e-05
45 1 34.67514491803279 3.636010688524591 1.9443207204534296e-05
46 1 37.22397114754099 3.4533919344262296 4.6584020552683206e-05
47 1 39.821824918032796 3.2259011147540986 2.2257614594761477e-05
48 1 42.39317049180328 2.8639758688524593 4.982257951763837e-05
49 1 44.769516721311476 4.057248655737705 8.694751770884436e-05
50 1 46.977321311475414 2.404338885245902 2.254317143824667e-05
51 1 50.70588852459017 3.113885049180328 2.8197417084219234e-05
52 1 53.365291803278694 3.2886523278688524 8.650837389023386e-05
53 1 57.06028196721312 3.0604647213114755 2.5884565733095422e-05
54 1 58.60684590163935 3.114990819672131 1.5190689432675853e-05
55 1 61.126891803278696 3.4776986885245904 1.9873691410943707e-05
56 1 63.6757180327869 3.458395672131148 4.533575368518747e-05
57 1 66.397731147541 3.264163803278689 6.261207652242314e-05
58 1 69.11822950819672 3.119206885245902 6.0497394290926955e-05
59 1 71.89224918032787 3.0052064918032793 3.9121500218306664e-05
60 1 74.64405245901641 2.9368102950819677 8.115276998414823e-05
61 1 77.34637377049181 3.1336475409836066 4.616343278694694e-05
62 1 79.9724524590164 2.965398754098361 8.853865523166897e-05
63 1 1.3031984918032788 5.204897049180329 2.5802059041039284e-05
64 1 3.8980025573770494 5.6081750819672145 6.192073393388076e-06
65 1 6.648962622950821 5.583888524590164 4.474245618709816e-06
66 1 9.301196065573771 5.017976393442623 4.596134732128385e-05
67 1 11.966102950819675 5.093613114754098 4.3094902565920295e-05
68 1 14.421973770491805 5.260034098360657 5.671082320501615e-05
69 1 16.968325901639346 5.26952655737705 7.523500297157406e-05
70 1 19.57541967213115 5.349202622950821 2.2411473168869157e-05
71 1 21.657550163934427 4.310328721311476 8.186036288507815e-05
72 1 25.364102950819674 5.161726557377049 4.0426842498898644e-05
73 1 27.947768524590167 5.350464918032787 2.8476799415647292e-05
74 1 30.58909573770492 5.61872786885246 2.2759502101828024e-05
75 1 33.34594819672132 5.911984262295083 1.844909084606524e-05
76 1 35.97899475409836 5.949297704918034 4.565747964599779e-05
77 1 38.60315475409837 5.701736393442624 8.392021592215331e-05
78 1 41.3113331147541 5.403986229508197 9.447863678496483e-05
79 1 44.03698163934426 5.405400000000001 8.616343374132292e-05
80 1 46.63337114754099 5.309516065573771 1.3240033987000244e-06
81 1 49.175582950819674 5.26028655737705 8.684192753957096e-05
82 1 51.70815081967214 5.4777547540983615 6.92848939443986e-05
83 1 54.39128524590164 5.659424262295083 6.493313030175425e-05
84 1 56.94213114754099 5.62988655737705 7.55295208356551e-05
85 1 59.72725901639345 5.8063554098360655 7.384544877027041e-05
86 1 62.60630163934427 5.957729836065575 3.8567294917051824e-05
87 1 65.24045901639346 5.624281967213115 8.823088235173e-05
88 1 67.79786885245903 5.451751475409837 6.886680204209236e-05
89 1 70.45222295081969 5.255843278688525 5.7509078513219195e-05
90 1 73.2196786885246 5.185508196721312 3.702138091736238e-05
91 1 75.85888524590165 5.273616393442623 8.474883539912505e-05
92 1 78.67329836065574 5.354251803278689 4.197715272671564e-05
93 1 81.34027540983608 5.140974426229509 4.7016423718912325e-05
94 1 82.6136786885246 7.521662950819673 9.104784049550097e-06
95 1 2.623392524590164 7.745038688524591 2.7268285762239498e-05
96 1 5.322189508196722 7.807699016393443 1.8145342727056148e-07
97 1 8.07732524590164 7.542061639344263 5.335241810095848e-05
98 1 10.655941639344263 7.370540983606558 6.386371674425236e-05
99 1 13.230872131147542 7.597754098360657 6.176990268892984e-05
100 1 15.85861704918033 7.622899016393443 6.004296257271139e-05
101 1 18.51675803278689 7.600733114754099 6.791296382306878e-05
102 1 21.225340327868853 7.27268786885246 2.5021451279684614e-05
103 1 23.86545573770492 7.267032786885246 5.388435910254942e-05
104 1 26.456442622950824 7.609417704918034 9.044650122467298e-05
105 1 29.129377704918035 7.794116721311476 7.125165633694544e-05
106 1 31.80115147540984 7.9650314754098375 9.191238776860519e-05
107 1 34.4720668852459 8.284695081967214 1.2582183869130503e-05
108 1 37.49970688524591 8.175986229508197 1.9450565536343767e-05
109 1 40.1518393442623 7.803508196721312 2.1266416599984496e-05
110 1 42.589028196721316 7.668644590163936 4.408753196516374e-05
111 1 45.083626229508205 7.669300983606558 2.7954286314330226e-05
112 1 47.75262295081968 7.707876721311476 5.380928990697193e-05
113 1 50.51805901639345 7.7914911475409845 5.209202259187752e-05
114 1 53.18453114754099 7.800731147540985 1.981677558808941e-05
115 1 55.78334426229509 7.9930544262295085 2.5396183503274874e-05
116 1 58.43416393442624 7.894544918032788 9.28901491999374e-05
117 1 60.442222950819676 7.226336393442623 1.9932611820375302e-05
118 1 64.10237377049181 8.095199344262294 6.874867692177176e-05
119 1 66.63554754098362 7.931100983606559 8.88082050761889e-05
120 1 69.13943606557378 7.652083278688525 8.67942905245497e-05
121 1 71.7953049180328 7.399472786885246 3.1841212047366234e-05
122 1 74.38149508196722 7.540950819672132 8.470669116807304e-05
123 1 77.10603278688525 7.437897049180329 2.3076433685677946e-05
124 1 79.82905573770493 7.546908852459017 5.3525866178203456e-05
125 1 1.2199728524590165 9.922194754098362 2.8943516371740564e-05
126 1 4.298907475409837 10.04004262295082 9.574350187299016e-05
127 1 6.986500327868853 9.857767213114755 3.05527088279592e-05
128 1 9.48059344262295 9.815556065573773 5.83156982689046e-05
129 1 12.015231475409836 9.833228196721313 3.0524958557971314e-05
130 1 14.644087213114755 9.917751475409837 4.9255805336390005e-05
131 1 17.252948196721313 9.898312131147541 9.362376501671833e-05
132 1 19.869433442622952 9.682964590163936 5.195066655179861e-05
133 1 22.545751475409837 9.625000000000002 4.501435532956584e-05
134 1 25.113461639344262 9.815101639344263 6.379854044014603e-05
135 1 27.687988196721314 9.992479344262295 3.912790864909578e-05
136 1 30.493767213114758 10.16521180327869 8.992237397654384e-05
137 1 33.08783409836066 10.384144262295083 5.7301353948329575e-05
138 1 35.23363475409837 9.62691868852459 8.713316003827538e-05
139 1 39.00284786885246 10.244180983606558 5.560977954033141e-05
140 1 41.44503540983607 10.208180327868854 7.961343082938145e-06
141 1 43.78735016393443 10.089524590163936 9.074151793702646e-05
142 1 46.35061704918033 9.941280655737707 6.735664728248603e-05
143 1 48.36039278688525 9.127302295081968 4.2437470115833225e-05
144 1 51.87073442622951 10.052665573770494 6.001805936545012e-05
145 1 54.439252459016394 10.207776393442623 2.6468020738981212e-05
146 1 57.098655737704924 10.220247868852459 8.060919221440004e-05
147 1 59.81915409836066 10.245544262295082 5.047935942191126e-05
148 1 62.84058360655738 10.39388918032787 9.405261357557887e-05
149 1 65.52523278688525 10.423376393442624 8.840254457681359e-05
150 1 68.16191475409838 10.200909508196721 3.8879405314710226e-05
151 1 70.85363278688526 9.75516786885246 5.608771088359117e-05
152 1 73.36963934426231 10.85477836065574 9.451025666620528e-06
153 1 76.04671475409836 9.687357377049182 9.477364571683837e-05
154 1 78.40720655737707 10.793228852459018 5.383356221608482e-06
155 1 81.14133770491804 9.741989508196722 1.7268412741730423e-05
156 1 0.06690315409836067 11.976756721311476 8.677245380071765e-05
157 1 2.086735344262295 11.200748196721312 2.9702877705470035e-05
158 1 5.810899672131148 12.186196721311477 6.589786493033112e-05
159 1 8.331147540983608 12.260520655737706 6.874954319044156e-05
160 1 10.776465573770492 12.213916721311477 5.508950576550558e-05
161 1 13.428295081967214 12.185388852459019 6.747202149086599e-05
162 1 15.998176393442625 12.240475409836067 7.154835125202549e-05
163 1 18.469649180327874 12.113387540983608 2.305791606453148e-05
164 1 20.984645901639347 11.924851147540984 7.600995376961305e-05
165 1 23.66056 12.1129331147541 3.77969006942959e-05
166 1 26.49845180327869 12.297834098360658 2.224307601190706e-05
167 1 29.138567213114758 12.217804590163936 9.53960307169547e-05
168 1 31.759697704918036 12.628908852459018 4.742620265170947e-05
169 1 34.829750819672135 12.506163278688526 7.34802733884536e-05
170 1 37.59180393442624 12.373268852459018 5.452989537774777e-06
171 1 40.225557377049185 12.687580327868854 1.5276129841788367e-05
172 1 42.7475724590164 12.680713442622952 8.278369604391361e-05
173 1 45.27095081967214 12.348022950819674 6.522057652794763e-05
174 1 47.861432786885246 12.085566557377051 8.875153505936199e-05
175 1 50.31058819672131 12.164838688524592 1.409836308900192e-05
176 1 52.92954754098361 12.458650491803281 2.1633926240240456e-05
177 1 55.6520655737705 12.484906229508198 6.989991061060187e-05
178 1 58.369029508196725 12.456984262295082 4.490343747571174e-05
179 1 60.45888524590164 11.691680000000002 9.401584885444691e-06
180 1 64.08066229508198 12.72974098360656 1.6487086439749953e-05
181 1 67.1248131147541 12.652488524590165 1.9831541635318275e-05
182 1 69.86803278688525 12.215128524590165 3.341474226194674e-05
183 1 72.64659672131148 12.213209836065575 8.917636047302635e-05
184 1 75.16108852459017 12.251684590163936 3.198123783301954e-05
185 1 77.75737704918033 12.179582295081968 6.983603269296735e-05
186 1 80.20875409836066 12.192407213114755 7.365167062808295e-05
187 1 1.755074885245902 14.113317377049182 5.983102734594304e-05
188 1 4.365152721311476 14.274638688524592 2.733210862776636e-06
189 1 7.02356131147541 14.624041967213117 7.846940269839785e-05
190 1 9.64383344262295 14.703364590163936 5.408838401267723e-05
191 1 12.197405901639346 14.479433442622952 9.860003649624844e-05
192 1 14.793290491803281 14.571328524590164 8.708170396443978e-05
193 1 17.231388196721312 14.620507540983608 7.497391549898527e-05
194 1 19.65241967213115 14.41248131147541 9.5364604675388e-05
195 1 22.27915475409836 14.262672131147541 1.803096356705789e-05
196 1 24.325688524590166 13.504891147540985 9.392196261969862e-05
197 1 27.883391475409837 14.537902950819674 6.953625022639106e-05
198 1 30.37021377049181 14.682360000000003 9.004793495169428e-06
199 1 32.55534754098361 13.945179672131149 2.576890921816033e-05
200 1 36.19292852459017 14.63777573770492 2.493285394614143e-05
201 1 38.81466491803279 14.857364590163936 2.763430918176696e-05
202 1 41.46381836065574 15.121638688524591 6.979482673650096e-05
203 1 44.88357770491803 14.69861836065574 5.93701693457676e-05
204 1 46.41292393442623 14.531692459016394 6.261734949891508e-05
205 1 48.922921967213114 14.601320655737705 6.0509176042126493e-05
206 1 51.4900262295082 14.631413770491804 2.3562368257715584e-05
207 1 54.17114098360656 14.692155409836067 9.837238331720018e-05
208 1 56.939606557377054 14.695790819672132 2.1304015365194073e-05
209 1 59.609108196721316 14.694427540983607 7.373461380510593e-06
210 1 62.61337049180329 14.733003278688525 1.0644164854785676e-05
211 1 64.84056393442624 14.074438688524593 1.7345830778006956e-05
212 1 68.53302950819672 14.61116655737705 9.567988572279296e-05
213 1 71.21464918032788 14.425912131147541 4.056961485861318e-05
214 1 73.84072786885247 14.626920000000002 5.007586303992792e-05
215 1 76.43449180327869 14.558150163934426 3.4459573384826296e-05
216 1 78.98786229508198 14.602027540983608 6.313740333339346e-05
217 1 81.77652459016394 14.400868196721314 2.8737124497962432e-05
218 1 0.49484138360655744 16.51814098360656 7.040171452173833e-05
219 1 2.9980568524590168 16.546113442622953 6.32201707331203e-05
220 1 5.569801311475411 16.742274098360657 6.47968135460364e-05
221 1 8.260004590163936 17.01285967213115 4.734279326597426e-05
222 1 11.755148196721313 16.771256393442627 6.789810647543485e-05
223 1 13.290856393442624 16.837400655737707 4.0703308320454435e-07
224 1 15.873512131147542 17.06400786885246 5.1756117590613384e-05
225 1 18.53160262295082 16.991653114754097 6.357369637365307e-05
226 1 21.165961967213118 16.611954754098363 2.4786094304426487e-05
227 1 23.87358491803279 16.424933114754097 8.067216868615278e-05
228 1 26.413120655737707 16.64719803278689 7.078850218218143e-05
229 1 29.050711475409837 17.012354754098364 9.344878819804534e-05
230 1 31.780247868852463 16.819728524590165 7.146223411861916e-05
231 1 34.493323934426236 16.764793442622953 8.92111345369744e-05
232 1 37.17090426229508 17.051031475409836 4.168232548775913e-05
233 1 39.88231409836066 17.306267540983608 5.232268891254849e-05
234 1 42.436744918032794 17.65193442622951 6.478639315507836e-05
235 1 44.922304918032786 17.413007213114756 6.489759538985784e-06
236 1 47.65648655737706 17.01513180327869 1.9886106851480825e-05
237 1 50.276607213114765 17.006447213114757 1.319184501615156e-06
238 1 52.82351475409836 16.938434754098363 3.6113575135148326e-05
239 1 55.509173770491806 16.863757377049183 7.960234881630057e-06
240 1 58.12616393442624 16.985947540983606 1.6801092626682168e-06
241 1 60.274590163934434 16.109106885245904 7.837657693278675e-05
242 1 64.0064393442623 16.944241311475412 9.239643302927838e-05
243 1 67.06573770491804 16.889306229508197 6.364790813766672e-05
244 1 69.84076721311476 16.780041967213116 4.9150701895508487e-05
245 1 72.47542950819673 16.843863606557377 9.670109716203242e-05
246 1 75.15300983606559 16.941009836065575 4.589262150346975e-05
247 1 77.79120655737707 16.950552786885247 6.6189777107595e-05
248 1 80.48241967213116 16.618468196721313 4.39766726049758e-05
249 1 1.4950572459016394 18.93099278688525 9.157876659436103e-05
250 1 4.030159803278689 19.003448524590166 9.771623281501342e-06
251 1 6.580091803278689 19.127860327868852 2.506371700854465e-05
252 1 9.196829508196723 19.48498885245902 3.3647030367578926e-05
253 1 11.731820983606559 19.4494931147541 1.185348419908434e-05
254 1 14.412784262295082 19.33937049180328 1.065352692244379e-05
255 1 17.15721573770492 19.35901180327869 5.615471397663179e-05
256 1 20.799189508196722 18.84278360655738 8.45981072091248e-05
257 1 22.332979016393445 18.732459016393445 2.6781606696335782e-05
258 1 24.975518032786887 18.945685901639347 1.5805699756941782e-05
259 1 27.571251147540988 19.146693770491805 9.44196407078045e-05
260 1 30.289073442622954 19.16704196721312 3.423321434776415e-05
261 1 33.003512786885246 19.081609836065574 8.166847386213028e-05
262 1 35.65074754098361 19.2047593442623 8.93262303891672e-05
263 1 38.24951016393443 19.416774426229512 8.664360825119928e-05
264 1 40.91381114754099 19.85191278688525 5.562710890375509e-05
265 1 44.008504262295084 19.9377993442623 8.092635595250555e-05
266 1 46.6537193442623 19.425004590163937 6.607044992700361e-05
267 1 49.20708983606558 19.355578360655738 8.230593029488829e-05
268 1 51.865685245901645 19.350882622950824 8.018013744020572e-05
269 1 54.48974426229509 19.123265573770496 2.1193574591184273e-05
270 1 56.948695081967216 20.295331803278692 4.906175951413482e-05
271 1 59.73382295081968 19.07645967213115 5.8983908613363206e-05
272 1 62.47552786885246 18.98214098360656 5.762481848359085e-05
273 1 64.69767213114754 18.33725967213115 1.3131570867664667e-05
274 1 68.46234098360657 19.00991147540984 8.944382341972825e-05
275 1 71.05509508196722 19.123972459016393 4.7081685109100425e-05
276 1 73.70995409836067 19.174312786885245 9.464188898375184e-05
277 1 76.4153049180328 19.264945573770493 1.3918881435903475e-05
278 1 80.05020983606558 18.76921704918033 9.397487205283849e-05
279 1 81.58162622950822 18.76734885245902 7.662654531955102e-05
280 1 0.07400432131147541 21.190400000000004 4.078638825070742e-05
281 1 2.6069372459016398 21.364798688524594 4.577185466943939e-05
282 1 5.089018360655738 21.442051147540987 3.714120359089672e-05
283 1 7.682731803278689 21.589537704918033 4.2282291355022986e-05
284 1 10.46089180327869 21.845026229508196 9.598172616131218e-06
285 1 13.013605901639346 21.724552786885248 7.594938623035258e-05
286 1 15.716028196721314 21.611451147540986 2.804902262140602e-05
287 1 18.407544262295083 21.711879344262297 3.661720113035881e-05
288 1 20.776114754098362 21.469872131147543 1.4498289628870243e-05
289 1 23.46934754098361 21.158691147540985 2.4994541075336176e-05
290 1 26.10461573770492 21.430791475409837 9.851696688650276e-05
291 1 28.80451344262295 21.441293770491807 1.1139734297579617e-05
292 1 31.56848524590164 21.399335081967216 2.901337816646239e-05
293 1 34.296910819672135 21.47381049180328 6.11557340654541e-05
294 1 36.91950557377049 21.665376393442628 4.868638076318368e-05
295 1 39.48034885245902 21.87188786885246 9.944545177860771e-05
296 1 41.68169049180328 21.18822885245902 7.813532418963096e-05
297 1 45.47983540983607 21.92429836065574 9.770471848021586e-05
298 1 48.04613180327869 21.793777049180328 6.831219282647116e-05
299 1 50.634695081967216 21.67860524590164 1.1719807180501996e-05
300 1 53.42689180327869 21.5863062295082 4.428476402641488e-05
301 1 56.19586229508197 21.655732459016395 5.319140485967958e-05
302 1 58.58917377049181 21.557172459016396 5.1049653130007846e-05
303 1 61.30108852459017 21.336068852459018 8.628647232593434e-05
304 1 64.25182950819672 21.224280000000004 4.6651103807590736e-05
305 1 66.96525901639345 21.09315278688525 5.888956553427694e-05
306 1 69.5777049180328 21.408373114754102 6.369947409946686e-06
307 1 72.20176393442624 21.441293770491807 6.023688677750505e-06
308 1 74.87732459016394 21.467852459016395 4.4170011540519183e-05
309 1 77.57156721311476 21.67981704918033 9.514061334331103e-06
310 1 80.01587540983608 21.29289836065574 3.488402408721396e-05
311 1 1.1839368524590164 23.674697704918035 1.5649686777563176e-05
312 1 3.7285672131147547 23.84596590163935 9.56842694346013e-05
313 1 6.171714098360656 23.844653114754102 2.3984240185087405e-05
314 1 8.767851147540984 23.84359278688525 4.189394032841433e-05
315 1 11.37565180327869 24.15962098360656 9.447813277417212e-05
316 1 14.55769573770492 23.938365901639347 2.1477735487841875e-05
317 1 17.41437049180328 23.878735081967214 9.903369084717891e-05
318 1 19.992582950819674 24.046620327868855 5.6838549180668996e-06
319 1 22.469710819672134 23.54952852459017 6.404737815910722e-05
320 1 24.724270819672135 24.841866229508202 8.357735058596658e-05
321 1 27.466632131147545 23.758918032786887 3.700953262949076e-05
322 1 30.21379016393443 23.654753442622955 1.4701941264625696e-05
323 1 32.956807868852465 23.688582950819676 3.2361029042334486e-05
324 1 35.694170491803284 23.905647213114754 7.960465938094775e-06
325 1 38.313281311475414 24.135839344262298 4.526720016423588e-05
326 1 41.06240852459017 24.035916065573772 8.017184311416372e-05
327 1 43.8656124590164 24.053184262295083 1.3007808712323255e-05
328 1 46.6906793442623 24.23707540983607 7.395910716015223e-05
329 1 49.32044393442623 24.125539016393446 2.1229235248464208e-06
330 1 51.964144262295086 23.830868852459016 6.708987296273357e-05
331 1 54.755836065573774 23.894135081967217 3.260723989216574e-06
332 1 57.5424786885246 24.095597377049184 9.048706153678404e-05
333 1 60.06959344262295 23.64399868852459 6.168820666826026e-05
334 1 62.12259016393443 22.657641311475412 5.1969282118770114e-05
335 1 65.67872786885246 23.434356721311477 2.3909882245780434e-05
336 1 68.22654426229509 23.599616393442624 5.005515084211768e-05
337 1 70.86120655737706 23.76346229508197 9.681967773277468e-05
338 1 73.42467540983608 23.727815081967215 7.008982406577104e-05
339 1 76.16991475409837 23.805067540983607 6.0679651856859235e-05
340 1 79.7412 23.654702950819672 8.525146437942684e-05
341 1 81.25544918032787 23.42855016393443 9.057066545997792e-05
342 1 82.44150163934427 25.87508 5.608732110758097e-05
343 1 2.3914988196721314 26.162277377049183 7.037931858086935e-05
344 1 5.109972459016394 26.310521311475412 5.040655093308899e-05
345 1 7.626988852459017 26.15737967213115 8.888856686779842e-05
346 1 10.032973770491804 27.332020983606558 7.970741903331055e-05
347 1 12.19876918032787 25.45392786885246 5.5498595762720254e-05
348 1 16.121376393442624 25.95142360655738 1.8520280377452015e-05
349 1 18.758108852459017 26.33682754098361 6.245476292767838e-05
350 1 21.392013770491804 26.24124655737705 4.009042700476714e-05
351 1 24.057779016393447 26.244175081967217 6.60719380419503e-05
352 1 26.507489836065577 26.255283278688527 3.2921132177693214e-05
353 1 29.06308196721312 25.942284590163936 9.048836662456756e-05
354 1 31.699612459016397 25.903254426229513 9.308739046366826e-05
355 1 34.31175540983607 26.02039540983607 7.174947449712878e-05
356 1 36.94838688524591 26.38348196721312 9.436508243009317e-05
357 1 39.69190950819673 26.35409573770492 6.666766028498756e-05
358 1 42.4542655737705 26.26825967213115 3.2644296572111366e-05
359 1 45.1776924590164 26.319609836065577 5.189207047834507e-05
360 1 47.9672131147541 26.5574262295082 9.063102693797395e-05
361 1 51.100734426229515 26.2586662295082 6.670199414305299e-05
362 1 53.46728524590164 27.13611278688525 9.893928978735876e-05
363 1 56.32865573770493 26.204488524590165 1.4299217343105508e-05
364 1 59.977193442622955 25.88442098360656 4.2313728223129435e-05
365 1 61.52476721311476 25.641302950819675 2.2218650706305878e-05
366 1 64.12913442622951 25.69351147540984 9.047407779001462e-05
367 1 66.83448524590165 25.9229462295082 6.797573969092221e-05
368 1 69.5777049180328 26.01484131147541 9.071485356133792e-06
369 1 72.31284590163936 26.12582229508197 6.27754726928634e-05
370 1 74.85763278688526 25.954806557377054 1.54725037073872e-05
371 1 77.27164590163936 27.204074754098365 5.0377029698821895e-05
372 1 79.76695081967213 26.15081573770492 9.067883317416383e-05
373 1 1.0478361967213117 29.587085901639348 5.8798505830430786e-05
374 1 3.8103740327868856 28.497321311475414 3.246319254274149e-05
375 1 6.6241206557377055 28.672729836065578 1.5659086032279957e-05
376 1 9.483875409836067 28.7726531147541 2.6812488141782665e-05
377 1 12.130807213114757 28.202954098360657 7.630006095227139e-05
378 1 14.893314754098363 27.92716786885246 7.539435378631833e-05
379 1 17.232095081967216 29.4310662295082 3.748424205256907e-05
380 1 20.070744262295086 28.669750819672135 2.55631365753064e-06
381 1 22.70313442622951 28.597749508196724 8.613225659219836e-05
382 1 25.33855409836066 28.700449836065577 9.853475939934095e-05
383 1 27.926057049180333 28.44965704918033 9.229228513623071e-05
384 1 30.575816393442626 28.223251803278693 6.734332785381449e-05
385 1 33.17983016393443 28.278186885245905 3.7225908150347014e-05
386 1 35.582987540983616 29.591377704918035 2.570873882196495e-05
387 1 38.40956918032787 28.65632 6.022601438062555e-05
388 1 41.1727331147541 28.561142950819676 4.2453489151473654e-05
389 1 43.92877770491804 28.569474098360658 6.298342010531489e-05
390 1 46.629786229508206 28.60749442622951 5.3985804003917954e-06
391 1 48.87429836065574 27.820276721311476 3.390669760287436e-05
392 1 52.720006557377054 28.481365901639347 2.7780058274634157e-05
393 1 55.22339016393443 28.477528524590166 1.3694931263267808e-05
394 1 57.38898360655738 29.71488065573771 1.494345186881363e-05
395 1 60.05848524590164 28.50595540983607 1.1675479305398752e-05
396 1 62.825940983606564 28.156097704918036 1.0297543697027346e-05
397 1 65.52270819672133 28.141505573770495 7.982811114614204e-05
398 1 68.33358688524592 28.22491803278689 4.9625398614457374e-05
399 1 71.08589508196722 28.318075409836066 9.950405880249005e-05
400 1 73.9321180327869 28.42728918032787 6.003617661933867e-05
401 1 76.62737049180329 28.5717462295082 6.842950516905378e-05
402 1 79.26859672131148 28.747760655737707 2.373270687818924e-05
403 1 81.54072786885247 28.238752786885247 3.163811285498357e-05
404 1 0.45181529836065576 31.014842622950823 2.0148557540084146e-05
405 1 3.0003643278688528 30.87705049180328 1.5729254947512616e-05
406 1 5.262912131147541 31.970097049180332 2.0551324547059935e-05
407 1 8.071872131147542 30.94718360655738 9.379137823200784e-05
408 1 11.901220983606558 30.426966557377053 6.140607778218377e-06
409 1 13.441725901639346 30.24383278688525 6.239949752929876e-05
410 1 16.2979462295082 30.65493704918033 3.498691427634155e-05
411 1 18.899536393442624 31.06301180327869 3.033219873591824e-05
412 1 21.514557377049183 31.013681311475413 6.073756128263941e-05
413 1 24.198247213114758 30.984749508196725 4.551716164102848e-05
414 1 26.9748924590164 30.90764852459017 8.740337211690881e-05
415 1 29.603394754098364 30.59025704918033 6.735784588444017e-05
416 1 31.93253114754099 31.779339016393447 4.391065353622179e-05
417 1 34.84631213114755 30.95410098360656 3.921274731657212e-05
418 1 37.44850819672132 31.04377442622951 3.0370408121359273e-06
419 1 40.038232786885246 30.846502950819676 4.30725620869734e-05
420 1 42.71005704918033 30.803736393442623 1.9366527778044108e-05
421 1 45.51730032786886 30.863872131147545 6.067779839201196e-05
422 1 48.27011344262296 30.712901639344267 1.941158146524208e-05
423 1 51.018432786885256 30.55102491803279 5.601009096582938e-05
424 1 53.78740327868853 30.876242622950823 3.655986431737702e-05
425 1 56.52910819672132 30.986011803278693 2.5266590056836804e-05
426 1 59.002196721311485 31.04306754098361 2.3017970516770427e-05
427 1 61.62777049180329 30.651604590163938 1.3834309336356421e-05
428 1 64.49217049180328 30.501997377049182 6.72285153623422e-05
429 1 67.22933114754099 30.36844655737705 5.493345033953269e-05
430 1 69.89529836065574 30.523254426229514 7.470560067901961e-05
431 1 72.65063606557378 30.509167213114758 5.0939656113755904e-05
432 1 76.15628196721313 30.528101639344264 5.036836471566324e-05
433 1 77.66497704918034 30.893359344262297 6.478810149185614e-05
434 1 80.40971147540984 31.00191672131148 1.4349741234108615e-05
435 1 1.6089112131147543 33.33963672131148 5.425672966320626e-05
436 1 4.365955540983607 33.23633049180328 1.2840823985539518e-05
437 1 6.92232524590164 33.380585573770496 9.588762471811078e-05
438 1 9.43530229508197 33.291871475409835 7.426004289211691e-05
439 1 11.79564262295082 32.905407213114756 2.7785017497408828e-05
440 1 14.588344262295083 32.53954360655738 9.448892223963158e-05
441 1 17.20432459016394 33.14019409836066 2.5938884543658593e-05
442 1 19.920884590163936 33.380585573770496 1.856943724956275e-05
443 1 23.107977704918035 33.30449442622951 8.009036613171822e-05
444 1 25.867657704918035 33.153372459016396 3.5336318891950906e-05
445 1 28.48818229508197 33.107222950819676 9.540535634603302e-05
446 1 31.143394754098367 33.11661442622951 9.403127105293237e-05
447 1 33.62032065573771 33.22875672131148 3.0585231390964575e-05
448 1 36.29477049180328 33.32469114754099 3.89970428562103e-05
449 1 38.83445770491804 33.30252524590164 8.402621329774376e-05
450 1 41.41797180327869 33.1415068852459 8.314512177144155e-05
451 1 44.03794098360656 33.02189180327869 8.235341815406169e-05
452 1 46.78812852459017 33.08788459016394 9.690764951066281e-05
453 1 49.84727540983607 32.964179672131145 3.3716969821199565e-05
454 1 52.54934426229509 32.926613770491805 5.7146877904368266e-05
455 1 55.133009836065575 33.16528852459017 5.013527307092561e-05
456 1 57.75656393442624 33.420979016393446 9.906555154576948e-05
457 1 60.35487213114755 33.10303213114754 4.7157916425996994e-05
458 1 62.36545573770493 32.029020983606564 5.023446467677528e-06
459 1 65.96047213114754 32.657593442622954 5.0236834775477135e-05
460 1 68.53858360655738 32.773320655737706 3.7790972676744916e-05
461 1 71.93668196721313 32.61220131147542 9.800065271249451e-05