# input file

2232 atoms
1 atom types

0.0 82.68810555352132 xlo xhi
0.0 83.16 ylo yhi
-10.0 10.0 zlo zhi
0.0 0.0 0.0 xy xz yz

Masses

1 12.0100 #C

Atoms

1 1 1.0132695081967216 0.6637551475409837 4.002367750695436e-05
2 1 3.9053642622950826 0.4502444983606558 9.927170780670503e-06
3 1 7.729487213114755 83.01963278688525 8.456521783627181e-05
4 1 9.274081967213116 83.07163934426231 9.801723527001322e-05
5 1 11.980745573770493 0.12680662950819674 8.373384279511139e-05
6 1 14.749261639344265 0.2069770098360656 5.596386299353107e-05
7 1 17.257290491803282 0.38501767213114757 8.592301683288807e-05
8 1 20.63690885245902 83.14939672131149 1.5194622713234253e-05
9 1 22.152824262295084 0.20980960000000004 1.1846594193741268e-05
10 1 24.497108196721314 0.3367520524590164 5.5577326789605874e-05
11 1 27.222150819672134 0.019256917377049182 8.420236070922737e-06
12 1 29.93537836065574 0.1120817049180328 7.708279214778546e-06
13 1 32.69662360655738 0.5228577704918034 3.186162826270208e-05
14 1 35.55350032786885 1.1214380983606558 7.117610291380683e-06
15 1 39.007998032786894 1.5911128524590166 8.439999470208382e-06
16 1 41.45780983606558 1.0033377704918034 5.264486730549045e-05
17 1 44.260660327868855 0.8777949508196723 8.603474521271937e-06
18 1 46.96505180327869 0.693116131147541 1.4373365481739087e-05
19 1 49.13387672131148 2.171066754098361 1.705752182138339e-05
20 1 51.70916065573771 1.3899686557377051 9.163966270569721e-05
21 1 54.40037377049181 1.196241704918033 6.430525579930616e-05
22 1 57.00474098360657 1.3104794098360657 5.50400685313825e-05
23 1 59.84036065573771 1.4144723278688527 3.4943688679500296e-05
24 1 62.57095737704919 1.1880519344262297 5.8212036410452796e-05
25 1 65.27984262295084 1.263996655737705 6.314397445015738e-05
26 1 67.75848524590165 1.0249735081967215 7.03231166089171e-05
27 1 70.01193442622952 2.3495401311475415 8.476548701084131e-06
28 1 72.66275409836067 1.0633573770491804 8.770274945772365e-05
29 1 75.52008524590164 0.932588655737705 9.12611408940224e-05
30 1 78.24765245901641 1.0238677377049181 9.55546970286135e-05
31 1 80.83636721311477 1.0300327868852461 9.684417329907889e-05
32 1 82.5788393442623 2.918572655737705 2.5656716225294875e-05
33 1 2.5040753442622954 2.622983540983607 5.118881894321416e-05
34 1 5.208027540983608 2.596919672131148 3.0285996380954495e-05
35 1 7.768618360655738 2.3446272786885247 1.3452367556750567e-05
36 1 10.550363278688526 2.3138373770491807 5.1297375321139694e-05
37 1 13.069045901639345 2.425777704918033 8.032601183218668e-05
38 1 15.50477049180328 2.6429883934426233 7.166964959186462e-06
39 1 17.99522819672131 2.762653967213115 2.151429086394673e-05
40 1 20.57682360655738 2.8013508852459017 9.626569718614442e-05
41 1 23.567200655737707 2.7737672131147546 7.826351487140914e-05
42 1 26.153289836065575 2.3548064262295085 6.392966668419538e-05
43 1 28.814106885245902 2.3368565901639347 6.79961661662296e-05
44 1 31.20171278688525 2.671874754098361 1.93123144903944e-05
45 1 33.88171672131148 2.8818348196721315 8.339406310214567e-05
46 1 36.43892459016394 2.402647409836066 1.6536920069220975e-05
47 1 41.458466229508204 3.3028405245901644 7.916013458511999e-05
48 1 43.00210163934427 3.136596262295082 1.528865054590366e-05
49 1 45.65857639344263 3.0806462950819675 8.980120219911404e-05
50 1 48.439462950819674 3.5432925901639347 6.39763049258559e-05
51 1 51.002780327868855 3.9897108196721316 3.40334970295888e-06
52 1 53.4304262295082 3.5001422950819676 3.0029978822955106e-05
53 1 55.547042622950826 4.85441324590164 9.421495688551352e-05
54 1 58.15342950819673 3.494073180327869 9.083736692982504e-05
55 1 62.20590163934427 3.2616846557377053 8.485533607102748e-06
56 1 63.75196065573771 3.4668732459016396 4.0465825938495805e-05
57 1 66.43004590163935 3.6150666885245903 6.0419664918662554e-05
58 1 69.26314098360656 3.7163330491803284 5.1876971087851566e-05
59 1 72.54460327868853 3.2788518688524593 7.868543755247252e-05
60 1 74.05329836065575 3.0670892459016397 5.112933820794108e-06
61 1 76.6617049180328 3.202629442622951 8.147052956363007e-05
62 1 80.11584918032787 4.508786754098361 7.802643780798587e-05
63 1 1.4504679344262297 5.064731803278689 7.03476043689147e-05
64 1 4.118631540983607 4.8041940983606555 1.532860058369575e-05
65 1 6.7177324590163945 4.782987540983607 6.801576924274175e-05
66 1 9.246715409836067 4.522793180327869 9.754192218622951e-05
67 1 11.738536393442624 4.8267689836065575 9.046617082262002e-05
68 1 14.226065573770494 5.0102713442622955 5.211476528085314e-05
69 1 16.728590819672135 5.091593442622951 6.546712510375193e-05
70 1 19.429346885245906 5.076799344262295 2.2997278158444547e-05
71 1 21.455179016393448 4.064559868852459 9.25306074932053e-06
72 1 25.16450885245902 4.84178524590164 7.701839762486886e-05
73 1 27.628710819672133 4.594577377049181 1.2436948062202258e-05
74 1 28.916100327868858 6.452852459016394 7.933223899353974e-05
75 1 32.83330491803279 5.094219016393443 2.7317812027820012e-05
76 1 35.497656393442625 4.99106931147541 7.39191843796729e-05
77 1 38.3289337704918 5.3110813114754105 1.6195888989925524e-05
78 1 41.032365901639345 5.8788111475409845 6.694745124385558e-05
79 1 44.94467278688525 5.3782859016393445 9.944320090814041e-05
80 1 46.51007016393443 5.41044918032787 9.041454674792367e-05
81 1 49.26909377049181 6.080980327868853 9.673926435210462e-05
82 1 53.02548196721312 6.080475409836066 1.2675093591186504e-05
83 1 54.60133114754099 6.089765901639345 5.09630477717396e-05
84 1 57.92066229508197 5.855635409836067 4.10071108756408e-05
85 1 59.430872131147545 5.655839344262295 6.799185098547124e-05
86 1 62.03473442622952 6.8398721311475414 5.778620473572436e-05
87 1 64.93902295081968 5.937583606557377 4.938809011427074e-05
88 1 67.61912786885246 5.876488524590164 1.2746443556060473e-06
89 1 70.35780327868854 6.191809836065574 3.444022955581217e-05
90 1 72.91723278688525 5.927232786885247 4.75748343047036e-05
91 1 75.56552786885246 5.429989508196722 9.916039924577538e-05
92 1 77.76899016393443 4.2549998032786895 9.393879597146143e-05
93 1 81.86387540983608 5.544302950819673 6.192439434496842e-05
94 1 0.5583232131147541 7.787956721311477 1.3525846451270185e-05
95 1 3.1355056393442626 7.12908918032787 8.031500512374039e-05
96 1 5.698 7.071377049180329 8.540535922624883e-05
97 1 8.190073442622952 7.0045259016393455 3.695987354429784e-05
98 1 10.25761180327869 8.387142950819673 3.4782190590865904e-05
99 1 13.053948852459017 7.373721967213116 1.439428044372887e-05
100 1 15.791311475409836 7.443501639344263 3.093215207407315e-05
101 1 18.445059672131148 7.250824918032788 3.329746223322704e-05
102 1 21.185300327868855 6.994175081967214 4.7829497168329176e-05
103 1 23.80971278688525 7.0418393442622955 3.7713446610266045e-05
104 1 26.513548852459017 7.140298360655739 7.086167100275528e-05
105 1 30.383998032786888 6.865471475409837 1.9882893290340333e-05
106 1 32.16433901639345 7.67308786885246 1.7361661160898e-05
107 1 34.54371475409837 7.354535081967214 4.7936576759959375e-05
108 1 37.02533639344263 7.2590550819672135 4.3957213799253435e-06
109 1 39.28736918032787 8.780676065573772 3.507032042126638e-05
110 1 42.22937508196722 8.119233442622953 6.198453262684429e-05
111 1 44.89317114754099 8.008656393442624 6.379193973608554e-05
112 1 47.69622360655738 7.921507540983607 1.5829710470545755e-05
113 1 50.01748327868852 9.492509508196722 3.189057417027448e-05
114 1 52.760400000000004 8.670856393442623 4.657118261939033e-05
115 1 55.5480524590164 8.806881311475411 4.940638984916272e-05
116 1 58.11354098360656 8.346648524590165 4.280680057012457e-05
117 1 61.001167213114755 7.997043278688525 1.2804605719560648e-05
118 1 63.590891803278694 8.303730491803279 1.9374534481901162e-05
119 1 66.62241967213116 8.24516 2.6818126311003887e-06
120 1 69.29293114754098 8.191891147540984 7.940170103354723e-05
121 1 72.08664262295083 8.362957377049181 4.7279224910615494e-05
122 1 74.7404918032787 7.906561967213116 4.754047073627087e-05
123 1 77.3085049180328 7.199828196721312 5.3363469663836065e-05
124 1 80.21733770491805 7.536154098360656 2.1749379603434483e-06
125 1 2.175378754098361 9.656910819672131 4.532307090402304e-05
126 1 4.661670885245902 9.406622950819672 1.4808738756907215e-05
127 1 6.575093114754099 10.729710163934428 9.913332510205164e-06
128 1 9.417630163934428 9.700434754098362 9.100720850388762e-05
129 1 12.044718688524592 9.787937049180329 8.693208883945545e-05
130 1 14.747696393442626 9.642015737704918 9.528927538889604e-05
131 1 18.183562622950824 9.307103606557378 1.684264411136016e-05
132 1 19.728106885245904 9.305891803278689 5.962017670638766e-05
133 1 22.34358229508197 9.358706229508197 8.16048978830164e-05
134 1 25.159611147540986 9.379357377049182 4.265719193193706e-06
135 1 27.85582295081967 9.295187540983608 4.9926235680125036e-05
136 1 30.456908196721315 9.824695081967214 2.788491705269255e-05
137 1 33.13857836065574 9.943350819672133 1.5761319065874602e-05
138 1 35.73461442622951 9.765720655737706 2.158458108760323e-05
139 1 38.400278688524594 10.035245901639346 5.546500013979594e-05
140 1 40.846404590163935 10.287553442622952 9.254355413473587e-05
141 1 43.519238688524595 10.37576262295082 8.309274865121008e-07
142 1 46.63488590163935 10.273617704918035 4.126768285104667e-05
143 1 49.35265770491804 10.870935737704919 9.372310000567872e-05
144 1 51.823777049180336 11.121577049180328 6.734677832165732e-05
145 1 54.5892131147541 10.970808524590167 3.799951537951754e-05
146 1 57.92571147540984 10.608125901639346 7.318273687964547e-05
147 1 59.42380327868853 10.236556721311477 5.878559823347369e-05
148 1 62.000400000000006 10.431455081967215 2.982290701655571e-05
149 1 64.45985573770493 9.558603278688526 5.441546645671523e-05
150 1 68.15888524590164 10.48396655737705 9.601453756816637e-05
151 1 70.71780983606558 10.432161967213116 9.867591882210614e-06
152 1 73.64431475409837 10.412520655737705 5.6070924715336845e-05
153 1 76.55062295081969 9.837721967213115 5.212504932141368e-05
154 1 79.08834098360656 9.306699672131147 7.910394937072292e-05
155 1 81.06257049180329 8.843285901639344 7.655928348461135e-05
156 1 1.362491016393443 11.808871475409836 7.773389025669255e-05
157 1 2.915528 11.813516721311476 5.633075505572195e-05
158 1 5.558137704918033 11.92121573770492 5.204435521625039e-06
159 1 8.058996721311477 12.107580983606558 3.691546499055274e-05
160 1 10.643470163934428 12.047697704918034 1.1831963570767068e-05
161 1 13.283030163934429 11.948935737704918 6.789270499453736e-05
162 1 15.844226885245902 12.037750819672134 4.450944660863165e-06
163 1 18.40688786885246 11.97584786885246 4.6482060936238734e-05
164 1 20.985251803278693 11.720460327868853 9.551104761774104e-05
165 1 23.610371147540988 11.536468196721312 7.58885371401565e-05
166 1 26.39807409836066 11.677643278688526 1.3189636688115702e-05
167 1 29.026879344262298 11.91000655737705 4.662814156173523e-05
168 1 31.630640655737707 12.17837049180328 7.385143818988083e-05
169 1 34.26631278688525 12.200839344262297 9.406218907672647e-05
170 1 36.87921311475411 12.190942950819673 7.136700240084096e-05
171 1 39.45661770491804 12.567712786885247 5.5306313974640146e-05
172 1 42.07961639344263 12.56301704918033 2.168468910265652e-05
173 1 44.26343737704918 11.714098360655738 5.104177288922425e-05
174 1 47.74035344262296 12.769629508196724 7.042223356103732e-05
175 1 50.50139672131148 13.419105573770493 3.283991791960915e-05
176 1 53.12444590163935 13.228600000000002 1.2560502939636188e-05
177 1 55.67579672131148 13.517160655737706 9.315853049821647e-05
178 1 58.32207213114754 13.271215081967213 1.3209151122018736e-05
179 1 60.997127868852466 12.663950163934427 3.790116959196658e-05
180 1 63.69187540983607 12.243656393442624 2.5321182648900175e-05
181 1 66.56788852459017 12.55377704918033 4.0444655104955845e-05
182 1 69.74331803278689 12.808407213114755 5.843940870566911e-06
183 1 72.45725245901639 12.351708852459018 2.09330539528762e-05
184 1 74.58043278688525 11.645278032786887 7.528176324909506e-05
185 1 78.78185573770493 11.646641311475411 7.985998332759763e-05
186 1 80.33952786885247 11.745352786885247 7.681975164002232e-05
187 1 1.08607868852459 14.345074754098361 1.4360117461631572e-05
188 1 3.8174176393442623 14.201476065573772 9.519566603682245e-05
189 1 6.444319344262295 14.381782295081969 8.030476772667829e-05
190 1 9.176228852459017 14.390264918032788 1.9330715106407605e-05
191 1 11.930354754098362 14.28014229508197 4.287043877487603e-05
192 1 14.568955409836066 14.333461639344263 8.746514757356238e-05
193 1 17.125809836065574 14.34477180327869 9.991407317824294e-05
194 1 19.79056524590164 14.256966557377051 2.6841426507483847e-05
195 1 22.691066885245906 13.939423606557378 2.5124720078013186e-05
196 1 24.909373770491808 14.937444590163937 7.706078169118608e-05
197 1 27.77003737704918 14.156639344262297 7.932371191230535e-05
198 1 30.346331147540987 14.428992131147542 5.57196067848572e-05
199 1 32.85612721311475 14.535125901639345 7.422301025744948e-05
200 1 35.58808721311476 14.539165245901641 1.4567759748848697e-05
201 1 38.18558754098361 14.700537049180328 3.519102534414731e-05
202 1 40.840598032786886 14.862060327868853 5.9414214092678336e-05
203 1 43.49646688524591 14.600209836065575 8.052430975984328e-05
204 1 46.00646491803279 14.553302950819674 4.943828858995703e-05
205 1 48.20765508196722 14.237981639344262 6.49400659992642e-05
206 1 51.736426229508204 15.602724590163936 4.4064722870539635e-05
207 1 54.309993442622954 15.703960655737706 6.835637623700736e-05
208 1 56.409947540983616 14.867866885245904 3.922604380997092e-05
209 1 60.175626229508204 15.147238032786888 9.778042284332947e-05
210 1 63.28592131147541 14.442574426229509 1.1814165384111309e-05
211 1 64.80572459016393 14.362393442622952 1.1380061591140656e-05
212 1 67.09199344262296 14.01677704918033 3.404642254886019e-05
213 1 71.05307540983608 14.705182295081968 7.33453990158168e-05
214 1 73.56756721311476 14.529622295081968 9.409511961683767e-05
215 1 76.3612786885246 14.748352786885247 2.0204869834457463e-06
216 1 78.66976393442623 14.690337704918035 8.316434210792767e-06
217 1 81.30190163934428 14.401120655737706 9.74111019736587e-05
218 1 0.007602904262295083 16.821546229508197 6.877551894910952e-05
219 1 2.54045468852459 16.58398229508197 4.728016618332514e-05
220 1 5.104115409836067 16.628566557377052 1.2396421736417308e-05
221 1 7.735849180327869 16.59630229508197 9.13199945666233e-05
222 1 10.606005245901642 16.505265573770494 5.762832767982391e-05
223 1 13.35770754098361 16.584386229508198 9.933819367131022e-05
224 1 15.972476065573773 16.682895737704918 3.493299170087473e-05
225 1 18.489340983606557 16.557221639344263 5.88307818932321e-06
226 1 20.528048524590165 15.623022295081968 8.425272127354555e-05
227 1 24.006832786885248 16.180300327868853 9.453563832414833e-05
228 1 26.41928065573771 16.45068393442623 3.0169098981824417e-05
229 1 29.0354124590164 16.69673049180328 6.028394493955538e-05
230 1 31.737026885245907 16.953380327868857 4.461552434777555e-05
231 1 34.354572459016396 16.767166557377053 9.899402124232289e-05
232 1 37.048562622950826 16.953683278688526 8.271823155807735e-05
233 1 39.560024918032795 17.068754098360657 4.855726126253416e-05
234 1 42.23659540983607 17.01563672131148 2.825725406566334e-05
235 1 44.82743081967213 16.989633442622953 8.126333905797962e-05
236 1 47.33727737704918 16.98933049180328 4.4508545744811316e-05
237 1 49.982240000000004 17.605885901639347 9.162430859450028e-05
238 1 53.048708196721314 17.984019016393443 4.280454431686443e-06
239 1 55.855042622950826 17.77892131147541 4.396541936395544e-05
240 1 58.84617704918033 17.50682098360656 1.1347918531598789e-05
241 1 61.52931147540984 17.493137704918034 5.034534639567532e-05
242 1 63.97412459016394 17.143431475409837 2.5551946670183314e-05
243 1 66.53759344262295 16.64583475409836 6.455862858080546e-05
244 1 69.16316721311476 17.712827540983607 3.375503127703028e-05
245 1 72.14016393442624 17.05284918032787 8.94417045761677e-05
246 1 74.85056393442623 16.77564918032787 7.428889889133251e-05
247 1 77.60640655737706 17.20917180327869 2.6776771491898312e-05
248 1 80.17189508196722 16.869361967213116 3.1018640998778945e-05
249 1 1.3537357377049182 19.125537704918035 1.8673490787959768e-05
250 1 3.9209005901639347 19.010012459016398 7.290293226203364e-05
251 1 6.574083278688525 18.937657704918035 9.212211075055093e-05
252 1 9.293874754098361 18.57699475409836 2.150280056156325e-05
253 1 12.097836065573771 18.712464262295086 3.728805198942509e-05
254 1 14.794754754098363 18.93402229508197 4.887218947110026e-05
255 1 17.388013770491806 19.00259016393443 7.842822959034347e-05
256 1 19.860900327868855 18.630263606557378 8.725934083885291e-05
257 1 22.249819016393445 18.354780327868852 3.213811578730425e-05
258 1 24.700034754098365 18.676716065573775 4.367891855396345e-05
259 1 27.440729836065575 18.82389967213115 7.905887444218922e-05
260 1 29.588045245901643 18.147208524590166 8.871812156062527e-05
261 1 33.1109593442623 19.17501967213115 9.030233655892426e-05
262 1 35.65327213114754 19.095899016393446 7.988252572574865e-05
263 1 38.448750819672135 19.4279331147541 4.407995771120832e-07
264 1 40.94254098360656 19.316043278688525 5.842396781390195e-05
265 1 43.57058885245902 19.35254885245902 5.6456152206941484e-05
266 1 46.063520655737705 19.419248524590166 2.1483904617538942e-05
267 1 48.57866885245902 19.525483278688526 4.807666613210723e-05
268 1 50.683672131147546 18.97860655737705 6.199826675382236e-06
269 1 54.47358688524591 19.96541836065574 6.410087102124898e-05
270 1 56.6144393442623 19.113318688524593 4.722511354644491e-05
271 1 60.373554098360664 19.724824918032787 8.85420297680721e-05
272 1 63.061232786885256 19.719169836065575 4.1495496549061995e-05
273 1 65.60854426229508 19.24969704918033 2.729277333094371e-05
274 1 68.42396721311475 19.079994098360658 7.759826714036355e-05
275 1 70.95512131147541 19.299280000000003 7.247606693776974e-05
276 1 74.47641967213116 18.905797377049183 6.791130785255972e-05
277 1 76.00884590163936 19.118266885245905 6.895930554511803e-05
278 1 78.79952786885246 19.37173573770492 4.483629094891774e-05
279 1 81.46801967213115 19.2691868852459 8.992010559696533e-05
280 1 0.1549775213114754 21.601857704918032 8.288265525905327e-05
281 1 2.6963834754098364 21.471639344262297 2.4874727225534765e-05
282 1 5.333499672131148 21.303703606557377 3.898398146919223e-05
283 1 8.982744262295084 20.633626885245903 4.8406817459269984e-05
284 1 10.514514098360657 20.73940721311476 2.8275697448402792e-05
285 1 13.336299016393445 21.044377704918038 1.1362697873975648e-05
286 1 16.09421180327869 21.311277377049183 5.3468615409085444e-05
287 1 18.585123934426232 21.25901836065574 8.377070805433225e-05
288 1 21.034531803278693 21.03256262295082 1.1405687322264712e-05
289 1 23.362355409836066 20.948443278688526 1.988593366578191e-05
290 1 25.81241967213115 20.888862950819675 1.7218436639913482e-05
291 1 28.545389508196724 21.007821639344264 8.599226874068746e-05
292 1 31.59777049180328 21.36025442622951 3.3851105636923286e-06
293 1 34.73795672131148 21.4785062295082 6.883266730876187e-05
294 1 36.99266819672132 22.492634098360657 1.1372285138736704e-05
295 1 40.51563278688525 21.627154098360656 1.400363940986641e-05
296 1 42.058763278688524 21.628012459016393 9.285930437223294e-05
297 1 44.68903278688525 21.816902295081967 8.56231866473334e-05
298 1 47.446844590163934 21.87198885245902 1.883626222091457e-05
299 1 50.2004655737705 21.82154754098361 8.193178274534573e-05
300 1 53.00225573770492 22.03633967213115 6.394898687376767e-05
301 1 55.9328 22.024373114754102 9.37077657541066e-05
302 1 58.7512524590164 21.690672786885248 9.516077021352956e-05
303 1 61.59697049180328 21.973174426229512 7.960401933610672e-06
304 1 64.33211147540985 21.859416393442626 5.480057362576432e-05
305 1 66.93142950819673 21.352731147540982 6.257706983390151e-05
306 1 69.47520655737706 21.567472786885247 7.371798073486418e-05
307 1 71.96950163934427 21.729147540983607 4.6937403766569144e-05
308 1 74.58800655737706 21.48461573770492 1.6174534369923156e-05
309 1 77.46957377049182 21.447150819672135 9.187295171978139e-07
310 1 80.18552786885246 21.6348793442623 4.264073029250526e-06
311 1 1.5806257049180328 23.975729836065575 2.4241759631126248e-05
312 1 4.111446557377049 23.727714098360657 8.164047567283574e-05
313 1 6.838660327868853 23.581540327868854 7.968676556610236e-05
314 1 9.204554754098362 23.06475672131148 3.460519998567667e-05
315 1 12.007304262295083 22.988211147540984 7.919162994056086e-05
316 1 14.63737180327869 23.355640000000005 4.207810243597523e-05
317 1 17.24103213114754 23.753313442622954 3.517352100117607e-05
318 1 19.85711344262295 23.633748852459018 6.962380096976422e-05
319 1 22.539036065573775 23.512164590163938 3.7285264441139145e-05
320 1 25.04403540983607 23.285759344262296 2.0517622698088778e-05
321 1 27.990181639344264 23.551093770491807 6.652566288142811e-05
322 1 29.072776393442627 22.448100327868854 1.2671806239419781e-05
323 1 32.53515081967213 22.579379016393442 5.934256377240056e-05
324 1 36.063467540983616 23.702417704918037 8.830037196558516e-05
325 1 37.898996065573776 25.694268852459018 5.769338806131957e-05
326 1 40.571527213114756 24.457522622950822 5.5409937867803693e-05
327 1 43.318028852459015 24.08337836065574 7.775051160112468e-05
328 1 46.07599213114755 24.0756531147541 1.527848401939498e-05
329 1 48.88798163934427 24.100495081967214 3.4122778780044064e-05
330 1 51.50971803278689 24.154521311475413 4.006589348872063e-05
331 1 54.18022950819673 24.11024 9.348584952183549e-05
332 1 58.229672131147545 23.818548852459017 9.546228743041355e-05
333 1 59.79542295081968 23.905344262295085 3.9828570391655395e-05
334 1 62.62094426229509 24.158156721311478 8.273489226866048e-05
335 1 66.45276721311475 23.775125901639345 8.128652421291125e-05
336 1 67.99983606557379 23.829758032786888 5.5248402836055044e-05
337 1 70.62995409836066 24.055153442622952 9.805460101054149e-05
338 1 73.36711475409837 23.891105573770496 2.007311636761523e-05
339 1 76.11134426229509 23.53776393442623 3.851796262299328e-05
340 1 78.8136655737705 23.823749508196723 8.245946340558213e-05
341 1 81.60232786885247 23.961289180327874 3.3872505117637733e-06
342 1 0.2900032065573771 26.33218229508197 6.621893003865199e-06
343 1 3.3983962622950825 26.234581639344267 4.143191003564788e-05
344 1 6.129755409836067 25.73925704918033 9.710627870791565e-05
345 1 9.310537049180327 25.29780721311476 3.2439360793339634e-05
346 1 10.822312131147543 25.13062885245902 2.7293389871779616e-05
347 1 13.294794754098362 25.44165836065574 5.199819325520317e-05
348 1 15.137897049180328 27.069968524590166 5.19522997496651e-05
349 1 18.73250950819672 26.101030819672136 2.8345569023336005e-05
350 1 21.476133114754102 25.865082622950823 2.2990846760592523e-05
351 1 24.090699672131148 25.84771344262295 5.380240479492711e-05
352 1 26.79953442622951 26.174294426229512 9.314570648393466e-05
353 1 29.0576793442623 26.02685836065574 2.316365655741053e-05
354 1 31.666540327868855 25.294828196721312 4.914589897031977e-05
355 1 34.30190950819672 25.804946885245904 2.934173917488091e-05
356 1 36.81882491803279 26.78585114754099 3.855697459417872e-05
357 1 39.62935016393443 26.98514229508197 2.8241363115190246e-05
358 1 42.264365901639344 26.495068852459017 5.207344377266206e-05
359 1 44.814100983606565 26.316782295081968 5.501438541185985e-05
360 1 47.52137049180329 26.256242622950822 7.7860162076974e-05
361 1 50.147954098360664 26.512236065573774 2.0398348405212853e-05
362 1 52.79877377049181 26.473205901639346 1.4731506521111004e-05
363 1 55.46423606557378 26.376059672131152 7.531278766360708e-05
364 1 58.111521311475414 27.385441311475414 6.53609687341091e-05
365 1 60.93199344262296 26.253112131147542 7.23424570046264e-05
366 1 63.591901639344265 26.420038032786888 2.8960491122163148e-05
367 1 66.25130491803279 26.37000065573771 3.185527876154115e-05
368 1 69.64940327868854 26.26063540983607 4.030098961441548e-05
369 1 72.44008524590164 26.138647213114755 4.301447082064829e-05
370 1 75.10352786885247 25.851449836065576 7.012464865633887e-05
371 1 77.42564590163934 27.050731147540986 1.3031031430305752e-05
372 1 80.20017049180328 26.111482622950824 5.5813731710660845e-06
373 1 1.168713573770492 27.6261862295082 9.790502017176041e-05
374 1 5.881386229508197 27.788466885245906 6.167509658721557e-05
375 1 7.377256393442623 28.067484590163936 3.6810334597665874e-05
376 1 9.876449180327871 27.983718688524593 2.2789394432833246e-05
377 1 12.688792131147544 28.532968524590167 8.353333394758317e-05
378 1 14.229650491803278 28.304543606557377 1.1620506149364573e-05
379 1 16.45724786885246 27.8394131147541 6.991685651100928e-05
380 1 20.29255475409836 28.194521967213117 2.2270105576869115e-05
381 1 22.84183540983607 28.236531147540987 5.9525413387346154e-05
382 1 25.491241311475413 28.289396065573776 7.279271962107854e-05
383 1 28.256626885245904 28.608504262295085 4.7162849604186896e-05
384 1 30.78480196721312 27.870920000000005 8.433960302399586e-05
385 1 33.14751540983607 29.07312983606558 1.733252606658997e-05
386 1 35.47039081967213 29.6535331147541 8.441566186098315e-06
387 1 38.338274754098364 28.98795016393443 2.14274809275949e-05
388 1 41.19969573770492 29.003501639344265 8.292471891385608e-05
389 1 43.82829901639345 28.79471803278689 7.64672166495615e-05
390 1 46.499163934426235 28.504188196721312 8.625737045007448e-05
391 1 48.801287213114755 29.90462885245902 6.500294423091373e-05
392 1 51.577881967213116 28.860306885245905 2.804942690796133e-05
393 1 54.3933049180328 28.72180786885246 9.886525841648998e-05
394 1 57.358688524590164 28.738722622950824 2.4299367643280347e-05
395 1 60.02869508196722 28.59608327868853 8.639128715971111e-05
396 1 62.588629508196725 28.601586885245904 5.5593937504290705e-05
397 1 65.27883278688525 28.611735737704922 7.774018022417239e-05
398 1 67.33485901639345 27.487889180327873 8.234210551029556e-05
399 1 71.26413114754098 28.352005901639345 6.457844258065822e-05
400 1 73.96039344262296 28.289042622950824 6.177274604548165e-05
401 1 76.66220983606557 28.382603934426232 9.589104902282191e-05
402 1 79.22113442622951 28.523880000000002 5.869942789832306e-06
403 1 81.80631475409837 28.376645901639346 3.362836235672163e-05
404 1 0.6072699672131148 30.599396065573774 3.765539315417416e-05
405 1 3.9671157377049187 30.41323278688525 2.3635172591475674e-05
406 1 5.504414426229509 30.507652459016395 6.21765630284058e-05
407 1 8.291360000000001 30.452464918032792 2.4422012616866198e-05
408 1 11.088353442622951 30.919362622950825 9.958481881058738e-05
409 1 13.431728524590167 31.11234229508197 4.434221741496065e-05
410 1 15.97596 30.570868196721314 7.001401228839717e-05
411 1 18.751847868852458 30.24958885245902 3.788710747624503e-05
412 1 21.41337180327869 30.628883278688527 1.965498972373554e-05
413 1 24.131699016393448 30.61065573770492 2.380414467573525e-05
414 1 27.005339016393446 30.64610098360656 4.916810956286243e-05
415 1 29.874081311475415 30.56960590163935 4.571243987503875e-05
416 1 32.63628590163935 30.570868196721314 3.203845241443718e-05
417 1 35.151636065573776 31.151120000000002 9.158876019423013e-06
418 1 37.52207475409836 31.10916131147541 3.178447086460493e-05
419 1 39.883525901639345 32.10132524590164 4.0907510878574206e-05
420 1 42.646134426229516 31.240843934426234 7.786452764454845e-05
421 1 45.334520000000005 30.956221639344264 4.713177330451458e-05
422 1 48.07789114754099 31.28133836065574 7.987313972053255e-05
423 1 50.56956065573771 31.347987540983606 1.1700617881461851e-05
424 1 53.144642622950826 30.997826885245907 7.75950881625914e-05
425 1 55.697508196721316 30.77091672131148 3.2882790612871917e-06
426 1 59.58588196721312 30.690988196721317 7.010964721097869e-05
427 1 61.098111475409844 30.950819016393442 3.2104253779651214e-05
428 1 64.53306885245902 30.746781639344263 4.375919397777116e-05
429 1 67.22327213114755 30.401771147540988 7.241332123058525e-05
430 1 69.81703606557377 30.37687868852459 1.1828396152562893e-05
431 1 72.66275409836067 30.59798229508197 5.441458001270305e-05
432 1 75.25399344262296 30.616260327868854 5.470415558194948e-05
433 1 77.9012786885246 30.795758688524593 1.9332340310405893e-05
434 1 80.68640655737705 30.770361311475412 7.053934317621147e-06
435 1 1.615848786885246 33.30353508196721 6.000624773654768e-05
436 1 4.080520327868853 32.915505573770496 8.528791863701367e-05
437 1 6.828309508196722 32.72631278688525 5.075346339561564e-05
438 1 9.259893770491805 32.80523147540984 8.635570439640737e-05
439 1 12.018008524590165 33.47520721311476 1.5601542776937218e-05
440 1 15.214442622950822 33.15741180327869 9.40488947958128e-05
441 1 17.822849180327868 32.54449180327869 2.5108186348610917e-05
442 1 20.029997377049185 34.03753442622951 1.5395428704931547e-05
443 1 22.772005245901642 32.939438688524596 8.004020477701061e-05
444 1 25.650845901639347 32.74958950819672 8.729173812965689e-05
445 1 28.541400655737707 32.766958688524596 4.1388076984369885e-05
446 1 31.19509836065574 32.87743475409837 6.496851987920181e-05
447 1 33.81188655737706 33.22810032786885 3.347592834359035e-05
448 1 36.55838819672132 33.60476918032787 9.568523926940948e-05
449 1 39.361592131147546 33.53004131147541 3.095902499769113e-05
450 1 41.83291344262295 34.77829967213115 1.9277550702072433e-05
451 1 44.39209049180328 33.33918229508197 6.645143351151473e-06
452 1 46.73960590163935 34.5291731147541 7.906121405714299e-05
453 1 49.494539672131154 33.742864262295086 7.169297349338565e-05
454 1 52.07371147540984 33.51979147540984 3.6533632195113985e-05
455 1 54.616478688524595 33.27404786885246 7.700049267252783e-05
456 1 57.028977049180334 33.16124918032787 5.796817344781058e-06
457 1 59.63081967213115 34.26691868852459 8.96258125930024e-05
458 1 62.110977049180335 32.122279344262296 2.7584620848482456e-05
459 1 66.05034754098361 32.81310819672131 6.771723791013883e-05
460 1 68.54817704918034 32.78594360655738 2.4554753109199856e-05
461 1 71.28533770491804 32.601295081967216 4.797315558495127e-05