# input file

2232 atoms
1 atom types

0.0 82.68810555352132 xlo xhi
0.0 83.16 ylo yhi
-10.0 10.0 zlo zhi
0.0 0.0 0.0 xy xz yz

Masses

1 12.0100 #C

Atoms

1 1 1.2377560655737707 0.7476826229508197 2.3623453571498733e-05
2 1 3.872797049180328 0.7182307540983607 6.787770469044817e-05
3 1 6.53848655737705 0.7336408524590164 7.199977859504777e-05
4 1 9.200515409836067 0.7882275409836066 3.875117089228303e-05
5 1 11.831693770491805 0.8007949508196722 9.106730666581098e-05
6 1 14.51881704918033 0.7755793442622951 1.6927516679860587e-05
7 1 17.258350819672135 0.7336055081967213 5.200667468935278e-05
8 1 19.93179081967213 0.7430222295081969 1.159994501210846e-05
9 1 22.54918491803279 0.9996367213114755 8.896515211548198e-05
10 1 25.163246557377054 0.9101500983606559 7.538426255797273e-05
11 1 27.707680000000003 0.974244393442623 2.8329255781948294e-05
12 1 30.23413836065574 0.8196132459016394 2.4427107509603686e-05
13 1 32.895914754098364 0.6148639344262297 1.569686616404118e-05
14 1 35.43640983606558 0.588436524590164 1.6497977845899882e-05
15 1 38.11202098360656 0.808505049180328 8.310035605572918e-06
16 1 41.2620531147541 0.9267619016393444 6.914775002782286e-05
17 1 44.02329836065574 1.076540786885246 3.662512694076413e-05
18 1 46.655890491803284 1.0358746885245902 3.599832657965445e-05
19 1 49.22329770491804 0.9655345573770493 7.966681369280639e-05
20 1 51.90961311475411 0.9202838032786886 4.661274477713707e-05
21 1 54.68161311475411 0.6902734426229509 6.546135430936887e-05
22 1 57.36323278688525 0.7231385573770492 2.7414220293300253e-05
23 1 60.05343606557378 0.436229993442623 5.092887127973485e-05
24 1 62.79059672131148 0.42877386885245905 7.767111893811008e-06
25 1 65.40051803278689 0.2828863868852459 8.481565647357503e-06
26 1 68.09021639344263 0.5127291147540984 9.42270269776483e-05
27 1 70.65116065573771 0.6291076721311476 5.1690413226759784e-05
28 1 73.1924131147541 0.5866440655737705 1.2753224823800581e-05
29 1 75.82808524590165 0.625396524590164 2.430129393524333e-05
30 1 78.58089836065575 0.7316009836065575 7.842526660323602e-06
31 1 81.29735737704918 0.7550544262295084 1.5599790738308505e-05
32 1 82.48845901639345 3.1058114098360656 6.901069158563589e-05
33 1 2.4418088524590167 3.0811865573770496 1.8204207171926123e-05
34 1 5.130017704918033 3.0487304262295085 2.765282196500315e-05
35 1 7.857231475409837 3.090704262295082 7.314703254573997e-05
36 1 10.530822950819674 3.152612262295082 6.47947998530466e-05
37 1 13.109893770491805 3.0858368524590167 7.682350353180626e-05
38 1 15.874976393442624 2.9949768524590166 1.7787095968720845e-05
39 1 18.552708196721312 3.041893836065574 8.05817999570171e-06
40 1 21.12940590163935 3.1969592131147544 9.805769927175029e-05
41 1 23.753212459016396 3.282154032786886 1.0861966317472583e-05
42 1 26.38878360655738 3.3141607868852465 5.532517773135085e-05
43 1 29.05919409836066 3.276625180327869 6.294629252040094e-05
44 1 31.751921967213118 3.0581168524590168 8.239743329137953e-05
45 1 34.24268262295082 3.057733114754099 7.233991276921304e-06
46 1 36.70971213114755 2.985393508196722 5.4909969189053725e-05
47 1 38.906660983606564 2.131375147540984 6.228846559853088e-05
48 1 42.630936393442624 3.1606455081967213 5.868864800735029e-05
49 1 45.28715868852459 3.354210885245902 8.369224050023359e-05
50 1 47.86294754098361 3.3538120000000005 6.016666933319115e-05
51 1 50.41046098360656 3.195616131147541 2.3545791776663164e-06
52 1 53.08758688524591 2.9724676065573776 3.29938258753484e-05
53 1 55.84797377049181 3.051517573770492 5.3351495580316704e-05
54 1 59.69595409836066 2.6055184262295086 8.920959418311029e-05
55 1 61.244537704918045 2.6479113442622952 7.236033233960774e-05
56 1 64.88903606557378 2.5038430819672137 3.7246581932473227e-05
57 1 66.42752131147542 2.609421442622951 3.634117422893912e-05
58 1 69.12984262295083 2.9510843278688528 5.096660240298934e-06
59 1 71.70139016393443 3.0192836065573774 1.507482131546053e-05
60 1 74.31333114754099 2.942955147540984 5.820519699362083e-05
61 1 77.04594754098362 2.904359213114754 2.2087697462233357e-05
62 1 79.87550819672131 3.013063016393443 1.4839464965111482e-05
63 1 1.0011312786885247 5.442460983606558 4.794468465363993e-05
64 1 3.701432918032787 5.368692459016394 3.372470829712347e-05
65 1 6.432706229508197 5.334358032786886 9.150134030688096e-05
66 1 9.207382295081967 5.445641967213115 1.7715303738258427e-05
67 1 11.891274098360656 5.529104918032788 7.482062068846172e-05
68 1 14.555676065573772 5.239281967213115 8.946364711698591e-05
69 1 17.255624262295083 5.306032131147541 8.595223978584476e-05
70 1 19.7814262295082 5.490832131147542 4.82383150080844e-05
71 1 22.365445245901643 5.573032786885246 8.389615465472426e-05
72 1 25.00631803278689 5.611103606557378 4.780604166369922e-05
73 1 27.688291147540987 5.578081967213115 9.112564065786583e-05
74 1 30.33002229508197 5.427464918032787 5.745227785092463e-05
75 1 32.99109180327869 5.549200655737705 2.2569284434802585e-05
76 1 35.81631016393443 5.484015737704919 3.3411016023290555e-06
77 1 38.49404196721312 4.990877442622951 6.646045246161689e-05
78 1 41.12668459016394 5.126937704918033 6.84231198416318e-05
79 1 43.77210163934427 5.521834098360656 9.480536771660021e-05
80 1 46.48861114754099 5.708552786885246 8.496636278448899e-05
81 1 49.02244131147541 5.6425095081967225 2.886482430940607e-05
82 1 51.58293114754099 5.328551475409837 6.623990085645776e-05
83 1 54.416026229508205 5.179954098360656 5.4866614256081085e-05
84 1 56.41701639344263 4.4926950163934425 5.670309302303664e-05
85 1 59.79491803278689 5.424536393442623 7.473386343623934e-05
86 1 62.31445901639345 5.1650085245901645 8.174165679531166e-05
87 1 64.84460327868852 5.017683540983607 6.637924105621361e-05
88 1 67.5600524590164 5.041379344262296 5.3668180159775494e-05
89 1 70.21339672131148 5.402824918032787 4.975416340472432e-05
90 1 72.87532459016394 5.353797377049181 8.123100635342387e-05
91 1 75.5524 5.170764590163935 7.837613115027446e-05
92 1 78.34560655737705 5.087958032786886 1.5904162044190585e-05
93 1 81.0423737704918 5.436099016393443 3.5548523399562715e-06
94 1 82.44402622950821 7.811435409836067 1.4978110730963635e-05
95 1 2.331635737704918 7.70656393442623 5.100599217317405e-05
96 1 5.041646950819673 7.612497704918034 7.898784229566225e-06
97 1 7.624666229508197 7.59568393442623 2.887011686445373e-06
98 1 10.290179016393443 7.814818360655738 7.355398420591984e-05
99 1 14.221016393442625 7.408662295081968 9.081472530465774e-05
100 1 15.760864918032789 7.51292786885246 3.3310331867067667e-06
101 1 18.365282622950822 7.804013114754099 4.0232767807797834e-05
102 1 21.008881967213117 7.901462295081967 1.4265525650287315e-05
103 1 23.62718491803279 7.909137049180329 9.84755473956058e-05
104 1 26.325719344262296 7.869702950819673 4.9551659556438504e-05
105 1 29.081763934426235 7.8091632786885254 1.8245238596290904e-06
106 1 31.69375540983607 7.764528524590165 6.95094695123349e-05
107 1 33.71635606557377 6.92848524590164 5.1262836064833154e-05
108 1 37.33666885245902 7.4625370491803285 9.581943163984889e-05
109 1 39.90761049180328 7.388869508196723 2.9129925878901087e-05
110 1 42.429575081967215 7.612598688524591 4.6762529589306135e-05
111 1 44.95865901639345 7.840670163934427 5.3310037321321485e-05
112 1 47.64633770491804 8.077628196721312 1.2632071904307651e-05
113 1 50.45196524590164 7.838801967213116 7.021652217445943e-05
114 1 53.195134426229515 7.302629508196722 8.670907997362526e-05
115 1 55.92219672131148 7.440623606557378 5.580569716809793e-05
116 1 58.42103606557377 7.788209180327869 2.783699936268841e-05
117 1 61.05165901639345 7.656779016393443 3.983111293837027e-06
118 1 63.776701639344274 7.444460983606558 1.5210917904990008e-05
119 1 66.42297704918033 7.29000655737705 1.0996848023067974e-05
120 1 68.82638688524591 8.654042622950822 2.4524806778364996e-06
121 1 71.65544262295083 7.752208524590165 7.07043920129429e-05
122 1 74.39613770491803 7.568266885245903 7.057435176635676e-05
123 1 77.2196393442623 7.268093114754099 6.379760104060293e-05
124 1 79.6528393442623 8.55124131147541 1.4061180000840091e-05
125 1 1.2895000655737705 10.17021049180328 6.642441587006283e-05
126 1 3.817049049180328 9.91608524590164 4.036352425312212e-05
127 1 6.405339672131149 9.976372459016396 9.727110391172888e-05
128 1 8.790420983606559 9.976675409836067 4.8400052886309546e-05
129 1 10.950914754098362 9.20960393442623 2.8738177361639906e-05
130 1 14.50801180327869 10.196668196721314 8.226744094289593e-05
131 1 17.089657704918036 10.026864262295083 3.6218055735047306e-05
132 1 19.710434754098365 10.187933114754099 8.870821534955266e-05
133 1 22.344945573770495 10.25720786885246 8.238020973963523e-05
134 1 24.947545573770494 10.156880655737705 8.813026284146373e-05
135 1 27.778116065573773 10.038123934426231 5.300829229483394e-05
136 1 30.618481967213118 10.1047731147541 5.042203294516654e-05
137 1 33.30868524590164 9.910884590163935 2.221577783561788e-05
138 1 36.06043803278689 9.840852459016393 1.1096606561991052e-05
139 1 38.617898360655744 9.778646557377051 3.679156245418284e-05
140 1 41.21751934426229 9.894777704918035 3.1536415391679344e-05
141 1 43.68823475409837 10.118203934426232 9.079110840564578e-05
142 1 46.27573770491804 10.193184262295082 3.2774408264031565e-05
143 1 48.43582754098361 9.394555409836068 3.5227762766026265e-05
144 1 52.15853770491804 9.642975081967213 2.5608770278791603e-05
145 1 54.30140983606558 10.665434098360658 1.4658298425348394e-05
146 1 57.16076065573771 10.049080655737706 4.885886611769386e-05
147 1 59.947908196721315 10.041456393442624 8.160517076989148e-05
148 1 62.7592918032787 9.724973770491804 7.502888645903934e-05
149 1 65.1571475409836 10.778232786885246 1.369540162523092e-05
150 1 68.10031475409836 10.031358032786887 2.012709421162574e-05
151 1 70.686 10.181621639344263 6.195471462894093e-05
152 1 73.31106885245902 9.946329836065575 8.219999659377048e-05
153 1 76.02449836065576 9.575921967213116 5.454587865636187e-05
154 1 78.84446557377049 9.855899016393444 5.096763679995944e-05
155 1 81.3968262295082 10.238071475409837 5.814319472050406e-05
156 1 82.55813770491804 12.589222295081969 9.382926492886158e-05
157 1 3.422576786885246 12.266074754098362 5.0503383567714e-05
158 1 4.9799308196721315 12.289099016393443 3.351471685787624e-05
159 1 7.695354754098362 12.485057704918034 6.55539019371898e-06
160 1 10.312193442622952 12.09177704918033 3.654737423053225e-05
161 1 13.018150163934427 12.425881311475411 8.547474290478224e-05
162 1 15.675735737704919 12.461528524590165 9.881111718669553e-05
163 1 18.343470163934427 12.459710819672132 5.203918713248424e-06
164 1 21.054476065573773 12.570035409836066 6.771949363440545e-05
165 1 23.721301639344265 12.57912393442623 3.299577720403959e-05
166 1 26.371868852459016 12.21225049180328 5.0605600058264864e-06
167 1 29.08878229508197 12.185641311475411 4.8324858006056876e-05
168 1 31.78933639344263 12.325958032786886 8.687144778813085e-05
169 1 34.910487213114756 12.153023606557378 3.014809570158166e-05
170 1 38.17099540983607 12.042598032786886 5.53045790249318e-05
171 1 39.71791278688525 12.154790819672133 9.72223404037304e-05
172 1 42.359845901639346 12.44900655737705 1.766750783622959e-05
173 1 45.14537770491803 12.49444918032787 4.6483500469066744e-05
174 1 47.95575147540984 12.261278032786887 8.979763725192524e-05
175 1 50.77758688524591 12.059310819672133 1.4118990617305028e-05
176 1 53.59553442622951 12.023259672131148 5.9648678754021225e-05
177 1 55.993895081967224 13.420115409836068 6.938003780061326e-05
178 1 58.72247213114755 12.281272786885246 2.3104873947967374e-05
179 1 61.4076262295082 12.090262295081969 5.302827950587534e-05
180 1 64.20941639344264 12.00932393442623 4.2742718787372035e-05
181 1 66.84458360655738 12.296268852459018 6.030653496994977e-05
182 1 69.34089836065574 12.475312786885247 1.0246151442297725e-05
183 1 71.92052459016394 12.421337049180329 8.384587685740988e-05
184 1 75.49635409836065 11.8388131147541 7.42431649327586e-05
185 1 77.0429180327869 11.818111475409836 8.753828247118811e-05
186 1 79.70737049180329 12.36276655737705 7.453775195126212e-06
187 1 0.6115617704918033 15.040649836065574 7.67759546401187e-05
188 1 3.4636013770491805 14.895435409836066 8.400296922803289e-05
189 1 6.400088524590164 14.7062931147541 1.555363283359089e-05
190 1 9.866300327868855 14.45994360655738 7.476441621168121e-05
191 1 11.412914754098361 14.47564655737705 2.167743724822242e-05
192 1 14.08100262295082 14.739112786885247 9.26264369923868e-05
193 1 16.842752786885246 14.76289442622951 8.968262450187981e-05
194 1 19.58844655737705 14.79409836065574 9.003923305814404e-05
195 1 22.33515016393443 14.91532918032787 7.336043394052655e-05
196 1 25.98838360655738 14.443079344262298 6.700411138997252e-05
197 1 27.53605836065574 14.40440262295082 6.364398372873226e-06
198 1 30.30346360655738 14.488976393442623 4.508146849204431e-06
199 1 32.47602491803279 13.708979016393444 5.90123127630818e-05
200 1 35.51522754098361 15.851144262295083 5.349383452596341e-05
201 1 38.20896524590164 14.893062295081968 4.1947713128459255e-05
202 1 41.02337836065575 14.662365245901642 9.992446175499005e-06
203 1 43.846526557377054 14.6878131147541 3.203398160357363e-05
204 1 46.640944918032794 14.571227540983607 4.3529341192565835e-05
205 1 49.38749704918033 14.368351475409838 6.953676729127097e-05
206 1 52.12167868852459 14.264590819672133 9.114687676735299e-05
207 1 54.964872131147544 14.557796721311478 5.045117658070185e-05
208 1 57.653055737704925 14.76794360655738 7.494427347892731e-05
209 1 60.12715409836066 14.508062295081968 7.614291194839317e-05
210 1 62.56136393442623 14.24959475409836 7.484738537924194e-05
211 1 65.19148196721312 14.400464262295083 1.5091647024576905e-05
212 1 67.83371803278689 14.800662295081969 9.26630065020994e-05
213 1 70.33659672131148 14.817627540983608 3.6255415732378004e-08
214 1 72.83543606557379 14.827725901639345 4.415435618380679e-05
215 1 75.33377049180328 14.536590163934427 7.067719430734998e-05
216 1 78.06537704918034 14.355223606557379 6.109370807309706e-05
217 1 80.69398032786886 14.553302950819674 8.510308723693428e-05
218 1 81.86740983606558 17.060321967213117 2.147367896179957e-05
219 1 1.2895505573770494 16.411704262295085 8.545312363575009e-05
220 1 4.77956924590164 16.79877442622951 7.153088964959221e-05
221 1 7.301316721311476 17.175392786885247 8.919360172684425e-05
222 1 10.025349508196722 17.16403213114754 4.892452199313216e-05
223 1 12.6734931147541 16.94560459016394 1.59390298805125e-05
224 1 15.31037704918033 16.979787540983608 7.228877156901676e-05
225 1 18.091162622950822 17.02209967213115 9.074468487756229e-05
226 1 20.683159344262297 17.092434754098363 7.818542337403608e-05
227 1 23.212798688524593 17.304146885245903 6.895407864901363e-05
228 1 26.204539016393447 16.845984262295083 3.5863951468239156e-05
229 1 29.136497049180328 16.644521967213116 4.3387368251040796e-05
230 1 31.838919344262298 16.633918688524595 5.999429792455694e-05
231 1 34.64636459016394 17.12873836065574 2.7590770956802527e-05
232 1 37.25007540983607 17.446281311475413 2.9735259632421796e-05
233 1 39.8822131147541 16.99382426229508 1.3461041620501057e-05
234 1 42.65603081967213 16.867493770491805 5.144837373981173e-05
235 1 45.392232131147544 16.851740327868853 8.011539336131466e-05
236 1 48.06491475409837 16.739345573770493 9.13786369743486e-05
237 1 50.72810491803279 16.604885901639346 5.628902229486208e-05
238 1 53.363777049180335 16.54278098360656 5.184887568070698e-05
239 1 56.104472131147546 16.875118032786887 6.775705964252935e-05
240 1 58.79215081967213 17.061988196721316 9.590040970135861e-05
241 1 61.42378360655738 16.865171147540988 6.829723356478562e-05
242 1 63.917068852459025 16.61251016393443 5.5523931431766815e-08
243 1 66.1740524590164 17.86738295081967 5.3435249109058996e-05
244 1 68.9925049180328 17.263349508196722 4.2735611302295564e-05
245 1 71.54587540983607 17.249312786885245 2.2423470103188916e-05
246 1 74.15832131147542 17.069259016393442 6.602055059532852e-06
247 1 76.76218360655739 16.68446098360656 8.123623942273998e-05
248 1 79.4109836065574 16.778274754098362 7.93678630807748e-05
249 1 0.7501819672131148 19.275144918032787 7.756516358781058e-05
250 1 3.381355278688525 19.187996065573774 1.9787642964592503e-05
251 1 5.801710163934427 19.31291278688525 4.3985947236471816e-05
252 1 7.941906229508198 18.559474098360656 9.287003880175536e-05
253 1 11.476685901639346 19.404302950819673 6.9191298091075e-05
254 1 13.938918688524591 19.3194262295082 4.524001596943835e-05
255 1 16.614529836065575 19.18703672131148 3.300371010459652e-05
256 1 19.336845901639343 19.4265193442623 7.680260657404934e-05
257 1 22.154389508196726 19.557293114754103 1.96558810937015e-05
258 1 24.14805836065574 18.50746754098361 9.542360024371636e-05
259 1 27.789678688524592 18.715493770491808 3.950288655295594e-05
260 1 30.357944262295085 18.96174229508197 7.900922461055363e-05
261 1 32.91252655737705 19.04904262295082 7.04598082695769e-05
262 1 35.613383606557385 19.606472131147545 7.268793095100393e-05
263 1 38.808656393442625 19.52735147540984 6.982932276251695e-05
264 1 41.52471147540984 19.139624918032787 9.919323468811995e-05
265 1 44.20986557377049 19.130940327868856 9.14507753180319e-05
266 1 46.869167868852465 19.132505573770494 8.024482361848426e-05
267 1 49.45682229508197 19.0083462295082 4.922958810133125e-05
268 1 52.23881967213115 18.905696393442625 6.97667494930488e-05
269 1 54.934072131147545 18.862172459016396 2.0930324651060295e-05
270 1 57.30163278688525 20.233529836065575 2.8738124732647332e-05
271 1 60.14028196721312 19.31478098360656 7.518437832205388e-05
272 1 62.886026229508204 19.18264393442623 1.3877914856673891e-05
273 1 65.59440655737706 19.275750819672133 4.6674066956894245e-06
274 1 67.85896393442623 20.813276721311478 9.19638407624939e-05
275 1 70.4623213114754 19.65984196721312 7.546423039371862e-05
276 1 73.0808262295082 19.485342295081967 4.1840023578421204e-05
277 1 75.61601967213115 19.180977704918035 7.44408657795595e-05
278 1 78.20776393442624 19.01329442622951 5.733133553283812e-05
279 1 80.77880655737707 19.33639147540984 3.034359814059291e-05
280 1 82.29558032786886 21.61352131147541 2.1545696151161454e-05
281 1 2.3516052459016397 21.550860983606558 2.2593763941017364e-05
282 1 4.953548852459018 21.67330360655738 3.2191004217790976e-05
283 1 7.600480655737705 21.371867540983608 5.450173610526567e-05
284 1 9.689276065573772 22.709142950819675 7.243860211017776e-05
285 1 13.010626885245903 21.84987344262295 8.854290634788167e-05
286 1 15.584396065573772 21.509407213114756 3.4821074847241995e-05
287 1 18.053950163934427 21.50430754098361 6.6383794886639925e-06
288 1 20.135121311475412 20.744708852459016 6.577026400655086e-05
289 1 23.892569836065576 21.44195016393443 5.75090103592923e-05
290 1 26.53016065573771 21.043973770491803 4.784145736708899e-05
291 1 28.784064262295082 22.254161311475414 3.3969766036444195e-06
292 1 31.560305573770496 21.428519344262295 5.844222578827088e-05
293 1 34.20738885245902 21.51693049180328 8.634968231828504e-05
294 1 36.446902295081976 20.89860786885246 5.289232988485042e-05
295 1 40.19591868852459 21.535057049180327 8.97134561844895e-05
296 1 42.85421114754099 21.432861639344264 2.3055816418001443e-05
297 1 45.61288131147541 21.478809180327872 3.907809495759176e-05
298 1 48.28147409836066 21.490220327868855 8.755097154926919e-05
299 1 50.970970491803286 21.156822950819674 7.577804366846502e-05
300 1 53.72479344262296 21.180200655737707 4.019917744736653e-05
301 1 56.42711475409836 21.50309573770492 2.4459511786493495e-05
302 1 58.9936131147541 21.702437377049183 1.0556187114235427e-05
303 1 61.62625573770493 21.508599344262297 8.784735649498886e-05
304 1 64.2720262295082 21.528139672131147 5.332714466655586e-05
305 1 67.03392786885247 22.10016131147541 9.461792988345072e-05
306 1 69.58931803278689 22.272893770491805 2.738543494977879e-05
307 1 72.14420327868854 21.880673442622953 6.574396194483214e-05
308 1 74.8212786885246 21.66896131147541 3.149767675263922e-05
309 1 77.2893180327869 21.381158032786885 8.076878729778988e-05
310 1 79.6068918032787 22.702074098360658 5.668911537612723e-05
311 1 1.1961003278688527 23.79153573770492 7.293616302428318e-05
312 1 3.77015731147541 23.98370754098361 9.790625690405443e-05
313 1 6.377367213114755 23.879997377049182 5.3473138915470565e-05
314 1 9.01596786885246 24.07913704918033 8.659342718306064e-05
315 1 10.997165245901641 23.497067540983608 5.200409099466902e-05
316 1 14.71013049180328 23.97482098360656 6.794735183666449e-05
317 1 17.151106229508198 23.893428196721313 5.2651243611998644e-05
318 1 19.770368524590165 23.612340327868854 7.599110812954423e-05
319 1 22.426338360655738 23.774469508196724 1.946465594923117e-05
320 1 25.046509508196724 23.544580327868854 2.424869075635926e-05
321 1 27.86016524590164 23.477880655737707 1.5289740283055365e-05
322 1 30.376929180327874 23.883430819672135 5.0630494597205614e-05
323 1 33.1666518032787 23.767501639344268 8.490384164093865e-05
324 1 35.81822885245902 23.716403934426232 2.9664665510753496e-05
325 1 38.550138360655744 23.673940327868852 6.918716970760912e-05
326 1 41.290278032786894 23.76770360655738 6.969721680074463e-05
327 1 43.969979016393445 23.67030491803279 2.4169005608258234e-05
328 1 46.695375081967214 23.847228196721314 5.9134533049190935e-05
329 1 50.60995409836066 23.356043934426232 9.978405803367913e-05
330 1 52.15651803278689 23.37295868852459 5.537376631261127e-05
331 1 54.75028196721312 23.60840196721312 2.6084142525641032e-05
332 1 57.44200000000001 23.936144262295084 3.816147487381583e-06
333 1 60.20188196721312 23.913372459016397 4.91964295858199e-05
334 1 62.83856393442624 23.852226885245905 9.584170768663716e-05
335 1 65.37527213114755 23.959269508196723 1.297139595822815e-05
336 1 68.04376393442624 24.529473442622955 9.578421602197554e-05
337 1 71.18132459016394 24.40637442622951 6.782485358292024e-05
338 1 73.87556721311476 24.011124590163934 3.4733863022255616e-05
339 1 76.4536786885246 23.940587540983607 5.443701595672193e-05
340 1 79.05400655737706 24.13336524590164 2.7161815233771548e-05
341 1 81.36501639344263 24.123620327868853 9.389958756602402e-05
342 1 0.2347894098360656 26.297746885245903 3.7124768760071225e-05
343 1 2.500313704918033 27.4352262295082 2.227388787313639e-05
344 1 5.2459468852459015 26.3086531147541 5.564975595427557e-05
345 1 7.940593442622951 26.273864262295085 7.926590983438404e-05
346 1 10.677804590163936 26.350813770491804 9.962923732803651e-05
347 1 13.45237967213115 26.186361967213116 5.824292883585254e-05
348 1 16.192165901639346 26.375504262295085 5.1824294855260715e-05
349 1 18.807994754098363 26.035492459016396 8.687592149045042e-05
350 1 21.144452459016396 27.1966524590164 3.979483789821141e-05
351 1 23.911807213114756 26.053518032786886 2.5644768835843237e-05
352 1 26.51890098360656 25.662963934426234 4.385528525326524e-05
353 1 28.926198688524593 26.97893180327869 3.4269838815493172e-06
354 1 31.807160000000003 25.98323344262295 9.267443657612325e-05
355 1 34.51756 26.102596065573774 1.764504673999371e-05
356 1 37.19867475409837 25.995452459016395 3.562626692440914e-05
357 1 39.903621639344266 25.986161967213118 9.366412820315362e-05
358 1 42.58357508196721 26.01302360655738 9.306495502656227e-05
359 1 45.19536459016394 25.984041311475412 7.91265169576566e-05
360 1 47.32218032786886 25.26720918032787 1.8059786061239325e-05
361 1 50.85837377049181 26.151118688524594 4.435345284640663e-05
362 1 53.41174426229509 25.89320655737705 2.9959613706320055e-05
363 1 55.9600655737705 26.038219016393445 7.638274940604108e-05
364 1 58.66996065573771 26.12466098360656 3.4062890763743515e-05
365 1 61.51264918032788 26.20787147540984 2.3544733568599985e-05
366 1 64.10388852459018 26.308956065573774 1.0772880726794232e-05
367 1 66.66937704918033 26.43649836065574 9.313909975146784e-06
368 1 68.88091803278688 25.806360655737706 1.7111129670356185e-05
369 1 72.66022950819674 26.40499147540984 1.0317730854065621e-05
370 1 75.28479344262296 26.337180983606558 9.94681253211888e-05
371 1 77.84472786885247 26.38757180327869 6.126600390687604e-05
372 1 80.39557377049181 26.64255540983607 6.65701660960853e-05
373 1 1.7092232786885246 28.763211147540986 4.695650380735871e-05
374 1 4.348778229508198 28.759323278688527 1.4036363305372724e-06
375 1 6.928333770491804 28.557406557377053 5.7272391601123785e-05
376 1 9.493266885245903 28.560587540983608 3.199395740914549e-05
377 1 12.185186885245903 28.489343606557377 5.5584184686006e-05
378 1 14.958701639344264 28.549529836065577 4.905081411048895e-05
379 1 17.64799606557377 28.590832131147543 6.5881122717152e-05
380 1 20.4182793442623 28.578411147540987 4.119042972544702e-05
381 1 22.9730131147541 28.540087868852464 4.544629832188081e-05
382 1 25.737944262295084 28.18169704918033 7.394442996476444e-05
383 1 28.443396065573776 28.4338531147541 1.2878261243131051e-05
384 1 30.87482885245902 28.04228918032787 9.729125301763687e-06
385 1 32.097285901639346 29.65216983606558 4.161100480076907e-06
386 1 36.04751213114754 28.385532459016396 6.539497323571309e-06
387 1 38.72292131147542 28.284245901639345 5.5507588150774634e-05
388 1 41.37449836065574 28.301211147540986 7.83301845072236e-05
389 1 44.0534924590164 28.33337442622951 1.0535945150105963e-05
390 1 46.74142360655738 28.174779672131148 1.6036919854003175e-05
391 1 49.42031672131148 28.451474754098363 5.724471213527046e-05
392 1 52.07068196721312 28.39780196721312 3.3324094027989484e-05
393 1 54.6205180327869 28.378009180327872 8.194482334097415e-05
394 1 57.09613114754099 28.335596065573775 2.2734005809319036e-05
395 1 59.816629508196726 28.241580327868856 2.231558798829637e-05
396 1 63.01023606557378 28.607696393442623 8.278916217025541e-05
397 1 65.68327213114755 28.70342885245902 9.474415164515204e-05
398 1 68.32500327868853 28.602748196721315 7.028516523046701e-05
399 1 71.08539016393443 28.514185573770497 7.847132141038609e-05
400 1 73.8159868852459 28.667428196721314 4.087414297396218e-05
401 1 76.55264262295083 28.74574098360656 5.227217672489857e-05
402 1 79.07975737704919 28.90408327868853 3.637159923422918e-05
403 1 81.73310163934427 28.876514754098363 5.300426800651489e-05
404 1 0.3192541180327869 31.161925245901642 4.485905215788603e-05
405 1 3.0091852459016395 31.037967868852462 5.322417104300336e-05
406 1 5.708148852459017 30.995605245901643 5.502275560602921e-06
407 1 8.289592786885247 30.953899016393446 5.0186518456840194e-05
408 1 10.858211803278689 30.8225193442623 8.010322697576745e-05
409 1 13.531803278688527 30.737188196721313 9.548339794084393e-05
410 1 16.194236065573772 30.932742950819677 4.265482709531785e-05
411 1 18.978051147540985 30.8869468852459 9.239343277373821e-05
412 1 21.708849836065575 30.95601967213115 2.6700828055900163e-05
413 1 24.46651016393443 30.531282622950823 9.475136560906525e-05
414 1 27.23613704918033 30.59772983606558 7.257462709859056e-05
415 1 30.712952131147542 30.350572459016398 3.9633457111712406e-06
416 1 33.54872327868853 30.111443278688526 8.76663318086804e-05
417 1 35.267969180327874 30.948597377049182 8.067680594155915e-05
418 1 37.7093993442623 30.62529836065574 2.01984053021786e-05
419 1 40.25166163934426 30.61575540983607 3.683391001227935e-05
420 1 42.829722622950825 30.61787606557377 6.751890644425674e-05
421 1 45.48336983606558 30.556982950819677 7.127947669265111e-06
422 1 48.13949114754099 30.606616393442625 8.423107059564927e-05
423 1 50.752340983606565 30.753900983606563 5.9191651955708925e-05
424 1 53.31732459016394 30.792628196721314 7.836955026727483e-05
425 1 55.91866229508197 30.816712786885248 4.5002383640076515e-05
426 1 59.22133114754099 30.292506885245906 6.07795335317768e-05
427 1 60.55431475409837 29.565727868852463 9.029045213175558e-05
428 1 64.13165901639344 30.91098098360656 6.335880875223936e-05
429 1 67.21923278688524 30.97263147540984 7.631719579708115e-05
430 1 69.92155409836066 30.762131147540984 6.592262019844934e-05
431 1 72.42039344262297 30.823832131147544 3.980907888583104e-05
432 1 75.06868852459017 30.9179993442623 8.006160256006289e-05
433 1 77.64579016393444 31.245388196721315 8.703225319952254e-05
434 1 80.26227540983608 31.22635278688525 1.6202399330247907e-05
435 1 2.5458573114754097 33.13973967213115 8.812439256185742e-05
436 1 4.0944055737704925 33.229160655737715 8.539246935307748e-05
437 1 6.830480655737706 33.33302229508197 6.584929556770768e-05
438 1 9.700838688524591 33.281722622950824 9.306169927914558e-05
439 1 12.394879344262296 33.061123934426234 6.996923811508615e-05
440 1 14.759612459016395 34.284338360655745 6.722674256219956e-05
441 1 17.59497967213115 33.19371540983607 2.2067207098552666e-05
442 1 20.437264262295084 33.23547213114754 3.101032280260693e-05
443 1 23.978809836065576 32.714144262295086 9.766628150568457e-06
444 1 25.51512393442623 32.71984983606558 7.697190485859527e-05
445 1 28.04420786885246 33.17462950819672 7.499051797025699e-05
446 1 30.583491147540986 33.07859409836066 6.828814574137965e-06
447 1 33.484497704918034 33.06960655737706 8.945917776499288e-05
448 1 36.29487147540984 33.17286229508197 5.037130367068208e-05
449 1 38.99608196721312 33.02315409836066 3.3144778300519765e-06
450 1 41.63246098360656 33.001644590163934 7.191451119541986e-05
451 1 44.191840000000006 32.91247606557378 1.187746194696283e-05
452 1 46.91127803278689 32.89621770491804 3.4949415722174025e-05
453 1 49.512868196721314 33.0398668852459 8.518522561860132e-06
454 1 52.004537704918036 33.173973114754105 2.9164787852221854e-05
455 1 54.49277377049181 33.172963278688535 1.60751310143481e-07
456 1 57.04513442622952 33.26500983606558 6.043517529951204e-06
457 1 59.60254426229508 32.95307147540984 6.782373626279358e-05
458 1 62.40635409836066 32.72469704918033 8.231487472462923e-05
459 1 64.87691803278689 32.2407331147541 1.1801909644198883e-05
460 1 68.68248524590165 33.09278229508197 8.017462389524354e-05
461 1 71.30755409836067 33.21416459016394 4.221353396459315e-06