# input file

2232 atoms
1 atom types

0.0 82.68810555352132 xlo xhi
0.0 83.16 ylo yhi
-10.0 10.0 zlo zhi
0.0 0.0 0.0 xy xz yz

Masses

1 12.0100 #C

Atoms

1 1 1.8319789508196724 0.6970090491803279 7.845576802487505e-05
2 1 4.538531475409837 0.5698555409836066 6.590022892861854e-05
3 1 7.244715409836067 0.54478131147541 4.736739092689829e-05
4 1 10.095078688524591 0.762380786885246 7.412631135521184e-05
5 1 12.62153704918033 1.0208634754098362 5.5201133748567345e-05
6 1 15.267509508196722 0.8970020327868853 1.3041370070487046e-05
7 1 18.805217704918036 0.48673694426229513 6.881554881339581e-05
8 1 20.341986229508198 0.6490064918032787 4.265310741007328e-05
9 1 22.988463606557378 0.9545828852459017 5.026282554036941e-05
10 1 25.60328262295082 0.5200100327868853 7.757317963260002e-05
11 1 28.44541573770492 0.4828657377049181 9.102702082475808e-05
12 1 31.855682622950823 0.37026295737704923 8.607553443483545e-05
13 1 33.37684918032787 0.5503758032786886 6.598014334214109e-06
14 1 35.855188852459015 0.6788925901639344 7.198892483497948e-05
15 1 38.51125967213115 0.527952393442623 9.00389160737094e-05
16 1 40.774251803278695 1.8745435409836066 9.758332820367122e-06
17 1 43.647538360655744 1.0091392786885247 7.430876329652003e-06
18 1 46.76071147540984 0.8240918688524591 8.439887962097239e-05
19 1 49.474948852459015 0.64888531147541 6.636121951756645e-05
20 1 52.1408655737705 0.7787148852459017 1.9798548965355645e-05
21 1 54.87701639344263 0.8044101639344263 1.033804621312996e-05
22 1 57.59549508196722 0.6091280655737706 6.33652873545888e-05
23 1 59.908019672131154 1.9268429508196723 6.559150762192684e-05
24 1 62.68708852459017 1.0368390819672133 6.687869674782556e-05
25 1 65.38133114754099 1.0049131147540984 6.196681700366684e-05
26 1 68.06194098360656 0.9671502950819673 8.857250342044379e-05
27 1 70.74860983606558 0.8882063606557378 8.679644232245822e-05
28 1 73.46304918032787 0.7782857049180328 4.250258781555017e-05
29 1 76.19314098360655 0.7322876721311476 4.412325790365378e-05
30 1 78.95100327868853 0.9749361311475411 4.6812749736396676e-05
31 1 81.75632786885247 0.8974110163934427 7.819834870882028e-05
32 1 0.4429802426229508 3.0156582950819675 4.482512879469341e-05
33 1 3.193540918032787 2.938991540983607 3.2621459861913006e-05
34 1 5.8415986885245905 2.8871364590163937 2.5347708998898745e-05
35 1 8.558108196721312 2.815246229508197 9.03241099305388e-05
36 1 11.09996655737705 3.272777704918033 6.023667535598261e-05
37 1 13.750685245901641 3.2700965901639347 6.903703717884623e-05
38 1 16.45800524590164 3.370878229508197 3.663918508920783e-06
39 1 18.938869508196724 3.03335062295082 6.892075557236662e-05
40 1 21.683099016393445 3.109527606557377 2.2120643465754975e-05
41 1 25.238782295081972 2.7707023606557377 9.119337007972809e-05
42 1 26.75823213114754 2.590487016393443 9.837246986940796e-05
43 1 29.309936393442626 3.0419190819672135 3.391679457014253e-05
44 1 31.833920655737707 3.0680233442622953 8.132730228992061e-05
45 1 34.548713442622955 3.068775672131148 7.512475261806242e-05
46 1 37.252246557377056 2.966014754098361 6.60709453757965e-06
47 1 39.99006360655738 3.199473704918033 2.1183215342896933e-05
48 1 42.49849639344263 3.28922793442623 4.829391116511251e-06
49 1 44.526802622950825 2.2918481967213116 1.4471337845640321e-05
50 1 48.23173967213115 2.9716647868852464 3.9320354416642725e-05
51 1 50.84928524590164 3.0166832786885247 3.602124352210693e-05
52 1 53.513737704918036 3.033699016393443 5.211461560751158e-05
53 1 56.262511475409845 2.9746589508196726 7.977924207495702e-06
54 1 59.10015081967214 3.2371860327868855 4.5424440505713074e-05
55 1 61.54142950819673 3.498864852459017 4.866466246990051e-05
56 1 64.14175737704919 3.3361348196721314 8.591950724838277e-05
57 1 66.79055737704918 3.31325193442623 2.681185150415777e-06
58 1 69.41714098360656 3.2456181639344264 2.8995045374992147e-05
59 1 72.08916721311476 3.1201157377049182 5.998499731029351e-05
60 1 74.81976393442623 3.0218536393442625 8.599312400610287e-05
61 1 77.55339016393444 3.064953442622951 2.615960684046419e-05
62 1 80.34104262295082 3.102691016393443 1.807456382273578e-05
63 1 1.7029521967213115 5.220549508196721 7.328410986583873e-05
64 1 4.360613508196721 5.270536393442623 7.414496594999254e-06
65 1 7.75392524590164 5.026857901639345 3.926988720008828e-06
66 1 9.252269508196722 5.354302295081968 2.060861049185363e-05
67 1 12.324241311475411 5.593280000000001 4.93353702966803e-05
68 1 15.175765901639346 5.558036721311476 2.5929159939305437e-05
69 1 18.72801573770492 5.300579016393443 5.448077550108472e-05
70 1 20.25771540983607 5.289420327868853 5.394729078070464e-05
71 1 22.706365901639344 5.671340327868854 5.584815567666902e-05
72 1 25.163902950819676 5.291288524590164 2.6761985413794732e-05
73 1 27.920553442622953 5.147740327868853 6.245083206670262e-05
74 1 30.59914360655738 5.450388196721312 3.724677993386062e-05
75 1 33.19114032786885 5.372428852459017 5.355731864375858e-05
76 1 35.88528196721312 5.329005901639345 3.201262963781087e-05
77 1 38.61446491803279 5.350060983606558 7.084834946139058e-05
78 1 41.35339278688525 5.630845901639344 2.223276460093272e-05
79 1 44.06162163934427 5.27987737704918 9.509847911290343e-05
80 1 46.737232786885244 5.127947540983607 5.8483996131547734e-05
81 1 49.449198032786896 5.330773114754099 2.5576095770005547e-05
82 1 52.133291803278695 5.3380439344262305 2.785039157160627e-05
83 1 54.745737704918035 5.234232786885246 7.293250466860602e-05
84 1 57.44856393442624 5.220095081967213 6.36232838460441e-06
85 1 60.04788196721312 5.807163278688526 5.2859892494979434e-05
86 1 62.7052655737705 5.76000393442623 1.0576947147356076e-05
87 1 65.46009836065575 5.6685127868852465 9.846314938340306e-06
88 1 68.14424262295083 5.6518504918032795 5.685392026629017e-05
89 1 70.7516393442623 5.508251803278689 4.194486975570413e-05
90 1 73.50293770491804 5.329157377049182 7.232061605883882e-05
91 1 76.20273442622951 5.2925003278688525 3.610935288239735e-05
92 1 78.91414426229508 5.280331803278689 2.2114524544615712e-05
93 1 81.65433442622951 5.251198032786886 3.662022667987397e-06
94 1 0.2002121180327869 7.47480655737705 8.46123815462776e-06
95 1 2.8440215081967217 7.563874098360656 6.469320582704878e-05
96 1 5.330116721311476 7.88060918032787 8.018139269007682e-05
97 1 7.66576655737705 7.728376393442624 8.448744430109766e-05
98 1 9.822069508196723 6.8064970491803285 4.0880998235644706e-05
99 1 13.503729836065574 7.62456524590164 1.4583610051351416e-05
100 1 16.225440000000003 7.907723278688525 1.6729057801015204e-05
101 1 18.742355409836065 7.936150163934427 3.5443243023330754e-05
102 1 21.4685593442623 7.929232786885247 6.431161741834834e-06
103 1 24.947899016393443 7.607549508196723 5.70361284913257e-05
104 1 26.462451147540985 7.392959344262295 2.6113545640180213e-05
105 1 29.069898360655742 7.551958032786886 9.312078706066885e-05
106 1 31.719253770491807 7.791592131147541 5.501371096200088e-05
107 1 34.45570754098361 7.6669783606557385 2.386683760366486e-05
108 1 37.27289770491804 7.616688524590165 9.225456257622626e-05
109 1 40.05186557377049 7.730093114754099 4.85202055609542e-05
110 1 42.80306295081968 7.730345573770493 2.2053756906313038e-05
111 1 45.41015672131148 7.537921311475411 4.404427198923713e-05
112 1 48.14903409836066 7.5135337704918035 5.951989692009513e-05
113 1 50.81848524590165 7.634613114754099 4.187354787544579e-05
114 1 53.50868852459017 7.644660983606558 8.598126385261839e-05
115 1 56.19939672131148 7.47480655737705 4.4995396801445846e-05
116 1 58.529593442622954 8.869137704918034 6.323610805843063e-05
117 1 61.35460983606558 8.12352524590164 9.159064084743527e-05
118 1 63.91353442622951 7.934080000000001 8.174579848945973e-05
119 1 66.69108852459017 7.977906885245902 9.630574529880307e-05
120 1 69.63425573770493 7.969979672131148 4.525892771250662e-06
121 1 72.30274754098362 7.640116721311476 1.9369949790022268e-06
122 1 74.93539016393443 7.590079344262295 8.894045801516566e-05
123 1 77.5352131147541 7.554331147540984 1.432849061454219e-05
124 1 80.18552786885246 7.5036373770491815 5.4893494129787724e-05
125 1 1.417067606557377 9.829895737704918 7.719742890510615e-05
126 1 4.082479409836067 10.128403278688525 4.6757685421775686e-05
127 1 6.740403278688525 10.310577704918034 8.68233970211719e-05
128 1 9.32326098360656 9.769356065573772 4.982207217431506e-05
129 1 12.001851147540984 9.702555409836068 8.735158274236204e-05
130 1 14.712402622950822 9.921083934426232 8.545045162092507e-05
131 1 17.35125573770492 10.287099016393443 4.1050851419177615e-05
132 1 19.92431803278689 10.17980393442623 1.9480762390503237e-05
133 1 22.548124590163933 10.361978360655737 6.619877908854313e-05
134 1 25.19020918032787 10.202222295081969 5.9786274890104846e-05
135 1 27.929187540983612 9.793036721311475 8.035492786816836e-05
136 1 30.299121311475414 11.090979016393444 7.426003566347999e-05
137 1 33.05021770491803 10.018836065573772 6.331342831276681e-05
138 1 35.92779606557377 9.826361311475411 2.9970570491686344e-05
139 1 38.73776590163935 9.891697704918032 3.328023195057541e-05
140 1 41.50183868852459 9.998588852459017 2.0762389185139897e-05
141 1 44.22925442622952 10.028732459016394 1.785735921463084e-05
142 1 46.88461836065574 9.770365901639346 7.123036931983725e-05
143 1 49.54558688524591 9.897352786885246 4.047559233339882e-05
144 1 52.07724590163935 9.948652459016394 8.022277485206832e-05
145 1 54.853285245901645 9.866855737704919 1.1310267050302582e-06
146 1 57.67123278688525 10.146075409836067 1.0814379748591409e-05
147 1 60.29630163934427 10.496236065573772 4.5201331358178e-05
148 1 62.937022950819674 10.418276721311477 5.186272226230406e-05
149 1 65.39193442622951 10.108307540983608 5.091765124559443e-05
150 1 67.46007868852459 9.315636721311476 7.138999016669827e-05
151 1 70.94350819672131 10.054937704918034 7.191328760216691e-05
152 1 73.6352262295082 9.936938360655738 3.8738270462909095e-05
153 1 76.2340393442623 9.933050491803279 3.148606456539484e-05
154 1 78.73944262295082 9.840347540983608 2.301708530014529e-05
155 1 81.45236721311477 9.748856393442624 4.220078139440807e-05
156 1 82.63740983606557 12.08405180327869 4.681258523245794e-05
157 1 2.451619409836066 12.237041967213116 4.690860845644655e-05
158 1 5.150668852459017 12.524188852459018 3.2575545365128016e-05
159 1 8.343013114754099 12.39745442622951 9.361896709418072e-05
160 1 11.057704918032787 12.018715409836068 3.5345196301524496e-05
161 1 13.943816393442624 11.918792131147542 7.249656059402855e-05
162 1 15.478312786885247 12.28304 7.05944906355368e-06
163 1 18.311559344262296 12.552363278688526 5.092908259698382e-06
164 1 21.11683344262295 12.5780131147541 9.848717771987229e-05
165 1 23.943718032786887 12.572156065573772 8.47526401600367e-05
166 1 26.772521311475412 12.263499672131148 7.69887051650342e-05
167 1 29.577542950819673 12.465315409836066 4.897732173169956e-06
168 1 32.0604268852459 12.551504918032787 2.3211676829861083e-05
169 1 34.6786793442623 12.001851147540984 9.99812273877695e-05
170 1 37.414729180327875 12.038053770491805 5.4450640780063256e-05
171 1 40.057823606557385 12.193316065573772 4.531199921388476e-05
172 1 42.74151344262296 12.32388786885246 2.973487546335736e-05
173 1 46.443976393442625 12.019977704918034 4.4162473850503664e-05
174 1 48.00255737704918 12.128383606557378 3.816834669740954e-06
175 1 50.6584262295082 12.374480655737706 9.383774427795305e-05
176 1 53.30975081967214 12.115457704918034 6.554188292957064e-05
177 1 56.003993442622956 12.159436065573772 8.083352099315266e-05
178 1 58.716413114754104 12.597957377049182 3.562394170532709e-05
179 1 61.60656393442624 12.779879344262296 7.059478929750826e-05
180 1 65.227331147541 12.399221639344264 5.351840667074285e-05
181 1 66.77540983606558 12.244918688524592 6.556040058451662e-05
182 1 69.37018360655739 12.364079344262297 7.270116497896096e-05
183 1 72.11794754098361 12.227044590163937 2.4801284821130357e-05
184 1 74.87328524590166 12.286624918032787 7.475845644286467e-05
185 1 77.43574426229509 12.325099672131149 3.47354134736521e-05
186 1 80.02799344262297 12.027904918032789 1.4993882462601082e-05
187 1 0.9206877377049181 14.556332459016396 7.652563301871251e-05
188 1 3.6232766557377056 14.596675409836067 4.79614753636351e-05
189 1 5.945662295081967 13.838389508196723 1.427419637120805e-05
190 1 9.529065573770492 14.43257704918033 8.248966397786263e-06
191 1 12.072792131147542 15.07240918032787 2.7324212873896216e-05
192 1 14.34664 14.844994098360658 3.777760206845424e-05
193 1 17.029320000000002 14.607733114754101 9.551055990289698e-05
194 1 19.741941639344265 14.744111475409838 4.450969564835983e-06
195 1 22.484302950819675 14.722450491803281 4.913328347417434e-06
196 1 25.23383409836066 14.55421180327869 2.8632711669823874e-05
197 1 28.025121967213117 14.593191475409839 5.1370220868445716e-05
198 1 30.64807016393443 14.95612655737705 5.582855118225206e-05
199 1 34.25853704918033 14.34860918032787 1.829713587729398e-05
200 1 35.78995344262295 14.211826885245902 3.101105101553023e-05
201 1 38.49166885245902 14.434647213114756 7.753865678747765e-05
202 1 41.057207868852466 14.55542360655738 4.1813674788862165e-05
203 1 43.63865180327869 14.749918032786885 3.5673555440832016e-05
204 1 46.26018622950821 14.62469836065574 8.11128061553678e-05
205 1 49.174118688524594 14.662567213114755 6.805746410976523e-05
206 1 52.718996721311484 14.452622295081968 1.06521232626979e-05
207 1 54.268590163934434 14.36597836065574 3.213874454985943e-05
208 1 56.90678688524591 14.559513442622952 5.938744315718853e-05
209 1 59.787849180327875 14.712857049180329 2.2335217268810472e-05
210 1 62.597213114754105 15.135826885245903 4.711324548394368e-05
211 1 65.12180327868853 15.12012393442623 5.7830577428488705e-05
212 1 67.80342295081968 14.773497704918034 5.6936435482980045e-05
213 1 71.55950819672131 14.355930491803282 5.423941504035476e-05
214 1 73.11314098360656 14.41177442622951 7.438604235430174e-05
215 1 75.86342950819673 14.689933770491804 9.789426975016208e-05
216 1 79.5023737704918 14.354870163934427 6.103293974790264e-05
217 1 81.0388393442623 14.347447868852461 4.731316587709186e-05
218 1 82.2132786885246 16.83841049180328 7.748747062980889e-06
219 1 2.2874705573770493 16.833260327868853 6.818911300532649e-05
220 1 5.139106229508197 16.654468852459015 2.4169721621146026e-05
221 1 7.813354098360657 16.619427540983608 5.171872485799648e-05
222 1 10.484673442622952 17.025230163934427 9.592045141913492e-05
223 1 13.275809836065575 17.4498662295082 5.182798076968604e-05
224 1 15.877299016393444 17.000943606557378 7.97707713923107e-05
225 1 18.472476721311477 16.94393836065574 9.233443494992887e-05
226 1 21.118853114754103 16.97054754098361 6.0601939692681454e-05
227 1 23.712314098360658 16.858354754098364 5.6688975036834565e-06
228 1 26.267603278688526 16.72217836065574 2.1047124858549017e-05
229 1 29.018447213114758 17.112883934426232 2.4890874993610127e-05
230 1 31.84149442622951 17.417601967213116 6.627561022761795e-05
231 1 34.285853114754104 16.860525901639345 2.5847153832572235e-05
232 1 36.96080786885246 16.583881311475412 5.611216657395179e-06
233 1 39.546695081967215 16.897132459016394 8.245588087523346e-05
234 1 42.12046426229509 17.01316262295082 3.1060710182499245e-05
235 1 44.796024918032785 17.00084262295082 1.9351427032553905e-05
236 1 47.41180327868853 16.740456393442624 6.1923307868333445e-06
237 1 50.0478793442623 17.197710163934428 4.555324230343415e-05
238 1 52.771508196721314 17.148228196721313 4.40084246391515e-05
239 1 55.528865573770496 16.81922360655738 9.701345121597177e-05
240 1 58.18271475409836 16.684259016393444 9.970648300056658e-05
241 1 60.919370491803285 16.998974426229513 2.0322772897690577e-06
242 1 63.590386885245906 17.51535409836066 4.2001366688105214e-05
243 1 66.43862950819673 17.332472786885248 4.304668353790719e-06
244 1 69.01270163934427 17.14368393442623 4.810668601723922e-06
245 1 71.42873442622952 16.94843213114754 3.8404093343391434e-05
246 1 74.1744786885246 16.796047868852458 1.2772956206640141e-05
247 1 76.88184918032788 17.088546885245904 1.918569919212253e-05
248 1 79.47460327868853 16.969689180327872 4.268332267440521e-05
249 1 0.9529318032786886 19.074843934426234 3.083949887989923e-05
250 1 3.645922229508197 18.87060459016394 5.618647055520322e-05
251 1 6.320311475409837 18.983605245901643 2.7422345354815515e-05
252 1 9.248280655737707 19.080953442622953 7.456379930791169e-06
253 1 12.034620327868854 19.326495081967213 4.3950897380723154e-05
254 1 14.611721967213116 19.50988131147541 7.448090356520621e-05
255 1 17.200487213114755 19.32907016393443 5.6555197486288204e-05
256 1 19.84166295081967 19.27898229508197 4.239377797731625e-05
257 1 22.45764327868853 19.277518032786887 7.668514978910614e-05
258 1 24.88811672131148 19.16042754098361 5.0179607684093565e-05
259 1 27.305765245901643 19.03031016393443 8.438384984780467e-06
260 1 29.5703731147541 18.55942360655738 1.1561598549182962e-05
261 1 33.436379016393445 19.481656393442623 6.919974651969477e-05
262 1 35.90860918032787 18.96669049180328 6.717374925583397e-06
263 1 38.03865639344262 20.344914754098365 3.883766829253143e-05
264 1 40.79268131147541 19.359163278688527 6.903103809886056e-05
265 1 43.44557114754099 19.303066885245904 9.578439010139872e-05
266 1 46.06942819672132 19.19814491803279 9.244203614953521e-05
267 1 48.626838032786885 19.223643278688527 4.136143838336592e-05
268 1 50.71851147540984 18.58406360655738 8.891508480484694e-05
269 1 54.32110163934427 19.209505573770496 2.1843464449159024e-05
270 1 57.65558032786886 18.865252459016396 5.9112269686624967e-05
271 1 59.18699672131148 18.97593049180328 3.393073353337498e-05
272 1 61.92718688524591 19.43757704918033 9.092953293011265e-05
273 1 64.23617704918034 18.906150819672135 4.850548420450237e-05
274 1 67.74283278688524 19.580014426229507 5.247450603541164e-05
275 1 70.26388852459017 19.50463016393443 6.468406024247558e-05
276 1 72.87431475409838 19.128516721311478 8.124305366888837e-05
277 1 75.54634098360657 19.181028196721314 1.4746928967306905e-05
278 1 78.3400524590164 19.364565901639345 1.857685730160641e-05
279 1 81.01712786885246 19.180119344262298 2.805039933265746e-05
280 1 82.6677049180328 21.465277377049183 3.174343990482394e-05
281 1 2.634223016393443 21.214939016393444 6.196541606188645e-05
282 1 5.078869508196722 21.191510819672132 7.920979021221185e-05
283 1 6.988974426229508 20.379602622950824 4.700865945965777e-05
284 1 10.638219016393442 21.310166557377052 9.896990620873084e-05
285 1 13.17901704918033 21.769440000000003 1.6725614192748452e-05
286 1 15.809942950819675 21.75646360655738 8.780210253630198e-05
287 1 18.510648524590167 21.618873442622952 6.944717190499946e-05
288 1 21.264471475409838 21.615389508196724 2.426153855110852e-05
289 1 23.978456393442627 21.673909508196726 8.697208603447376e-05
290 1 26.516325901639348 21.49572393442623 2.6231143839436913e-05
291 1 29.11837049180328 22.293999344262296 9.972177907199577e-05
292 1 31.992616393442628 21.53243147540984 5.7238752572540754e-05
293 1 34.66459213114754 21.62432655737705 1.5786771971801896e-07
294 1 37.2751193442623 21.692389508196726 2.7154420102407073e-05
295 1 39.77895737704919 21.834675409836066 9.69178110675444e-05
296 1 42.374690491803285 21.64326098360656 3.7004150956571957e-05
297 1 44.89286819672131 21.581459016393445 7.4897352351937e-05
298 1 47.552877377049185 21.562171147540987 3.1877182876026702e-06
299 1 50.19430557377049 21.465479344262295 5.2242871561696585e-05
300 1 52.758885245901645 21.505165901639348 9.951262862572827e-05
301 1 55.23298360655738 21.7988262295082 9.652779770021906e-05
302 1 57.67628196721312 21.56469573770492 7.650865081988525e-05
303 1 60.511901639344266 21.372574426229512 6.861061704672746e-05
304 1 63.33338360655738 21.67976655737705 7.280684563902658e-05
305 1 66.18162622950821 21.778629508196726 3.9425179121620906e-05
306 1 68.83497049180329 21.939496393442624 9.901104928370318e-05
307 1 71.5913180327869 21.631344918032788 9.080646534961507e-05
308 1 74.26031475409837 21.449473442622953 5.1745927462902234e-05
309 1 76.89952131147541 21.436295081967213 8.13112335977285e-05
310 1 79.64880000000001 21.57237049180328 9.721380064181209e-05
311 1 1.5978282622950821 23.589619016393446 2.2112712046901697e-05
312 1 4.212723016393443 23.620368524590166 2.200934200225081e-05
313 1 6.750299672131148 23.367303606557382 6.381436439563573e-05
314 1 9.327199344262295 23.306158032786886 2.5817505956905907e-06
315 1 11.624475409836068 24.877462950819673 6.446187549485948e-05
316 1 14.409603278688525 24.093476721311475 5.5447365717752644e-05
317 1 17.087688524590167 23.94275868852459 3.3022556047507724e-05
318 1 19.83444262295082 23.830616393442625 2.4107651451880397e-05
319 1 22.649007213114757 23.914129836065577 6.972904536550473e-06
320 1 25.257009836065574 24.038541639344267 6.839487233278913e-05
321 1 29.024556721311477 23.819154754098363 1.9295842262533316e-05
322 1 30.5514793442623 23.79082885245902 6.117913841680501e-05
323 1 33.19250360655738 23.903526557377052 9.171520081572063e-05
324 1 35.72325377049181 24.02374754098361 6.824063273350446e-05
325 1 38.32923672131148 24.155329180327872 4.932835881875073e-05
326 1 41.139408524590166 24.06989704918033 9.853182743390268e-05
327 1 43.82022032786886 24.031119344262297 3.2639733127769766e-05
328 1 46.34622426229508 23.855357377049184 3.0876311808391776e-05
329 1 48.90030163934426 23.834605245901642 1.42632745413667e-05
330 1 51.419842622950824 23.90701049180328 3.950391953233601e-05
331 1 54.05753442622951 24.08832655737705 8.075696078709384e-05
332 1 56.73511475409836 24.108725245901642 1.571535514767446e-05
333 1 59.41269508196722 23.543570491803283 1.8563644528898296e-05
334 1 61.69088524590165 24.755676721311477 3.281759279215272e-05
335 1 64.57800655737705 23.94518229508197 5.845351285199805e-05
336 1 67.76151475409837 24.25161704918033 9.756061519529787e-05
337 1 70.4739344262295 23.9832531147541 6.605656652073289e-06
338 1 73.15959344262296 23.812641311475414 6.625261216564381e-05
339 1 75.76244590163935 23.74483081967213 9.257736921685286e-05
340 1 78.36479344262295 23.68772459016394 5.153212274103345e-05
341 1 80.49403278688524 22.856932459016395 8.356571509176207e-05
342 1 0.13334380327868853 25.690481967213117 4.3464131149844636e-05
343 1 2.9168054426229513 25.935114754098365 6.635459142261404e-05
344 1 5.682549508196722 25.911989508196726 4.351755344482297e-05
345 1 8.220469508196722 25.724008524590165 5.8705590599778916e-05
346 1 10.878105573770492 26.213779016393445 2.509364179670889e-05
347 1 13.290654426229509 26.51243803278689 5.202872049434519e-05
348 1 15.824434098360657 26.307340327868857 2.5641353599941588e-05
349 1 18.37719868852459 26.09466885245902 2.1442464418375165e-05
350 1 21.108047868852463 26.004440000000002 9.93969681223118e-05
351 1 23.682019016393447 26.348491147540987 6.563928625705632e-05
352 1 26.157935081967217 26.562071475409837 9.998166685194587e-05
353 1 28.68267672131148 26.319205901639346 9.199741382262045e-05
354 1 31.52006360655738 26.127841967213115 9.019472263141948e-05
355 1 34.210468852459016 26.397720655737707 3.950361991702728e-05
356 1 36.92061639344263 26.447859016393444 9.465734130354794e-05
357 1 39.676862950819675 26.247356065573776 5.6670960413131244e-05
358 1 42.454417049180336 26.334151475409836 6.71673471049298e-05
359 1 45.85296983606558 26.187826229508197 5.141514231259282e-05
360 1 47.39170754098362 26.20211540983607 4.8909421187379e-05
361 1 49.74619081967214 26.262251147540987 5.813710542510297e-05
362 1 52.53672131147541 26.330768524590166 7.168959499961534e-05
363 1 55.65560000000001 26.403729180327872 8.101357955073991e-05
364 1 58.35388196721312 26.067807213114758 4.824656494950779e-05
365 1 60.98147540983607 26.118753442622957 5.163508814167277e-05
366 1 63.4055868852459 26.177626885245907 6.925540361156669e-07
367 1 65.49544262295083 25.196571147540986 3.1736739317802686e-05
368 1 69.54942950819672 26.32415409836066 8.522573205946011e-05
369 1 72.21236721311476 26.12466098360656 8.47930137175997e-05
370 1 74.7369573770492 26.098354754098363 8.664970718977751e-05
371 1 77.37666885245903 26.020900327868855 8.06287965722255e-05
372 1 80.0996918032787 25.733450491803282 6.08188015635209e-05
373 1 1.4415359344262295 28.008560655737707 8.805432883510882e-05
374 1 4.237509442622951 28.155643278688526 6.533824489195364e-05
375 1 7.639106885245902 28.130296393442627 3.4551726031748314e-05
376 1 9.187892459016394 28.211083278688527 1.205365442389894e-06
377 1 11.797864262295082 28.79971672131148 8.345962314933883e-05
378 1 14.567592131147544 28.792546885245905 5.662286299405195e-06
379 1 17.237144262295082 28.57018098360656 7.088976609681772e-05
380 1 19.918965901639346 28.23562229508197 5.5335121601893924e-05
381 1 21.84553114754099 29.764160655737708 2.6113663678262045e-05
382 1 24.762745573770495 28.92013967213115 3.228222066722102e-05
383 1 27.658248524590167 28.82400327868853 7.855871163531009e-05
384 1 30.377585573770496 28.339029508196724 3.786898072376693e-05
385 1 32.740702950819674 29.62924655737705 5.187093297332488e-05
386 1 35.623380983606566 28.734834754098365 5.4094696000398835e-05
387 1 39.055157377049184 28.387855081967217 6.143373632103922e-05
388 1 40.58288786885247 28.389016393442628 7.317729102012931e-05
389 1 42.9731193442623 28.712870819672133 9.048654362477054e-05
390 1 45.65337573770492 29.008550819672134 1.776861531660505e-05
391 1 48.54923213114754 28.82688131147541 7.778006715188978e-05
392 1 51.189600000000006 28.443598032786888 1.0854735870805144e-05
393 1 53.37841967213115 27.62184393442623 3.980598437350446e-05
394 1 57.03655081967214 28.471116065573774 1.7271811989478447e-05
395 1 59.65354098360656 28.431480000000004 9.68250025803912e-05
396 1 62.32354754098362 28.576139016393444 9.103504327977026e-05
397 1 65.04051147540984 28.112018360655743 9.375336875344405e-05
398 1 67.2672 27.150401967213117 7.019309142800996e-05
399 1 71.03237377049182 28.47788196721312 7.36210701096817e-05
400 1 73.62664262295083 28.5077731147541 6.234624271880639e-05
401 1 76.16234098360657 28.370283934426233 5.726778274295642e-05
402 1 78.89748196721312 28.11095803278689 2.1062393051937025e-06
403 1 81.54072786885247 27.98578885245902 5.2674399838597985e-05
404 1 0.1527336655737705 30.37687868852459 3.903137904936761e-05
405 1 2.7523233442622956 30.248276065573773 3.509276898831559e-06
406 1 4.951579672131148 31.73147278688525 2.742037140425826e-05
407 1 7.588413114754099 30.87139540983607 4.564618136287131e-05
408 1 10.383134426229509 30.840342950819675 7.66612558655388e-05
409 1 13.217087868852461 31.016256393442625 7.665373483340058e-05
410 1 16.089768524590166 30.975206557377053 2.7290863116892195e-05
411 1 18.91554229508197 30.643576393442626 8.017866397370894e-05
412 1 20.944403934426234 32.04820786885246 4.16714540378807e-05
413 1 23.75270754098361 31.25094229508197 8.208522541155528e-05
414 1 26.50385442622951 30.975105573770495 9.883880719983452e-06
415 1 29.28862885245902 30.841655737704922 7.027889772312123e-05
416 1 32.07052524590164 31.026253770491806 7.863051038846813e-06
417 1 34.471763934426235 31.012923934426233 8.450005281185403e-05
418 1 36.95984852459017 31.15470491803279 6.730302518049947e-06
419 1 39.229101639344265 31.111938360655742 6.188086494649537e-06
420 1 41.727940983606565 31.0080262295082 5.660056773593756e-05
421 1 44.26177114754098 31.054478688524593 4.110617171395159e-07
422 1 46.46533442622951 30.33158754098361 3.4660043202979e-05
423 1 50.110034754098365 30.882200655737705 8.514858091292497e-05
424 1 52.75585573770492 30.488869508196725 8.934003481270714e-05
425 1 55.3900131147541 30.644990163934427 9.459968115007851e-05
426 1 58.22613770491804 30.786468196721312 3.9178281345964074e-05
427 1 61.05418360655738 30.78707409836066 9.373630316523615e-05
428 1 63.91504918032787 30.535776393442628 1.6106443288374884e-05
429 1 66.75016393442623 30.060446557377052 9.644218643268248e-05
430 1 69.5277180327869 30.457716065573774 1.4641123590154515e-05
431 1 72.30072786885248 30.841049836065576 6.22866397722656e-05
432 1 75.00405901639346 30.847058360655744 7.573937997749919e-05
433 1 77.64225573770491 30.44630491803279 6.578176817374152e-05
434 1 80.30822295081968 30.36662885245902 4.991454767397086e-06
435 1 1.3180885245901641 32.677790163934425 8.308449391587737e-05
436 1 4.049826360655738 32.95902950819672 3.787971771238967e-05
437 1 6.557521967213115 33.4568786885246 8.662291492490321e-05
438 1 9.172240000000002 33.11282754098361 4.6054798845099875e-05
439 1 11.862190819672133 33.12726819672132 5.848131276713696e-05
440 1 14.612277377049182 33.15024196721312 4.36423650374921e-05
441 1 17.359839344262298 33.03542360655738 7.232235362711961e-05
442 1 20.08624524590164 33.32504459016394 3.310819017667613e-05
443 1 22.665114098360657 33.61724065573771 7.080907935823546e-05
444 1 25.312197377049184 33.31989442622951 2.591663277887776e-05
445 1 27.93923540983607 33.12853049180328 4.74174915493339e-05
446 1 30.64191016393443 33.16937836065574 1.0628008866188522e-05
447 1 34.08651147540984 33.27369442622951 2.4112692938084068e-05
448 1 35.60868786885246 33.455464918032796 6.513733923707974e-05
449 1 38.240219672131154 33.67308459016394 9.927819514850243e-05
450 1 40.958900327868854 33.437742295081975 9.401564940871005e-05
451 1 43.63395606557378 33.25420459016394 8.861076770700275e-05
452 1 46.192527213114765 34.30544393442623 5.905685388481764e-05
453 1 48.991944262295085 33.24738819672131 1.953058376810568e-06
454 1 51.68290491803279 32.94716393442623 3.124140153002248e-05
455 1 54.021180327868855 34.05071278688525 5.945148559334224e-06
456 1 56.740163934426235 32.89359213114754 2.5201890999248613e-05
457 1 59.54851803278689 32.95352590163935 4.425433451895555e-05
458 1 62.79261639344263 32.75792065573771 1.9351175943264634e-06
459 1 65.56764590163935 32.39963081967213 2.4955240679511695e-05
460 1 68.11647213114755 32.473096393442624 6.634781966198226e-05
461 1 70.91927213114755 32.86259016393443 8.112450175919908e-05