ITEM: TIMESTEP
0
ITEM: NUMBER OF ATOMS
2232
ITEM: BOX BOUNDS xy xz yz pp pp pp
0.0 82.68810555352132 0
0.0 83.16 0
-10.0 10.0 0
ITEM: ATOMS id type x y z vx vy vz
1 1 0.8955478688524591 0.7739484590163935 6.28796099859e-05 0.0 0.0 0.0
2 1 3.707295016393443 0.6802710163934428 1.92962709172e-05 0.0 0.0 0.0
3 1 6.542929836065574 0.6874660983606558 1.70994328487e-05 0.0 0.0 0.0
4 1 9.290037377049181 0.9473221639344264 4.66038861664e-05 0.0 0.0 0.0
5 1 11.850375737704919 0.9464234098360657 1.11172679499e-05 0.0 0.0 0.0
6 1 14.75330098360656 0.4714864 5.66915127284e-05 0.0 0.0 0.0
7 1 17.608612459016395 0.5259832131147542 5.73126291733e-05 0.0 0.0 0.0
8 1 20.948291803278693 0.20398284590163937 9.98927850498e-06 0.0 0.0 0.0
9 1 22.49414885245902 0.13645056393442626 6.02983731868e-05 0.0 0.0 0.0
10 1 25.194854426229508 0.2508569114754099 1.43080600424e-05 0.0 0.0 0.0
11 1 27.87071803278689 0.6221549508196721 2.32043070607e-05 0.0 0.0 0.0
12 1 30.336687213114757 1.078156524590164 7.46173467832e-05 0.0 0.0 0.0
13 1 33.26465639344262 1.0903099016393445 9.41225710567e-05 0.0 0.0 0.0
14 1 36.53586885245902 0.33537968524590167 4.7601807755e-05 0.0 0.0 0.0
15 1 39.18229573770492 0.4717267409836066 5.09994719163e-05 0.0 0.0 0.0
16 1 41.4591731147541 0.7445571803278689 9.61832670882e-05 0.0 0.0 0.0
17 1 44.05283606557378 1.4264136393442624 4.51276569988e-05 0.0 0.0 0.0
18 1 47.262600000000006 1.658009442622951 4.57969287509e-05 0.0 0.0 0.0
19 1 50.75739016393443 1.1079416393442625 3.85334296626e-05 0.0 0.0 0.0
20 1 52.30849836065574 1.1433565901639346 4.86674396958e-05 0.0 0.0 0.0
21 1 54.85580983606558 0.927271868852459 4.67211888158e-05 0.0 0.0 0.0
22 1 57.35818360655738 0.6763528524590166 4.32936587583e-06 0.0 0.0 0.0
23 1 59.85651803278689 0.42341416393442627 7.02443865616e-05 0.0 0.0 0.0
24 1 62.61690491803279 0.3877220131147541 4.2804052107e-05 0.0 0.0 0.0
25 1 65.30458360655737 0.6132784918032788 9.49489028276e-05 0.0 0.0 0.0
26 1 67.88067540983607 0.7807244590163935 2.85416104598e-05 0.0 0.0 0.0
27 1 70.36386229508197 0.822592262295082 2.25099205306e-05 0.0 0.0 0.0
28 1 72.86017704918032 0.6554593442622951 1.85123220846e-09 0.0 0.0 0.0
29 1 75.18179016393444 1.888009704918033 2.97257325108e-05 0.0 0.0 0.0
30 1 78.0628524590164 0.9681954754098362 6.16284961602e-05 0.0 0.0 0.0
31 1 80.78991475409836 0.8947147540983608 1.04969852599e-05 0.0 0.0 0.0
32 1 82.23499016393443 3.0551630819672138 7.25474132384e-05 0.0 0.0 0.0
33 1 2.3031432131147542 2.929206229508197 6.76875809233e-05 0.0 0.0 0.0
34 1 5.003929573770492 2.8674699016393443 3.59371184679e-05 0.0 0.0 0.0
35 1 7.728174426229509 3.134324131147541 8.91986253835e-05 0.0 0.0 0.0
36 1 10.796308852459019 3.325198295081967 5.77391302742e-05 0.0 0.0 0.0
37 1 13.545032131147542 2.6477800655737704 3.8559631671e-05 0.0 0.0 0.0
38 1 16.246394098360657 2.6199237377049185 4.82282641134e-06 0.0 0.0 0.0
39 1 18.733468852459016 2.9850804590163937 1.90240690799e-05 0.0 0.0 0.0
40 1 21.357325901639346 2.938521967213115 5.04595444506e-05 0.0 0.0 0.0
41 1 24.034300327868856 2.472947147540984 2.49622667214e-05 0.0 0.0 0.0
42 1 26.1646 3.9998293770491804 5.81883715539e-05 0.0 0.0 0.0
43 1 28.93760983606558 3.233697049180328 8.49950238636e-05 0.0 0.0 0.0
44 1 30.972530491803283 2.471285967213115 9.47496146374e-05 0.0 0.0 0.0
45 1 34.33397180327869 2.165628786885246 7.0745039373e-05 0.0 0.0 0.0
46 1 36.631752786885244 3.877841180327869 6.10944783605e-05 0.0 0.0 0.0
47 1 40.071860327868855 3.179145704918033 7.6300157764e-05 0.0 0.0 0.0
48 1 42.57630426229509 3.322865573770492 7.40002862341e-05 0.0 0.0 0.0
49 1 44.78612852459017 2.7751809836065577 4.0492233011e-06 0.0 0.0 0.0
50 1 48.329390819672135 3.9029659016393445 4.94134760305e-05 0.0 0.0 0.0
51 1 50.88412459016394 3.8441429508196725 4.52975745645e-05 0.0 0.0 0.0
52 1 54.554373770491814 3.1947678688524594 2.73235117126e-05 0.0 0.0 0.0
53 1 56.11709508196722 3.205946754098361 6.22674472159e-05 0.0 0.0 0.0
54 1 58.61038032786885 2.9564516065573776 3.20888655888e-05 0.0 0.0 0.0
55 1 61.25059672131148 2.5744205245901646 2.7359930474e-05 0.0 0.0 0.0
56 1 63.939285245901644 2.7468348852459017 1.56341977397e-05 0.0 0.0 0.0
57 1 66.56839344262296 3.0729109508196726 4.04473873137e-05 0.0 0.0 0.0
58 1 69.06066885245903 3.276211147540984 1.14351583136e-05 0.0 0.0 0.0
59 1 71.66352131147542 3.227855147540984 2.15930145426e-05 0.0 0.0 0.0
60 1 74.35422950819672 3.197600459016394 4.32918428863e-06 0.0 0.0 0.0
61 1 76.91466885245902 3.2704601311475416 2.96794641982e-05 0.0 0.0 0.0
62 1 79.4836918032787 3.238246360655738 5.71839522933e-05 0.0 0.0 0.0
63 1 1.0506081967213117 5.2282242622950825 7.51199755658e-05 0.0 0.0 0.0
64 1 3.7103497704918036 5.188083278688525 1.76181241831e-05 0.0 0.0 0.0
65 1 6.327935737704919 5.232465573770492 5.12412121776e-06 0.0 0.0 0.0
66 1 8.456468196721312 4.520854295081968 5.65819181972e-05 0.0 0.0 0.0
67 1 13.214866229508198 4.753025704918033 5.76352677344e-05 0.0 0.0 0.0
68 1 14.730024262295084 4.839341442622952 4.4153303863e-05 0.0 0.0 0.0
69 1 17.064866229508198 5.172178360655739 4.39429650646e-05 0.0 0.0 0.0
70 1 19.671808524590165 5.250188196721312 6.98185468393e-05 0.0 0.0 0.0
71 1 23.404162622950825 4.9982845901639354 4.37641694828e-05 0.0 0.0 0.0
72 1 25.87174754098361 5.5288019672131155 2.49356069964e-05 0.0 0.0 0.0
73 1 28.09858754098361 5.57212393442623 3.65826561953e-05 0.0 0.0 0.0
74 1 30.805099672131153 5.335822295081968 2.56686997425e-05 0.0 0.0 0.0
75 1 34.02137704918033 4.94465724590164 5.46026772116e-06 0.0 0.0 0.0
76 1 35.54405836065575 4.932226163934427 7.93687603309e-05 0.0 0.0 0.0
77 1 37.77917901639345 4.857932524590165 4.96248883667e-05 0.0 0.0 0.0
78 1 41.14960786885246 5.64796262295082 4.36533188833e-07 0.0 0.0 0.0
79 1 43.96028459016394 5.588331803278689 7.32154186622e-06 0.0 0.0 0.0
80 1 46.612568524590166 5.818725901639345 3.5536727268e-05 0.0 0.0 0.0
81 1 49.25344131147541 6.1847409836065586 5.64346495046e-05 0.0 0.0 0.0
82 1 51.91971147540984 6.074769836065575 5.92852425588e-05 0.0 0.0 0.0
83 1 54.50236721311476 5.908904262295082 2.18789164703e-05 0.0 0.0 0.0
84 1 58.198367213114764 5.3974222950819675 4.88994189213e-05 0.0 0.0 0.0
85 1 60.66287213114755 4.887702491803279 8.47059164727e-05 0.0 0.0 0.0
86 1 62.190754098360664 4.845875081967214 9.24716437696e-05 0.0 0.0 0.0
87 1 64.85924590163935 5.170007213114754 6.03923538757e-05 0.0 0.0 0.0
88 1 67.45048524590165 5.6228681967213126 6.78390834736e-05 0.0 0.0 0.0
89 1 70.19572459016395 5.66528131147541 8.66752543617e-06 0.0 0.0 0.0
90 1 73.1156655737705 5.554098360655738 9.23486753533e-05 0.0 0.0 0.0
91 1 75.83212459016394 5.561773114754099 1.00582187414e-06 0.0 0.0 0.0
92 1 78.24159344262296 6.692133114754099 2.35114253617e-05 0.0 0.0 0.0
93 1 80.98531803278689 5.394746229508197 4.6456920215e-05 0.0 0.0 0.0
94 1 0.041988630163934434 7.508989508196723 6.87498850131e-05 0.0 0.0 0.0
95 1 2.5647917377049185 7.51908786885246 6.06673868179e-05 0.0 0.0 0.0
96 1 5.154354754098361 7.54721180327869 2.4541490604e-05 0.0 0.0 0.0
97 1 7.830975737704919 7.461678688524591 3.32378702316e-05 0.0 0.0 0.0
98 1 11.192265573770493 7.428808524590164 1.8344982209e-05 0.0 0.0 0.0
99 1 12.719945573770493 7.467232786885247 2.16889687075e-05 0.0 0.0 0.0
100 1 15.37354229508197 7.465617049180328 2.86367320406e-05 0.0 0.0 0.0
101 1 18.02931016393443 7.516007868852459 6.30531538576e-05 0.0 0.0 0.0
102 1 20.601716065573775 7.744382295081968 2.86496720487e-05 0.0 0.0 0.0
103 1 22.928580327868854 7.490358032786886 1.37228541684e-06 0.0 0.0 0.0
104 1 24.47499278688525 6.1686340983606565 9.30395225939e-05 0.0 0.0 0.0
105 1 29.12463147540984 7.61608262295082 2.59423362217e-05 0.0 0.0 0.0
106 1 31.77227016393443 7.873489836065574 7.29477281088e-07 0.0 0.0 0.0
107 1 34.22940327868853 7.7650334426229515 9.6733967166e-06 0.0 0.0 0.0
108 1 36.9900931147541 7.409773114754099 2.08871065195e-05 0.0 0.0 0.0
109 1 39.19052590163935 8.434504262295082 9.39940802791e-05 0.0 0.0 0.0
110 1 42.760144918032786 7.775434754098361 9.14249269911e-05 0.0 0.0 0.0
111 1 45.309072131147545 8.022592131147542 7.64540733146e-05 0.0 0.0 0.0
112 1 47.761913442622955 8.29908524590164 5.40779840836e-05 0.0 0.0 0.0
113 1 50.48826885245902 8.39683737704918 1.96213329432e-05 0.0 0.0 0.0
114 1 53.15423606557378 8.324533114754098 4.34891772593e-05 0.0 0.0 0.0
115 1 55.78990819672131 8.282725901639346 5.58058275891e-05 0.0 0.0 0.0
116 1 58.09536393442623 8.020219016393444 4.14253393441e-05 0.0 0.0 0.0
117 1 60.505337704918034 7.311112131147541 3.73887098821e-05 0.0 0.0 0.0
118 1 63.4055868852459 7.261579672131148 3.79907181868e-05 0.0 0.0 0.0
119 1 65.46110819672131 8.863432131147542 7.01745489088e-05 0.0 0.0 0.0
120 1 68.32449836065575 7.9459455737704925 2.67232776396e-05 0.0 0.0 0.0
121 1 71.89679344262296 7.711360655737706 4.51418148936e-05 0.0 0.0 0.0
122 1 74.65415081967214 7.90060393442623 4.1344062469e-05 0.0 0.0 0.0
123 1 77.69830163934428 8.143873442622953 3.46194664138e-05 0.0 0.0 0.0
124 1 80.26934426229509 7.747260327868854 3.32330059205e-05 0.0 0.0 0.0
125 1 1.2363271475409838 9.921336393442624 8.94091142872e-06 0.0 0.0 0.0
126 1 3.8295760655737707 9.902856393442624 6.36224889818e-05 0.0 0.0 0.0
127 1 6.360704918032788 9.81641442622951 3.25019261414e-05 0.0 0.0 0.0
128 1 8.923719344262295 10.100733770491804 7.41379438191e-05 0.0 0.0 0.0
129 1 11.237102295081968 10.09240262295082 8.60743741684e-05 0.0 0.0 0.0
130 1 13.947552786885247 9.794702950819673 9.04529936045e-05 0.0 0.0 0.0
131 1 16.708495081967218 9.792380327868852 2.64358394121e-05 0.0 0.0 0.0
132 1 19.434800000000003 9.946986229508196 2.48707491277e-05 0.0 0.0 0.0
133 1 22.22194754098361 10.059078032786886 6.71924307895e-05 0.0 0.0 0.0
134 1 24.718262295081967 9.351940327868853 7.3675437602e-05 0.0 0.0 0.0
135 1 27.4821331147541 9.553705573770491 4.62842013452e-05 0.0 0.0 0.0
136 1 30.12017836065574 9.992832786885247 3.62506020739e-05 0.0 0.0 0.0
137 1 32.79190163934426 10.263569836065576 8.37038012565e-05 0.0 0.0 0.0
138 1 35.70320852459017 9.843881967213115 7.55880242761e-05 0.0 0.0 0.0
139 1 38.481873442622955 9.774455737704919 1.0468012974e-05 0.0 0.0 0.0
140 1 40.49099278688525 9.220106229508199 9.48210331079e-05 0.0 0.0 0.0
141 1 43.4758662295082 11.567571147540985 1.81456193925e-05 0.0 0.0 0.0
142 1 46.27987803278689 10.617668852459017 2.86595720143e-05 0.0 0.0 0.0
143 1 49.12857508196722 10.57944655737705 3.97823764297e-05 0.0 0.0 0.0
144 1 51.88184262295083 10.635744918032788 3.33852467801e-05 0.0 0.0 0.0
145 1 54.52256393442624 10.594745573770494 3.03253313601e-05 0.0 0.0 0.0
146 1 57.22488524590164 10.670079344262296 1.39877235725e-05 0.0 0.0 0.0
147 1 60.223593442622956 9.898615081967213 4.03004306864e-05 0.0 0.0 0.0
148 1 62.784537704918044 10.47472655737705 2.97838231103e-05 0.0 0.0 0.0
149 1 64.82693114754099 11.29319868852459 2.67789872914e-05 0.0 0.0 0.0
150 1 67.70142950819672 10.277909508196721 7.07406457162e-05 0.0 0.0 0.0
151 1 69.51459016393444 8.931747540983606 1.90645369948e-05 0.0 0.0 0.0
152 1 73.30652459016395 9.972181639344264 9.03257662558e-05 0.0 0.0 0.0
153 1 75.37668852459016 9.290794754098362 3.69596866522e-06 0.0 0.0 0.0
154 1 78.99695081967215 10.212371147540985 3.7017760644e-05 0.0 0.0 0.0
155 1 81.428131147541 10.024996065573772 3.45026024337e-05 0.0 0.0 0.0
156 1 82.21479344262296 12.304145573770493 9.76934210491e-06 0.0 0.0 0.0
157 1 2.2711415081967212 12.238203278688525 3.68606742965e-05 0.0 0.0 0.0
158 1 5.244836065573771 12.268548852459018 2.52939358721e-05 0.0 0.0 0.0
159 1 7.842689836065575 12.269508196721313 1.36088245817e-05 0.0 0.0 0.0
160 1 10.243625573770494 12.635624262295082 7.77007716129e-05 0.0 0.0 0.0
161 1 12.722419672131148 12.219672786885248 5.55541992879e-05 0.0 0.0 0.0
162 1 15.489723934426232 11.99937704918033 8.82151760761e-05 0.0 0.0 0.0
163 1 18.219967213114757 12.089605901639345 5.19773225403e-05 0.0 0.0 0.0
164 1 20.87134229508197 12.16605049180328 4.7235390137e-05 0.0 0.0 0.0
165 1 23.549478032786887 12.111115409836067 2.92863182018e-05 0.0 0.0 0.0
166 1 26.319710819672135 11.692841311475412 7.42151880629e-05 0.0 0.0 0.0
167 1 28.986536393442627 12.056937704918035 6.68553298155e-05 0.0 0.0 0.0
168 1 31.457453770491806 12.381347540983608 8.11052892929e-05 0.0 0.0 0.0
169 1 33.57306032786885 11.585546229508198 6.09706461296e-05 0.0 0.0 0.0
170 1 37.21316590163935 11.93621180327869 3.52315214565e-05 0.0 0.0 0.0
171 1 39.90210688524591 12.070822950819673 2.4262086989e-05 0.0 0.0 0.0
172 1 42.53060918032787 12.822898360655739 8.93431783148e-05 0.0 0.0 0.0
173 1 45.28150360655738 13.061068196721312 2.05797234294e-05 0.0 0.0 0.0
174 1 48.01785639344263 12.689448524590164 1.04487836081e-05 0.0 0.0 0.0
175 1 50.74981639344263 12.79785442622951 1.89654310352e-05 0.0 0.0 0.0
176 1 53.454157377049185 12.89949442622951 9.07233975042e-05 0.0 0.0 0.0
177 1 56.075691803278694 12.844912786885246 1.38872200526e-05 0.0 0.0 0.0
178 1 58.22411803278689 11.840428852459016 6.91728762831e-05 0.0 0.0 0.0
179 1 62.02110163934427 11.862746229508197 3.66505429303e-05 0.0 0.0 0.0
180 1 64.11550163934427 12.624465573770493 5.75878804945e-05 0.0 0.0 0.0
181 1 66.03267540983607 12.204323278688525 8.74973544613e-05 0.0 0.0 0.0
182 1 69.97709508196722 11.768225573770493 3.30486994936e-05 0.0 0.0 0.0
183 1 71.49992786885247 11.814476065573773 8.99200188234e-05 0.0 0.0 0.0
184 1 74.82077377049181 12.236385573770493 9.00690660984e-05 0.0 0.0 0.0
185 1 78.12243278688526 12.348224918032788 6.26379401691e-06 0.0 0.0 0.0
186 1 79.66798688524591 12.416136393442624 2.19474972301e-05 0.0 0.0 0.0
187 1 0.97536531147541 14.447118688524592 1.86078385187e-06 0.0 0.0 0.0
188 1 3.0795354754098363 13.534226885245904 5.35011528933e-05 0.0 0.0 0.0
189 1 6.66244393442623 14.568955409836066 9.14602347214e-05 0.0 0.0 0.0
190 1 8.646468852459018 16.211554754098362 8.25815117319e-05 0.0 0.0 0.0
191 1 11.834622295081969 14.85908131147541 5.02654437258e-05 0.0 0.0 0.0
192 1 14.424043934426232 14.264792786885247 7.12753117305e-05 0.0 0.0 0.0
193 1 17.113893770491803 14.244141639344264 1.44273665114e-05 0.0 0.0 0.0
194 1 19.797533114754103 14.403190819672133 3.32926643712e-05 0.0 0.0 0.0
195 1 22.319598688524593 14.413592131147542 3.67003244968e-05 0.0 0.0 0.0
196 1 24.25010229508197 13.497519344262296 2.21404849298e-05 0.0 0.0 0.0
197 1 27.522072131147546 15.434081967213116 1.59789123984e-05 0.0 0.0 0.0
198 1 30.323761311475415 14.65009573770492 8.30265551435e-05 0.0 0.0 0.0
199 1 33.14529377049181 14.494076065573772 9.45783412618e-05 0.0 0.0 0.0
200 1 35.86983147540984 14.129777704918034 8.97310204224e-05 0.0 0.0 0.0
201 1 38.5116131147541 14.228236721311477 3.33027706294e-05 0.0 0.0 0.0
202 1 40.54835147540984 15.747131147540985 9.56210148449e-05 0.0 0.0 0.0
203 1 42.91076196721312 14.317051803278689 9.44553238283e-05 0.0 0.0 0.0
204 1 46.71855081967214 15.029137704918034 4.31132802163e-05 0.0 0.0 0.0
205 1 49.43268721311476 14.951329836065575 5.71249084335e-05 0.0 0.0 0.0
206 1 52.282242622950825 15.086748852459017 8.68571650504e-05 0.0 0.0 0.0
207 1 55.060806557377056 15.17637180327869 7.9261126697e-05 0.0 0.0 0.0
208 1 57.76363278688525 14.782232786885247 8.55808200946e-05 0.0 0.0 0.0
209 1 60.35689180327869 14.138058360655739 7.42005871343e-06 0.0 0.0 0.0
210 1 62.8208918032787 14.751432786885246 8.44843999676e-05 0.0 0.0 0.0
211 1 65.13139672131148 15.04160918032787 1.82553034683e-05 0.0 0.0 0.0
212 1 67.70546885245903 14.696194754098363 2.09035820377e-05 0.0 0.0 0.0
213 1 70.16340983606558 14.657619016393443 6.97113633057e-05 0.0 0.0 0.0
214 1 72.17803278688525 13.201990819672131 7.07004895506e-05 0.0 0.0 0.0
215 1 75.43980327868853 14.803843278688525 3.8671841093e-05 0.0 0.0 0.0
216 1 78.67632786885247 16.35747606557377 2.05376935436e-05 0.0 0.0 0.0
217 1 81.10245901639345 14.758148196721313 5.99792795426e-05 0.0 0.0 0.0
218 1 0.3947646098360656 16.815840655737706 8.48806342139e-05 0.0 0.0 0.0
219 1 2.908297573770492 16.356213770491806 9.63129384079e-05 0.0 0.0 0.0
220 1 4.825042163934427 17.90717049180328 3.31277715356e-05 0.0 0.0 0.0
221 1 7.72888131147541 17.43320393442623 8.28201325307e-05 0.0 0.0 0.0
222 1 9.997831475409836 16.936364590163937 2.50200002829e-05 0.0 0.0 0.0
223 1 13.523118688524592 16.794381639344266 4.81149756158e-05 0.0 0.0 0.0
224 1 15.872855737704919 16.485674754098362 7.45260179253e-05 0.0 0.0 0.0
225 1 18.59986754098361 16.56398754098361 1.88783941751e-05 0.0 0.0 0.0
226 1 21.227713442622953 16.817809836065575 8.29863239695e-05 0.0 0.0 0.0
227 1 24.015214426229512 16.524200000000004 8.24375656747e-05 0.0 0.0 0.0
228 1 26.782064262295084 16.798925901639347 2.69216100205e-05 0.0 0.0 0.0
229 1 29.241620983606563 17.07703475409836 1.58094934033e-05 0.0 0.0 0.0
230 1 31.724252459016398 16.786302950819675 5.7750775806e-05 0.0 0.0 0.0
231 1 35.480792131147545 16.33096786885246 5.43497614202e-05 0.0 0.0 0.0
232 1 37.034626885245906 16.509506885245905 5.2867589262e-05 0.0 0.0 0.0
233 1 39.72200262295082 17.04749704918033 4.5356777248e-05 0.0 0.0 0.0
234 1 42.39312000000001 17.12379016393443 4.21037784071e-05 0.0 0.0 0.0
235 1 45.09130098360656 17.115862950819672 8.24710386388e-05 0.0 0.0 0.0
236 1 47.8193731147541 17.18488524590164 7.38700414676e-06 0.0 0.0 0.0
237 1 50.50341639344263 17.058049836065575 3.61238802299e-06 0.0 0.0 0.0
238 1 53.73943606557378 17.3335331147541 6.47975248179e-05 0.0 0.0 0.0
239 1 56.511436065573776 17.27566950819672 5.30941745951e-05 0.0 0.0 0.0
240 1 59.81360000000001 16.68971213114754 1.23463391099e-05 0.0 0.0 0.0
241 1 61.355114754098366 16.812104262295083 4.26679392108e-05 0.0 0.0 0.0
242 1 64.02865573770492 17.410836065573772 4.85696470059e-05 0.0 0.0 0.0
243 1 67.22074754098361 16.976505573770496 9.73650681726e-05 0.0 0.0 0.0
244 1 68.41134426229509 16.043366557377052 5.99629646944e-05 0.0 0.0 0.0
245 1 71.87104262295084 16.201607868852463 2.33334814739e-05 0.0 0.0 0.0
246 1 74.04420983606558 17.648955409836066 5.23471793613e-05 0.0 0.0 0.0
247 1 76.2491868852459 16.098756065573774 7.07118804161e-06 0.0 0.0 0.0
248 1 80.5344262295082 17.430477377049183 3.78270561361e-05 0.0 0.0 0.0
249 1 1.7651278032786888 18.962600655737706 1.1728680999e-05 0.0 0.0 0.0
250 1 4.221564131147541 19.333664918032788 8.08721477642e-05 0.0 0.0 0.0
251 1 6.599884590163935 19.56370557377049 5.43831698335e-05 0.0 0.0 0.0
252 1 8.594512786885247 18.686662950819677 1.07808499836e-05 0.0 0.0 0.0
253 1 12.389527213114755 19.17693836065574 3.30976692744e-05 0.0 0.0 0.0
254 1 15.22797442622951 19.054293770491807 5.7542978134e-05 0.0 0.0 0.0
255 1 17.793866885245905 19.636464262295085 3.43019025845e-05 0.0 0.0 0.0
256 1 20.2003062295082 19.939112131147546 5.62273012633e-05 0.0 0.0 0.0
257 1 22.828505573770492 18.890498360655737 6.93077637636e-05 0.0 0.0 0.0
258 1 25.463773770491805 18.94124262295082 4.53681478979e-05 0.0 0.0 0.0
259 1 27.973721311475416 19.38208655737705 2.49753742938e-05 0.0 0.0 0.0
260 1 30.562739016393444 19.373048524590164 5.18717556096e-05 0.0 0.0 0.0
261 1 33.017902950819675 19.17047540983607 9.51804705675e-05 0.0 0.0 0.0
262 1 35.58374491803279 20.164154098360658 1.45723364182e-05 0.0 0.0 0.0
263 1 38.308484590163935 19.11109704918033 9.07166147671e-05 0.0 0.0 0.0
264 1 41.01903606557378 19.37754229508197 5.98592397045e-05 0.0 0.0 0.0
265 1 43.802295737704924 19.394608524590165 8.47849430111e-05 0.0 0.0 0.0
266 1 46.54874688524591 19.36365704918033 3.52533752782e-05 0.0 0.0 0.0
267 1 49.95734754098361 19.137150819672133 4.76635052601e-05 0.0 0.0 0.0
268 1 51.2628131147541 18.36684786885246 1.55514865178e-05 0.0 0.0 0.0
269 1 54.636170491803284 19.40980655737705 4.57949800476e-05 0.0 0.0 0.0
270 1 57.2112524590164 19.86539409836066 6.07025027104e-05 0.0 0.0 0.0
271 1 59.93074098360656 19.38834754098361 3.48826938207e-05 0.0 0.0 0.0
272 1 62.76181639344263 19.376128524590165 2.73857826493e-05 0.0 0.0 0.0
273 1 65.26267540983606 19.919874754098363 6.71276869382e-05 0.0 0.0 0.0
274 1 67.79736393442624 19.609249180327872 5.75849889286e-05 0.0 0.0 0.0
275 1 70.63752786885247 18.94634229508197 8.07485873442e-05 0.0 0.0 0.0
276 1 73.36812459016393 19.041165901639346 6.82077512819e-05 0.0 0.0 0.0
277 1 75.90432786885248 19.005417704918035 4.63008481351e-05 0.0 0.0 0.0
278 1 78.63643934426231 19.347651147540983 1.97179582129e-05 0.0 0.0 0.0
279 1 0.2362248918032787 19.09645442622951 3.88418530692e-05 0.0 0.0 0.0
280 1 0.09097512131147542 21.743133770491806 3.89207425453e-05 0.0 0.0 0.0
281 1 2.797457967213115 21.612713442622955 9.07537985505e-05 0.0 0.0 0.0
282 1 5.777575081967214 21.85229704918033 1.77888887666e-05 0.0 0.0 0.0
283 1 8.52311737704918 21.531118688524593 6.28474108444e-05 0.0 0.0 0.0
284 1 11.098653770491804 21.254171147540983 5.01509743936e-05 0.0 0.0 0.0
285 1 13.145187540983608 20.52865442622951 1.20851614334e-05 0.0 0.0 0.0
286 1 16.935910163934427 20.92087475409836 6.7549180409e-05 0.0 0.0 0.0
287 1 19.618337704918037 21.345056393442622 8.03582216761e-05 0.0 0.0 0.0
288 1 21.687340327868853 21.479364590163936 5.54489375788e-05 0.0 0.0 0.0
289 1 24.106352131147542 21.2482131147541 5.08925514592e-05 0.0 0.0 0.0
290 1 26.63013442622951 21.59115344262295 3.52626188668e-05 0.0 0.0 0.0
291 1 29.33907016393443 21.77368131147541 4.74418574711e-05 0.0 0.0 0.0
292 1 32.024224262295085 21.731722622950823 1.93987904767e-05 0.0 0.0 0.0
293 1 34.85509770491804 21.516526557377052 4.11040589418e-05 0.0 0.0 0.0
294 1 37.31889573770492 21.641746229508197 3.44248605126e-05 0.0 0.0 0.0
295 1 39.793196065573774 21.522282622950822 4.33929340559e-05 0.0 0.0 0.0
296 1 42.354089836065576 21.580348196721314 5.20070521519e-05 0.0 0.0 0.0
297 1 45.861099016393446 21.45073573770492 5.52877602183e-05 0.0 0.0 0.0
298 1 47.35459606557377 21.779740327868854 5.6777987234e-05 0.0 0.0 0.0
299 1 49.82758360655738 21.9097062295082 2.94923651736e-05 0.0 0.0 0.0
300 1 52.600340983606564 21.408878032786888 5.20203357032e-05 0.0 0.0 0.0
301 1 55.31427540983607 21.84522819672131 2.74835297413e-05 0.0 0.0 0.0
302 1 57.88077377049181 21.24902098360656 2.99296794143e-05 0.0 0.0 0.0
303 1 61.52426229508197 21.479011147540987 7.11305472445e-05 0.0 0.0 0.0
304 1 63.92363278688526 22.04482229508197 8.17139273e-05 0.0 0.0 0.0
305 1 66.890531147541 22.14196852459017 6.72814970315e-05 0.0 0.0 0.0
306 1 69.49540327868853 21.4138262295082 2.67013571096e-05 0.0 0.0 0.0
307 1 72.02908196721312 21.30021967213115 1.07225092928e-05 0.0 0.0 0.0
308 1 74.63799344262296 21.42463147540984 5.59667865941e-05 0.0 0.0 0.0
309 1 77.20752131147542 21.3837331147541 8.71742879325e-05 0.0 0.0 0.0
310 1 79.27920000000002 20.75349442622951 7.33074336309e-05 0.0 0.0 0.0
311 1 1.3277425573770494 23.884541639344267 7.06348677144e-05 0.0 0.0 0.0
312 1 3.484383803278689 22.99957180327869 5.1358636347e-05 0.0 0.0 0.0
313 1 7.4178518032786895 23.83960393442623 5.3974510541e-05 0.0 0.0 0.0
314 1 10.143096393442624 23.71463672131148 9.08824715769e-05 0.0 0.0 0.0
315 1 12.79017967213115 23.465005245901644 6.43095397288e-05 0.0 0.0 0.0
316 1 15.271851803278691 23.244810491803282 7.64808693001e-05 0.0 0.0 0.0
317 1 17.93923278688525 23.278185573770493 6.37588655552e-05 0.0 0.0 0.0
318 1 20.35885049180328 24.041924590163937 7.55844535946e-05 0.0 0.0 0.0
319 1 22.858548196721312 23.806481311475412 4.71624243993e-05 0.0 0.0 0.0
320 1 25.026110819672134 24.94971672131148 1.25774260187e-05 0.0 0.0 0.0
321 1 27.913181639344266 23.99633049180328 1.14172459573e-06 0.0 0.0 0.0
322 1 30.720071475409842 24.105392786885247 4.69425578438e-07 0.0 0.0 0.0
323 1 34.13331737704918 23.643392786885247 7.58007828659e-05 0.0 0.0 0.0
324 1 35.63711475409836 23.949625573770494 6.95710592768e-05 0.0 0.0 0.0
325 1 38.74488524590164 24.010872131147543 1.11516393575e-05 0.0 0.0 0.0
326 1 41.341224262295086 23.91130229508197 8.66207893216e-05 0.0 0.0 0.0
327 1 43.59770295081968 24.126397377049184 6.59559920682e-05 0.0 0.0 0.0
328 1 46.000052459016395 25.440850491803282 8.77216934223e-05 0.0 0.0 0.0
329 1 48.65268983606558 24.287769180327874 3.71554879093e-05 0.0 0.0 0.0
330 1 51.34561967213116 23.83137377049181 8.62276012736e-06 0.0 0.0 0.0
331 1 54.047940983606566 23.797594754098363 2.74228385489e-05 0.0 0.0 0.0
332 1 56.20899016393443 23.076925245901645 2.11926554165e-05 0.0 0.0 0.0
333 1 59.94740327868853 23.584418360655743 9.31915998508e-05 0.0 0.0 0.0
334 1 62.42453114754099 24.15578360655738 1.50309706755e-05 0.0 0.0 0.0
335 1 64.64718032786885 23.409615737704918 7.45026657935e-05 0.0 0.0 0.0
336 1 68.32298360655739 24.017385573770493 8.26928293794e-05 0.0 0.0 0.0
337 1 70.80667540983607 23.7946662295082 2.72608243865e-05 0.0 0.0 0.0
338 1 73.44689180327869 23.718171147540986 5.43625338757e-05 0.0 0.0 0.0
339 1 76.14214426229508 23.764320655737706 1.3489898696e-05 0.0 0.0 0.0
340 1 78.82123934426231 23.648744918032786 8.7900273959e-05 0.0 0.0 0.0
341 1 81.42459672131149 23.981182950819672 3.52623479945e-05 0.0 0.0 0.0
342 1 0.2753873442622951 26.269925901639347 7.56926938514e-05 0.0 0.0 0.0
343 1 2.9283074754098366 25.901133770491807 6.47987250309e-05 0.0 0.0 0.0
344 1 5.844123278688525 25.86594098360656 4.82142691095e-05 0.0 0.0 0.0
345 1 8.734880000000002 26.002975737704922 6.47649065273e-05 0.0 0.0 0.0
346 1 11.510919344262296 25.922693770491808 1.78356088384e-05 0.0 0.0 0.0
347 1 14.24853442622951 25.876948196721315 9.45151514006e-05 0.0 0.0 0.0
348 1 17.537671475409837 25.205154754098363 2.05394858428e-05 0.0 0.0 0.0
349 1 18.399869508196723 27.44880852459017 9.2796430314e-05 0.0 0.0 0.0
350 1 21.281487213114758 26.371616393442626 4.8036674061e-05 0.0 0.0 0.0
351 1 24.0626262295082 26.17207278688525 6.89431201297e-05 0.0 0.0 0.0
352 1 26.554851147540987 26.302745573770494 7.27830005406e-05 0.0 0.0 0.0
353 1 29.247680000000003 26.270077377049184 1.52841656251e-05 0.0 0.0 0.0
354 1 32.105061639344264 26.59277049180328 5.59278946298e-05 0.0 0.0 0.0
355 1 34.539120000000004 26.195046557377054 4.16692561094e-05 0.0 0.0 0.0
356 1 36.451951475409835 25.261958032786886 7.81137683453e-05 0.0 0.0 0.0
357 1 40.168400655737706 26.27209704918033 3.13425566004e-05 0.0 0.0 0.0
358 1 42.625180327868854 26.554800655737708 1.67630015441e-05 0.0 0.0 0.0
359 1 45.313313442622956 26.813924590163936 7.74305552219e-05 0.0 0.0 0.0
360 1 47.78120131147542 26.853611147540988 9.21062366856e-05 0.0 0.0 0.0
361 1 50.336238032786895 26.2840131147541 4.71599089334e-05 0.0 0.0 0.0
362 1 53.104249180327876 26.007015081967214 6.61304454398e-05 0.0 0.0 0.0
363 1 55.95350163934427 25.85463081967213 5.48531656647e-05 0.0 0.0 0.0
364 1 58.606340983606565 25.629184918032788 1.73152378572e-05 0.0 0.0 0.0
365 1 61.108714754098365 27.13732459016394 9.54832753234e-05 0.0 0.0 0.0
366 1 64.05743606557378 26.262907540983612 4.56422696416e-05 0.0 0.0 0.0
367 1 66.87437377049181 26.36873836065574 4.65908832051e-05 0.0 0.0 0.0
368 1 69.39088524590164 26.34071540983607 8.29509454465e-05 0.0 0.0 0.0
369 1 72.20024918032787 26.09083147540984 7.60691397409e-05 0.0 0.0 0.0
370 1 74.90812459016394 26.02418229508197 6.30301741033e-05 0.0 0.0 0.0
371 1 77.72859672131149 25.997017704918036 1.7696690264e-06 0.0 0.0 0.0
372 1 80.35619016393443 26.13480983606558 7.88241616596e-05 0.0 0.0 0.0
373 1 1.7181502295081967 28.410626885245904 3.52978412877e-05 0.0 0.0 0.0
374 1 4.386137114754099 27.916564590163937 9.90297843269e-05 0.0 0.0 0.0
375 1 7.243554098360656 28.01012590163935 6.64160361665e-05 0.0 0.0 0.0
376 1 9.998588852459017 28.18906885245902 9.19960023211e-05 0.0 0.0 0.0
377 1 12.695305573770494 28.192249836065574 2.31570769859e-05 0.0 0.0 0.0
378 1 15.335420983606559 28.391288524590166 7.73688629219e-05 0.0 0.0 0.0
379 1 17.866979016393444 28.895247213114757 3.86928486737e-05 0.0 0.0 0.0
380 1 20.12997114754099 28.833596721311476 8.28734045562e-05 0.0 0.0 0.0
381 1 22.74898098360656 28.514236065573773 6.17420060192e-06 0.0 0.0 0.0
382 1 25.17137573770492 28.625923934426233 6.23853577495e-05 0.0 0.0 0.0
383 1 27.763877377049184 28.49540262295082 6.68025940189e-05 0.0 0.0 0.0
384 1 29.907102950819674 27.658248524590167 2.98557071597e-05 0.0 0.0 0.0
385 1 33.66137049180328 28.778257704918037 7.11621094709e-05 0.0 0.0 0.0
386 1 36.885676065573776 28.034967868852462 4.57516561592e-07 0.0 0.0 0.0
387 1 38.43279540983607 28.201489836065576 1.58272984134e-05 0.0 0.0 0.0
388 1 41.06402426229509 28.825720000000004 2.00347543336e-05 0.0 0.0 0.0
389 1 43.722518688524595 28.95159606557377 3.60574153415e-06 0.0 0.0 0.0
390 1 46.316686557377054 29.250760000000003 6.04495135952e-05 0.0 0.0 0.0
391 1 49.408350163934436 28.868335081967217 4.66889187509e-06 0.0 0.0 0.0
392 1 52.004537704918036 28.292728524590167 2.42728384853e-05 0.0 0.0 0.0
393 1 54.70231475409837 28.02547540983607 1.69475217508e-05 0.0 0.0 0.0
394 1 57.404636065573776 28.0950531147541 6.02091406914e-05 0.0 0.0 0.0
395 1 60.54371147540984 28.579824918032788 1.23959773583e-05 0.0 0.0 0.0
396 1 62.954190163934435 28.436175737704918 5.9893133437e-05 0.0 0.0 0.0
397 1 65.51664918032787 28.54826754098361 4.20814383772e-05 0.0 0.0 0.0
398 1 68.23058360655739 28.88363409836066 8.06130589634e-05 0.0 0.0 0.0
399 1 70.84504918032788 28.370637377049185 9.02032805076e-05 0.0 0.0 0.0
400 1 73.59735737704919 28.340544262295083 8.90120176133e-05 0.0 0.0 0.0
401 1 76.65817049180329 28.120500983606558 6.01995789316e-05 0.0 0.0 0.0
402 1 79.35746229508199 28.379069508196725 6.23077392741e-05 0.0 0.0 0.0
403 1 81.82954098360656 28.573765901639344 7.75009126794e-05 0.0 0.0 0.0
404 1 0.4518955803278689 30.91653508196722 6.72590185881e-05 0.0 0.0 0.0
405 1 3.870156327868853 30.24847803278689 4.83461928e-05 0.0 0.0 0.0
406 1 5.378740327868853 29.979962622950822 5.42243265303e-05 0.0 0.0 0.0
407 1 8.149276065573773 30.2633731147541 3.63708267023e-05 0.0 0.0 0.0
408 1 11.288906885245904 30.498109508196723 9.5281557227e-05 0.0 0.0 0.0
409 1 14.002285901639345 30.628277377049184 9.55887473372e-05 0.0 0.0 0.0
410 1 16.325767213114755 31.01989180327869 5.90779733378e-05 0.0 0.0 0.0
411 1 18.767399344262294 31.429733770491808 3.87338621147e-05 0.0 0.0 0.0