ITEM: TIMESTEP
1
ITEM: NUMBER OF ATOMS
100
ITEM: BOX BOUNDS xy xz yz pp pp pp
0.0 9.88045 0.0
0.0 9.88045 0.0
0.0 10.0 0.0
ITEM: ATOMS id type x y z vx vy vz
1 2 0.17183870138484045 0.11194360833486311 0.0 0.0 0.0 0.0
2 2 1.4969947827626615 0.4092150374571541 0.0 0.0 0.0 0.0
3 1 2.4587886125408813 0.961615310622062 0.0 0.0 0.0 0.0
4 2 3.7657711642991125 9.77414716014557 0.0 0.0 0.0 0.0
5 1 4.820316810013092 0.16413769813709417 0.0 0.0 0.0 0.0
6 1 5.191738113869591 0.7066349746622759 0.0 0.0 0.0 0.0
7 2 6.229308393035357 0.9368407644674712 0.0 0.0 0.0 0.0
8 2 7.398181349207649 0.7335874737582763 0.0 0.0 0.0 0.0
9 1 8.477086316437717 0.6477558870574377 0.0 0.0 0.0 0.0
10 1 8.955780747095949 0.19314553631618575 0.0 0.0 0.0 0.0
11 1 0.6663328929987666 1.1002905115923074 0.0 0.0 0.0 0.0
12 1 1.25682796824606 1.4997341326436122 0.0 0.0 0.0 0.0
13 1 1.9665713532755638 1.457506165574423 0.0 0.0 0.0 0.0
14 1 3.101596586264873 0.7588318467106444 0.0 0.0 0.0 0.0
15 2 4.173243309887937 1.085909861603257 0.0 0.0 0.0 0.0
16 2 5.313672905239414 1.8317258827512168 0.0 0.0 0.0 0.0
17 1 7.042992843038588 1.7755772459205965 0.0 0.0 0.0 0.0
18 1 6.960494251587444 2.464619090238303 0.0 0.0 0.0 0.0
19 2 8.13638868363299 1.6790413569401688 0.0 0.0 0.0 0.0
20 2 9.42171400351272 1.176793337273292 0.0 0.0 0.0 0.0
21 2 0.31980192765874904 2.117130511291975 0.0 0.0 0.0 0.0
22 1 1.4364205737231908 2.1694288960525525 0.0 0.0 0.0 0.0
23 1 2.1189142935422134 2.1266150713090552 0.0 0.0 0.0 0.0
24 2 3.174109514151897 1.847800512291633 0.0 0.0 0.0 0.0
25 1 4.283502866244591 2.1751097906139822 0.0 0.0 0.0 0.0
26 1 4.631044491414771 2.810917127298492 0.0 0.0 0.0 0.0
27 1 6.425974142895852 2.007623438686133 0.0 0.0 0.0 0.0
28 1 7.623149323121416 2.6719755812700274 0.0 0.0 0.0 0.0
29 1 8.596509044753203 2.6216616685587844 0.0 0.0 0.0 0.0
30 1 9.111062386482331 2.2101204005830306 0.0 0.0 0.0 0.0
31 2 0.8616896263251143 3.170716318993083 0.0 0.0 0.0 0.0
32 1 1.8349671417858715 2.729681138790492 0.0 0.0 0.0 0.0
33 2 2.866052675594433 3.046069357710592 0.0 0.0 0.0 0.0
34 2 3.93655994170724 3.791078821734712 0.0 0.0 0.0 0.0
35 1 3.9141409109208407 2.711606103390428 0.0 0.0 0.0 0.0
36 2 5.137184989475174 3.8740866701669896 0.0 0.0 0.0 0.0
37 2 5.930089771916859 2.956147934996809 0.0 0.0 0.0 0.0
38 2 7.022724621528108 3.6224547277094894 0.0 0.0 0.0 0.0
39 2 8.2454369204 3.6109897156626967 0.0 0.0 0.0 0.0
40 2 9.482539022025511 3.23926131803946 0.0 0.0 0.0 0.0
41 2 0.29790936861026257 4.24928618980953 0.0 0.0 0.0 0.0
42 2 1.8469563716842412 3.871101343460192 0.0 0.0 0.0 0.0
43 1 2.899490933174974 4.134111933845114 0.0 0.0 0.0 0.0
44 1 3.2849600868233626 4.673141745614281 0.0 0.0 0.0 0.0
45 1 4.54842035466849 4.794033854353392 0.0 0.0 0.0 0.0
46 1 5.182593695966445 4.996398724910186 0.0 0.0 0.0 0.0
47 2 6.186558211019029 4.54914139277244 0.0 0.0 0.0 0.0
48 1 7.886866593551729 4.609011553111118 0.0 0.0 0.0 0.0
49 1 8.564696818944181 4.688982821673656 0.0 0.0 0.0 0.0
50 1 9.097063492124716 4.282503504089984 0.0 0.0 0.0 0.0
51 2 1.0833005200571992 5.14804862210738 0.0 0.0 0.0 0.0
52 2 2.2853769023879935 5.040965587804045 0.0 0.0 0.0 0.0
53 2 3.262311296605804 5.799801116900672 0.0 0.0 0.0 0.0
54 1 3.8966606377454824 4.893662045133298 0.0 0.0 0.0 0.0
55 1 4.2866076439068515 5.427276373858567 0.0 0.0 0.0 0.0
56 1 4.910684083408552 5.620141674101898 0.0 0.0 0.0 0.0
57 2 5.971318081755518 5.771093342538668 0.0 0.0 0.0 0.0
58 1 7.250655376061966 4.762127097045719 0.0 0.0 0.0 0.0
59 2 8.069170724684453 5.675605309938897 0.0 0.0 0.0 0.0
60 2 9.503505076302655 5.3050355686838175 0.0 0.0 0.0 0.0
61 2 0.5761377798058457 6.2540052255229845 0.0 0.0 0.0 0.0
62 2 1.836629672464478 6.186381104069144 0.0 0.0 0.0 0.0
63 1 2.747288847254639 6.756796359698208 0.0 0.0 0.0 0.0
64 2 4.2927877768681455 6.54587000810074 0.0 0.0 0.0 0.0
65 1 5.111336956340852 7.299221065440962 0.0 0.0 0.0 0.0
66 1 5.402101479720022 6.6960431665215685 0.0 0.0 0.0 0.0
67 2 6.940075599557722 6.51037230221436 0.0 0.0 0.0 0.0
68 1 6.993499284536535 5.383205831588049 0.0 0.0 0.0 0.0
69 2 8.077288945198605 6.913399332551733 0.0 0.0 0.0 0.0
70 2 9.22698410454527 6.50549710803694 0.0 0.0 0.0 0.0
71 2 0.23793415132208273 7.424618186135024 0.0 0.0 0.0 0.0
72 1 1.3061902870960538 7.1335938872061515 0.0 0.0 0.0 0.0
73 2 2.267073525508958 7.757482841516621 0.0 0.0 0.0 0.0
74 2 3.466317764138928 7.549341322565399 0.0 0.0 0.0 0.0
75 1 4.54822487985722 7.635027556607324 0.0 0.0 0.0 0.0
76 2 6.172671539919276 7.49950240319189 0.0 0.0 0.0 0.0
77 1 6.963102973877794 8.248762437560158 0.0 0.0 0.0 0.0
78 1 7.247718565869934 7.62227192215993 0.0 0.0 0.0 0.0
79 1 7.8249956710573 7.965236964268852 0.0 0.0 0.0 0.0
80 2 8.957415486013728 7.7575378888712025 0.0 0.0 0.0 0.0
81 2 0.01644243759895222 8.700942326027471 0.0 0.0 0.0 0.0
82 2 1.153013395165387 8.217064421206327 0.0 0.0 0.0 0.0
83 1 3.0149723618316635 8.61967586550168 0.0 0.0 0.0 0.0
84 1 3.7002233424130933 8.649829246678701 0.0 0.0 0.0 0.0
85 1 4.266608214958598 8.240096186686609 0.0 0.0 0.0 0.0
86 2 5.340284524400582 8.414511265210303 0.0 0.0 0.0 0.0
87 1 6.4059690174610004 8.627312668561919 0.0 0.0 0.0 0.0
88 1 7.534956645128897 8.570240873633228 0.0 0.0 0.0 0.0
89 1 8.204751502181084 8.510740831152285 0.0 0.0 0.0 0.0
90 1 8.802094405006645 8.829851131768901 0.0 0.0 0.0 0.0
91 1 0.9799079912866661 9.290898649196075 0.0 0.0 0.0 0.0
92 1 1.6326468833050012 9.176123977916214 0.0 0.0 0.0 0.0
93 2 2.5758360913639597 9.668521664963038 0.0 0.0 0.0 0.0
94 1 4.347281771245268 8.881800898389708 0.0 0.0 0.0 0.0
95 1 4.784475126519258 9.376100024973434 0.0 0.0 0.0 0.0
96 2 5.837059212781095 9.598957671728021 0.0 0.0 0.0 0.0
97 1 6.983113308417303 8.977958087912455 0.0 0.0 0.0 0.0
98 1 6.9006892404931355 9.652768913365815 0.0 0.0 0.0 0.0
99 2 7.982639817773723 9.55463529869463 0.0 0.0 0.0 0.0
100 1 9.09113917623275 9.429755293496369 0.0 0.0 0.0 0.0
