ITEM: TIMESTEP
1
ITEM: NUMBER OF ATOMS
100
ITEM: BOX BOUNDS xy xz yz pp pp pp
0.0 9.88045 0.0
0.0 9.88045 0.0
0.0 10.0 0.0
ITEM: ATOMS id type x y z vx vy vz
1 1 0.1129577421378432 1.3593585617762063 0.0 0.0 0.0 0.0
2 2 1.003107754023354 0.7151593648919724 0.0 0.0 0.0 0.0
3 2 2.2308768822985936 0.6189477981163903 0.0 0.0 0.0 0.0
4 1 3.2634787924287183 0.2792484041482092 0.0 0.0 0.0 0.0
5 2 4.392265510967835 0.494599128939254 0.0 0.0 0.0 0.0
6 2 6.018669953783849 0.5300018476408596 0.0 0.0 0.0 0.0
7 2 7.21903984941271 0.5380889919942077 0.0 0.0 0.0 0.0
8 1 7.70786830115958 9.429278668742885 0.0 0.0 0.0 0.0
9 2 8.428823029927013 0.3394831731386024 0.0 0.0 0.0 0.0
10 2 9.658140864321805 0.3295490154953797 0.0 0.0 0.0 0.0
11 1 0.6742400674079337 1.7367613783525209 0.0 0.0 0.0 0.0
12 2 1.8170166964067946 1.7988432178639255 0.0 0.0 0.0 0.0
13 1 2.926248558961771 1.4749814055394426 0.0 0.0 0.0 0.0
14 1 3.3355292190851 0.9406173351723571 0.0 0.0 0.0 0.0
15 2 4.051689444197407 1.7775153370257428 0.0 0.0 0.0 0.0
16 2 5.304063038824769 1.4858719988048341 0.0 0.0 0.0 0.0
17 1 6.507679043605989 1.4943479006706744 0.0 0.0 0.0 0.0
18 2 7.592060962493882 1.712695142083735 0.0 0.0 0.0 0.0
19 2 8.882180994262397 1.4558320375909206 0.0 0.0 0.0 0.0
20 2 9.66185330166277 2.3881893572788866 0.0 0.0 0.0 0.0
21 1 0.8585524698016795 2.367959059429898 0.0 0.0 0.0 0.0
22 1 1.3346806142218175 2.8093299580788633 0.0 0.0 0.0 0.0
23 1 1.972778816604793 2.8807928197765404 0.0 0.0 0.0 0.0
24 2 2.985346653170311 2.5571667465755237 0.0 0.0 0.0 0.0
25 2 4.1340250778968715 3.0404771035500735 0.0 0.0 0.0 0.0
26 1 5.064852409716846 2.520532446837241 0.0 0.0 0.0 0.0
27 2 6.169606872158976 2.5454173516990353 0.0 0.0 0.0 0.0
28 1 7.255398961403915 2.756328276696686 0.0 0.0 0.0 0.0
29 2 8.414901129601484 2.6357494834355264 0.0 0.0 0.0 0.0
30 1 9.246396586243797 3.3645660092921874 0.0 0.0 0.0 0.0
31 2 0.4604453818565648 3.4264532893194004 0.0 0.0 0.0 0.0
32 1 1.5615950306176685 3.4544245335236505 0.0 0.0 0.0 0.0
33 1 2.2209730657008278 3.4791151742596136 0.0 0.0 0.0 0.0
34 2 3.217736970151932 3.805551303496688 0.0 0.0 0.0 0.0
35 1 4.285549999355818 4.17866971858967 0.0 0.0 0.0 0.0
36 2 5.221320797453117 3.605783952726377 0.0 0.0 0.0 0.0
37 1 6.305359613024295 3.6323992103087517 0.0 0.0 0.0 0.0
38 1 6.929259073152369 3.38390711808272 0.0 0.0 0.0 0.0
39 1 7.591599173195673 3.3286003151886048 0.0 0.0 0.0 0.0
40 1 8.686586002088868 3.6997499986472255 0.0 0.0 0.0 0.0
41 1 0.798829742945888 4.4528960094391445 0.0 0.0 0.0 0.0
42 1 1.3682693825216705 4.107150092894282 0.0 0.0 0.0 0.0
43 1 2.041677333577535 4.124080387981681 0.0 0.0 0.0 0.0
44 1 2.494763641603527 4.615173068093224 0.0 0.0 0.0 0.0
45 2 3.509462864106919 4.962939255758705 0.0 0.0 0.0 0.0
46 1 4.697236000327839 4.7598874818576675 0.0 0.0 0.0 0.0
47 2 5.854327745591873 4.638536390346299 0.0 0.0 0.0 0.0
48 1 6.808596391840711 4.0663598695384255 0.0 0.0 0.0 0.0
49 2 7.855178550076171 4.364573381396143 0.0 0.0 0.0 0.0
50 2 9.549106611935567 4.400481183461268 0.0 0.0 0.0 0.0
51 2 0.39976921869031956 5.4448035487806905 0.0 0.0 0.0 0.0
52 2 1.6159660946874654 5.21957212045808 0.0 0.0 0.0 0.0
53 1 2.6344130218891983 5.637020461031664 0.0 0.0 0.0 0.0
54 2 3.614194435126754 6.1732672674023945 0.0 0.0 0.0 0.0
55 1 4.451880399890529 5.424703563880477 0.0 0.0 0.0 0.0
56 1 5.094516554221317 5.377028414773721 0.0 0.0 0.0 0.0
57 2 6.946797700176623 5.177369492848129 0.0 0.0 0.0 0.0
58 1 8.01714009352213 5.44078859518635 0.0 0.0 0.0 0.0
59 1 8.625293915916437 5.134974841506624 0.0 0.0 0.0 0.0
60 1 9.221906115247341 5.410596640155135 0.0 0.0 0.0 0.0
61 1 0.5517379296459917 6.49468862935783 0.0 0.0 0.0 0.0
62 1 1.1781623386580855 6.222153511876149 0.0 0.0 0.0 0.0
63 1 1.8483665695782237 6.348465165770072 0.0 0.0 0.0 0.0
64 1 2.5280900572956524 6.3093303477975 0.0 0.0 0.0 0.0
65 2 4.81395700253553 6.445730493304158 0.0 0.0 0.0 0.0
66 2 6.001319372874616 5.9871614654402805 0.0 0.0 0.0 0.0
67 1 7.055654842524062 6.2798310303994045 0.0 0.0 0.0 0.0
68 1 7.650398246096636 6.008075897896234 0.0 0.0 0.0 0.0
69 2 8.67514581033913 6.303371741055632 0.0 0.0 0.0 0.0
70 1 9.764655599957594 6.446023463882995 0.0 0.0 0.0 0.0
71 1 0.20087982722606398 7.0642080903990685 0.0 0.0 0.0 0.0
72 2 1.2359898251810002 7.3082306755217035 0.0 0.0 0.0 0.0
73 1 2.250724569487242 6.918913701559334 0.0 0.0 0.0 0.0
74 2 3.259753859147365 7.343311920269311 0.0 0.0 0.0 0.0
75 2 4.600170042414714 7.678645378299283 0.0 0.0 0.0 0.0
76 2 5.759565793462462 7.223875150721869 0.0 0.0 0.0 0.0
77 1 6.749613205739511 6.858125917678891 0.0 0.0 0.0 0.0
78 2 7.791653172620999 7.138143359579199 0.0 0.0 0.0 0.0
79 1 8.86339374113356 7.374797055082813 0.0 0.0 0.0 0.0
80 1 9.435002594286386 7.046336970168183 0.0 0.0 0.0 0.0
81 2 1.0041667411886483 8.53078776410984 0.0 0.0 0.0 0.0
82 2 2.158541251693864 8.048534235191097 0.0 0.0 0.0 0.0
83 1 3.1276535897005746 8.425715039539197 0.0 0.0 0.0 0.0
84 1 3.5028238975550985 8.952887606451966 0.0 0.0 0.0 0.0
85 1 3.7649642343810594 8.329930227394714 0.0 0.0 0.0 0.0
86 2 5.659476832824783 8.42804716594305 0.0 0.0 0.0 0.0
87 2 6.856269810508061 7.977202998457441 0.0 0.0 0.0 0.0
88 1 7.9614573272978895 8.221404529338594 0.0 0.0 0.0 0.0
89 1 8.569686835782509 7.958629687595475 0.0 0.0 0.0 0.0
90 2 9.688944365938202 8.106587641611158 0.0 0.0 0.0 0.0
91 1 0.6688747658804995 9.555500307104284 0.0 0.0 0.0 0.0
92 1 1.3977011866360671 9.574873411517643 0.0 0.0 0.0 0.0
93 2 2.476377630190225 9.30387332275338 0.0 0.0 0.0 0.0
94 1 3.600666722624208 9.60037721428177 0.0 0.0 0.0 0.0
95 2 4.563758924341623 9.055300430929242 0.0 0.0 0.0 0.0
96 1 5.5251448869266095 9.491677518995976 0.0 0.0 0.0 0.0
97 2 6.61792683972613 9.263895822485994 0.0 0.0 0.0 0.0
98 1 7.619984047857178 8.78121595530345 0.0 0.0 0.0 0.0
99 2 8.77906168601923 9.026029810414345 0.0 0.0 0.0 0.0
100 1 0.08025350403895715 9.16651334295011 0.0 0.0 0.0 0.0
