ITEM: TIMESTEP
1
ITEM: NUMBER OF ATOMS
100
ITEM: BOX BOUNDS xy xz yz pp pp pp
0.0 9.88045 0.0
0.0 9.88045 0.0
0.0 10.0 0.0
ITEM: ATOMS id type x y z vx vy vz
1 1 0.06879149015886375 0.5458173057593407 0.0 0.0 0.0 0.0
2 2 1.2478242643756967 0.6255829930779043 0.0 0.0 0.0 0.0
3 1 2.40034101887907 0.5944955246400475 0.0 0.0 0.0 0.0
4 1 3.404971697472373 1.4514299296080955 0.0 0.0 0.0 0.0
5 1 4.596136877600936 0.5991655233354276 0.0 0.0 0.0 0.0
6 2 5.540003313396219 0.01662522566783915 0.0 0.0 0.0 0.0
7 1 6.61148455091638 9.815323917611453 0.0 0.0 0.0 0.0
8 2 7.527310046719839 0.4487721660669133 0.0 0.0 0.0 0.0
9 1 8.633440745992573 0.36758447562480523 0.0 0.0 0.0 0.0
10 2 9.324453938900605 9.435270372305844 0.0 0.0 0.0 0.0
11 2 0.5752786762043377 1.5742675011278369 0.0 0.0 0.0 0.0
12 1 1.6574777254662354 1.643820918377019 0.0 0.0 0.0 0.0
13 1 2.154678548905475 1.216265300489528 0.0 0.0 0.0 0.0
14 1 2.8064651018799744 1.152612156304659 0.0 0.0 0.0 0.0
15 1 4.07371030940537 1.2856878429662792 0.0 0.0 0.0 0.0
16 2 5.113989888128903 1.5923711141698242 0.0 0.0 0.0 0.0
17 2 6.283488115745508 0.9898092880320953 0.0 0.0 0.0 0.0
18 1 7.2359200822613055 1.5223620997736806 0.0 0.0 0.0 0.0
19 2 8.291087410022692 1.3844286234811798 0.0 0.0 0.0 0.0
20 1 9.254897091362713 0.7312269385247853 0.0 0.0 0.0 0.0
21 2 0.48996465319822297 2.7934980020071145 0.0 0.0 0.0 0.0
22 1 1.4518853812102028 2.265009948128691 0.0 0.0 0.0 0.0
23 2 2.586277265531114 2.2319245551854126 0.0 0.0 0.0 0.0
24 2 3.9526584966722864 2.3831438901038444 0.0 0.0 0.0 0.0
25 1 4.987539423325157 2.727216273967899 0.0 0.0 0.0 0.0
26 1 5.630624668596798 2.5741470886154114 0.0 0.0 0.0 0.0
27 1 6.096029824835842 2.0758515313809442 0.0 0.0 0.0 0.0
28 1 6.76740146030077 1.978984790430216 0.0 0.0 0.0 0.0
29 2 7.775816381502705 2.523402185130241 0.0 0.0 0.0 0.0
30 2 9.336778591721593 1.9070186485796956 0.0 0.0 0.0 0.0
31 2 0.26686119629579 3.9985430582599153 0.0 0.0 0.0 0.0
32 2 1.6656001863309673 3.3205027318626152 0.0 0.0 0.0 0.0
33 2 2.39182354099209 4.310929789991191 0.0 0.0 0.0 0.0
34 2 3.115181146309042 3.347105836623016 0.0 0.0 0.0 0.0
35 2 4.312793018306136 3.60058113581755 0.0 0.0 0.0 0.0
36 2 5.532799962029296 3.7122163450252197 0.0 0.0 0.0 0.0
37 2 6.608919688837948 3.0379095412088293 0.0 0.0 0.0 0.0
38 1 7.5231378963425986 3.6046770063549824 0.0 0.0 0.0 0.0
39 1 8.171349910314994 3.5741080646384673 0.0 0.0 0.0 0.0
40 2 9.143958169285522 3.1011186254125063 0.0 0.0 0.0 0.0
41 1 0.8721183761215203 4.889084677061199 0.0 0.0 0.0 0.0
42 1 1.3042273281435666 4.3740798536650916 0.0 0.0 0.0 0.0
43 1 2.9060232958599035 5.236660828174377 0.0 0.0 0.0 0.0
44 1 3.5142740706854982 4.4366214240780675 0.0 0.0 0.0 0.0
45 1 4.165537343990894 4.663446752630996 0.0 0.0 0.0 0.0
46 1 4.844155023576358 4.607597206952891 0.0 0.0 0.0 0.0
47 2 5.828130634162076 5.137183447440404 0.0 0.0 0.0 0.0
48 2 6.654534567222369 4.249232749991548 0.0 0.0 0.0 0.0
49 2 8.965686316450377 4.310614589674437 0.0 0.0 0.0 0.0
50 1 0.24941694977423268 5.1101255814788304 0.0 0.0 0.0 0.0
51 1 0.7403000961986578 5.560036235820702 0.0 0.0 0.0 0.0
52 2 1.8084481071738348 5.396544809381173 0.0 0.0 0.0 0.0
53 1 2.779827551348315 5.89007944129709 0.0 0.0 0.0 0.0
54 2 3.8661726840004236 5.695127582615793 0.0 0.0 0.0 0.0
55 1 4.936955689901241 5.733125428875939 0.0 0.0 0.0 0.0
56 1 5.446947004086755 6.170641993748447 0.0 0.0 0.0 0.0
57 1 6.924928605135246 5.29170320736893 0.0 0.0 0.0 0.0
58 1 7.456439908210216 5.698425981417194 0.0 0.0 0.0 0.0
59 2 7.818530882745106 4.665749674192559 0.0 0.0 0.0 0.0
60 1 9.493357193682149 5.216593623680246 0.0 0.0 0.0 0.0
61 1 1.0037463537008315 6.187396193300664 0.0 0.0 0.0 0.0
62 1 1.5992152960841914 6.501499551182619 0.0 0.0 0.0 0.0
63 1 2.2919338044917903 6.352624212319321 0.0 0.0 0.0 0.0
64 2 3.2941585436505263 6.840737782314529 0.0 0.0 0.0 0.0
65 2 4.518053504712816 6.754611752534993 0.0 0.0 0.0 0.0
66 1 5.610480425836586 6.823769745832998 0.0 0.0 0.0 0.0
67 2 6.536640693726927 6.293916931630437 0.0 0.0 0.0 0.0
68 1 7.635235913078677 6.344799428061165 0.0 0.0 0.0 0.0
69 2 8.550641284231341 5.7307255479279595 0.0 0.0 0.0 0.0
70 2 9.77658266806437 6.24608875346936 0.0 0.0 0.0 0.0
71 1 0.9862065636860478 6.8750790019306045 0.0 0.0 0.0 0.0
72 2 2.196405724776621 7.414871144672274 0.0 0.0 0.0 0.0
73 1 2.799063663718689 8.331063209761627 0.0 0.0 0.0 0.0
74 1 3.324832333472533 7.919365651080016 0.0 0.0 0.0 0.0
75 2 4.450151871079704 7.990382196899663 0.0 0.0 0.0 0.0
76 1 5.380553776278743 7.433700249005021 0.0 0.0 0.0 0.0
77 2 6.475744810950717 7.559460863144137 0.0 0.0 0.0 0.0
78 1 7.408762075616378 6.976198683530771 0.0 0.0 0.0 0.0
79 2 8.51090606796066 7.003976548715908 0.0 0.0 0.0 0.0
80 1 9.548472781660955 7.302329413597356 0.0 0.0 0.0 0.0
81 1 0.35693880200925693 7.221701344429719 0.0 0.0 0.0 0.0
82 2 1.1080753116395843 7.998689143662197 0.0 0.0 0.0 0.0
83 1 2.134072438012848 8.478417520356457 0.0 0.0 0.0 0.0
84 2 2.6667537011928357 9.418267185229634 0.0 0.0 0.0 0.0
85 2 3.7296961064914425 8.945202537049468 0.0 0.0 0.0 0.0
86 2 5.624559057046893 8.479223284064204 0.0 0.0 0.0 0.0
87 1 6.746790037245963 8.646987605897385 0.0 0.0 0.0 0.0
88 2 7.655516751499633 8.047065103025888 0.0 0.0 0.0 0.0
89 2 8.898274891610635 8.21633048500894 0.0 0.0 0.0 0.0
90 1 0.04572855243606355 7.834366757910891 0.0 0.0 0.0 0.0
91 2 0.6254828818380193 9.41881371481403 0.0 0.0 0.0 0.0
92 1 1.6427621107106656 8.917344120683369 0.0 0.0 0.0 0.0
93 1 1.6560701156496227 9.559362753582706 0.0 0.0 0.0 0.0
94 2 3.5262979838993878 0.3565296095666195 0.0 0.0 0.0 0.0
95 1 4.482435189366037 9.751082125631543 0.0 0.0 0.0 0.0
96 1 4.772531748029758 9.128815643938339 0.0 0.0 0.0 0.0
97 1 6.387585418285059 9.206419513906525 0.0 0.0 0.0 0.0
98 1 7.043461051482599 9.276350539278978 0.0 0.0 0.0 0.0
99 2 8.116510457032431 9.229656162929382 0.0 0.0 0.0 0.0
100 1 0.07865585353927784 8.49624463290806 0.0 0.0 0.0 0.0
