ITEM: TIMESTEP
1
ITEM: NUMBER OF ATOMS
100
ITEM: BOX BOUNDS xy xz yz pp pp pp
0.0 9.88045 0.0
0.0 9.88045 0.0
0.0 10.0 0.0
ITEM: ATOMS id type x y z vx vy vz
1 1 0.676373868415288 0.7433290300309895 0.0 0.0 0.0 0.0
2 1 1.34318353613298 0.8987901937308919 0.0 0.0 0.0 0.0
3 2 2.3605625128451253 0.5374666175133483 0.0 0.0 0.0 0.0
4 2 3.7711505315159917 0.8462632952025817 0.0 0.0 0.0 0.0
5 1 4.853749252999448 0.9092659261900261 0.0 0.0 0.0 0.0
6 1 5.4271668720695105 0.5589757493799555 0.0 0.0 0.0 0.0
7 1 6.109090099103835 0.622960484944095 0.0 0.0 0.0 0.0
8 1 7.71095752304946 0.6943514963098493 0.0 0.0 0.0 0.0
9 1 8.958728604832048 1.0169556052218192 0.0 0.0 0.0 0.0
10 1 9.606087182553656 0.8073041674764622 0.0 0.0 0.0 0.0
11 1 0.2239075814052635 1.242116949901565 0.0 0.0 0.0 0.0
12 1 0.8859514599651451 1.3703272081557465 0.0 0.0 0.0 0.0
13 2 1.8887386464988964 1.862173877342403 0.0 0.0 0.0 0.0
14 1 2.909714279225031 1.492545734398092 0.0 0.0 0.0 0.0
15 2 4.43873376725853 1.9574992083360183 0.0 0.0 0.0 0.0
16 2 5.679234511439647 1.6282971034750366 0.0 0.0 0.0 0.0
17 2 6.926071204201587 1.4280323518644815 0.0 0.0 0.0 0.0
18 1 8.046583876583709 1.2700415910557248 0.0 0.0 0.0 0.0
19 1 8.631258407184426 1.6218786943370007 0.0 0.0 0.0 0.0
20 1 9.445924306092635 1.4927198159456112 0.0 0.0 0.0 0.0
21 1 0.1296487555550658 1.8978695668564238 0.0 0.0 0.0 0.0
22 1 0.785070509987423 2.0089794167802917 0.0 0.0 0.0 0.0
23 1 1.6310830203315014 2.920631839765862 0.0 0.0 0.0 0.0
24 2 3.3089044118949182 2.503678918256716 0.0 0.0 0.0 0.0
25 1 5.294657070593197 2.634025021562913 0.0 0.0 0.0 0.0
26 2 6.395868948238438 2.6528320855904477 0.0 0.0 0.0 0.0
27 1 7.459247716060044 2.3841614454843385 0.0 0.0 0.0 0.0
28 1 7.971581737275295 1.922160056001735 0.0 0.0 0.0 0.0
29 1 8.101702371701231 2.567252176686273 0.0 0.0 0.0 0.0
30 2 9.181479693690441 2.5917739745801884 0.0 0.0 0.0 0.0
31 1 0.38376108776121326 2.5387325541792114 0.0 0.0 0.0 0.0
32 1 1.06043769863916 2.6002033459509106 0.0 0.0 0.0 0.0
33 1 2.3072868500755894 2.954497167829346 0.0 0.0 0.0 0.0
34 1 2.7850005120394403 3.4739728827485536 0.0 0.0 0.0 0.0
35 1 4.797262743969885 3.0769973521794407 0.0 0.0 0.0 0.0
36 1 5.456831555455881 3.272535258644915 0.0 0.0 0.0 0.0
37 1 7.113930212656663 3.444162974338567 0.0 0.0 0.0 0.0
38 1 7.628323690830608 3.041531907528314 0.0 0.0 0.0 0.0
39 1 8.284646884360615 3.20566112305414 0.0 0.0 0.0 0.0
40 1 9.457292869099032 3.7156571812450365 0.0 0.0 0.0 0.0
41 1 9.736350263608436 4.346463075921547 0.0 0.0 0.0 0.0
42 2 0.6538299669275316 3.595817971073045 0.0 0.0 0.0 0.0
43 2 1.8232591414491304 3.9646470337934616 0.0 0.0 0.0 0.0
44 1 2.9038745128621692 4.17087618970461 0.0 0.0 0.0 0.0
45 2 3.8675860969568485 3.636194169195604 0.0 0.0 0.0 0.0
46 2 4.959816035504092 4.247012552184078 0.0 0.0 0.0 0.0
47 2 6.2312888489102205 4.040814582117782 0.0 0.0 0.0 0.0
48 2 7.868448966442315 4.195984302764101 0.0 0.0 0.0 0.0
49 1 8.800735228981317 3.638867273568099 0.0 0.0 0.0 0.0
50 1 9.053662493402665 4.27706884819539 0.0 0.0 0.0 0.0
51 2 0.9543571870848964 4.845505722964243 0.0 0.0 0.0 0.0
52 1 1.8148633632733115 6.108806382804929 0.0 0.0 0.0 0.0
53 2 2.249593021800072 5.092194694602629 0.0 0.0 0.0 0.0
54 1 3.0834146624721988 5.794730739178313 0.0 0.0 0.0 0.0
55 2 3.7431419891188766 4.91584978821513 0.0 0.0 0.0 0.0
56 1 4.78209146751837 5.332662741921989 0.0 0.0 0.0 0.0
57 2 5.892431028800425 5.222800112999942 0.0 0.0 0.0 0.0
58 2 7.1886581798973115 5.2486250754151165 0.0 0.0 0.0 0.0
59 2 8.502382945430465 5.228803517900555 0.0 0.0 0.0 0.0
60 2 9.765185551068276 5.433063141400493 0.0 0.0 0.0 0.0
61 1 1.1483845925935994 5.934402559779727 0.0 0.0 0.0 0.0
62 1 1.36577043064483 6.598672455371712 0.0 0.0 0.0 0.0
63 1 2.487970780755797 6.140128318584893 0.0 0.0 0.0 0.0
64 1 3.0639155673744796 6.459255663343143 0.0 0.0 0.0 0.0
65 2 4.107988171898534 6.208971274829638 0.0 0.0 0.0 0.0
66 2 5.312513658342685 6.310473939715951 0.0 0.0 0.0 0.0
67 2 6.576665591835215 6.349351214550091 0.0 0.0 0.0 0.0
68 2 7.780666160894258 6.727906070669536 0.0 0.0 0.0 0.0
69 2 8.94852340752485 6.358920785426574 0.0 0.0 0.0 0.0
70 2 0.2811754375228972 6.644489376796505 0.0 0.0 0.0 0.0
71 2 0.36543868915449224 7.896444109210173 0.0 0.0 0.0 0.0
72 1 1.2195579619344277 7.259889535206755 0.0 0.0 0.0 0.0
73 2 2.290114111432194 7.212490683803753 0.0 0.0 0.0 0.0
74 2 3.6230385430823104 7.3836808377362475 0.0 0.0 0.0 0.0
75 1 4.734089765952328 7.2784383946103395 0.0 0.0 0.0 0.0
76 2 5.864562853923657 7.392848110032429 0.0 0.0 0.0 0.0
77 1 6.9381025565038295 7.400210594755653 0.0 0.0 0.0 0.0
78 1 7.4119534984217195 7.869151233057344 0.0 0.0 0.0 0.0
79 1 8.061167487692591 7.79511212880812 0.0 0.0 0.0 0.0
80 2 9.095178201867995 7.556656739569782 0.0 0.0 0.0 0.0
81 2 0.18766978685172714 9.08182983284559 0.0 0.0 0.0 0.0
82 2 1.5136464529948213 8.391263802158845 0.0 0.0 0.0 0.0
83 2 2.769065139109099 8.352368308148131 0.0 0.0 0.0 0.0
84 2 3.9706633525257886 8.5722329215351 0.0 0.0 0.0 0.0
85 2 5.140183461295621 8.361445675093734 0.0 0.0 0.0 0.0
86 1 6.222338896687163 8.423431619348694 0.0 0.0 0.0 0.0
87 1 6.775038270221735 8.057774174577396 0.0 0.0 0.0 0.0
88 1 6.8065239726601545 8.737406460686334 0.0 0.0 0.0 0.0
89 2 7.912316667429713 8.884038472741334 0.0 0.0 0.0 0.0
90 1 9.032604046044774 8.647062396929611 0.0 0.0 0.0 0.0
91 1 0.18793318869439893 0.2979841952817015 0.0 0.0 0.0 0.0
92 2 1.2363862155255385 9.698162891450485 0.0 0.0 0.0 0.0
93 1 2.228057935602358 9.290962953855825 0.0 0.0 0.0 0.0
94 2 3.281532772149675 9.580443781742813 0.0 0.0 0.0 0.0
95 2 4.576785955319658 9.706793596323383 0.0 0.0 0.0 0.0
96 2 5.803937484088607 9.418146906007008 0.0 0.0 0.0 0.0
97 2 6.954532698445313 9.812035040503966 0.0 0.0 0.0 0.0
98 1 8.016439969764694 0.10533659707975751 0.0 0.0 0.0 0.0
99 1 8.372542865002938 0.6932442000397021 0.0 0.0 0.0 0.0
100 2 9.055366085136653 9.746292881795886 0.0 0.0 0.0 0.0
