ITEM: TIMESTEP
1
ITEM: NUMBER OF ATOMS
100
ITEM: BOX BOUNDS xy xz yz pp pp pp
0.0 9.88045 0.0
0.0 9.88045 0.0
0.0 10.0 0.0
ITEM: ATOMS id type x y z vx vy vz
1 2 0.9004974213791357 0.3952832210471753 0.0 0.0 0.0 0.0
2 1 1.7594777874689551 1.0914408307208447 0.0 0.0 0.0 0.0
3 2 2.2898282394277 0.11219841749394967 0.0 0.0 0.0 0.0
4 1 3.987491509705448 0.5347285338806412 0.0 0.0 0.0 0.0
5 1 4.434274215973407 1.0690692409373443 0.0 0.0 0.0 0.0
6 2 5.521817386191449 9.72610911580686 0.0 0.0 0.0 0.0
7 1 6.421220885453594 0.523761721377372 0.0 0.0 0.0 0.0
8 1 7.05765551304186 0.34506219953296513 0.0 0.0 0.0 0.0
9 2 8.130553934199963 0.32689219865014985 0.0 0.0 0.0 0.0
10 2 9.428040490928248 0.3494353071490264 0.0 0.0 0.0 0.0
11 1 0.9525756977842325 2.091332000999305 0.0 0.0 0.0 0.0
12 1 1.1975038555903679 1.462902074886935 0.0 0.0 0.0 0.0
13 1 2.4276099537954483 1.1696448390781466 0.0 0.0 0.0 0.0
14 2 3.4501007763126474 1.5052065832501684 0.0 0.0 0.0 0.0
15 1 4.52873561677432 1.723511193674243 0.0 0.0 0.0 0.0
16 2 5.533708516616309 1.1321280847333692 0.0 0.0 0.0 0.0
17 1 6.932574759905973 0.9922294601358999 0.0 0.0 0.0 0.0
18 1 7.5464033945090625 1.3071627539088284 0.0 0.0 0.0 0.0
19 2 8.688360819246244 1.4032324266448206 0.0 0.0 0.0 0.0
20 2 0.09217736528498222 1.4383864534280304 0.0 0.0 0.0 0.0
21 1 1.092865802540458 2.73616156464759 0.0 0.0 0.0 0.0
22 2 2.0532260971703074 2.1761801573720763 0.0 0.0 0.0 0.0
23 1 3.083860384222741 2.5147581624262347 0.0 0.0 0.0 0.0
24 1 3.7039670570016527 2.7909522749980584 0.0 0.0 0.0 0.0
25 1 4.235495507822909 2.3388893370031 0.0 0.0 0.0 0.0
26 2 5.396923391397705 2.348655957505429 0.0 0.0 0.0 0.0
27 2 6.611294859685254 2.025062665387952 0.0 0.0 0.0 0.0
28 1 7.714148148570035 1.9685014506477145 0.0 0.0 0.0 0.0
29 2 8.604421104359545 2.609827660218395 0.0 0.0 0.0 0.0
30 2 9.866296502042326 2.6778970284534434 0.0 0.0 0.0 0.0
31 1 0.8592507743937222 3.35620926034292 0.0 0.0 0.0 0.0
32 2 1.9633818265375418 3.3959779887315547 0.0 0.0 0.0 0.0
33 1 3.0405274934948303 3.164327656531216 0.0 0.0 0.0 0.0
34 1 3.918231064496802 4.100040658274 0.0 0.0 0.0 0.0
35 1 3.6284818981494777 3.4788411708164735 0.0 0.0 0.0 0.0
36 2 4.705147409934451 3.3533771908272163 0.0 0.0 0.0 0.0
37 2 5.9942793063531425 3.4262497521953192 0.0 0.0 0.0 0.0
38 2 7.387788599058104 3.0601716881869643 0.0 0.0 0.0 0.0
39 2 8.564142391192009 3.813265725050851 0.0 0.0 0.0 0.0
40 2 9.818799424326649 3.941547600067194 0.0 0.0 0.0 0.0
41 1 0.2689404753340895 4.982549358080487 0.0 0.0 0.0 0.0
42 2 1.1919276072600686 4.395322363966778 0.0 0.0 0.0 0.0
43 2 2.8324794157385025 4.2390037397029054 0.0 0.0 0.0 0.0
44 1 3.8211407081567708 4.762323208583606 0.0 0.0 0.0 0.0
45 2 4.905470267398631 4.619888823844926 0.0 0.0 0.0 0.0
46 1 6.005634664374524 4.53727693984937 0.0 0.0 0.0 0.0
47 1 6.867367605843997 4.049014834594963 0.0 0.0 0.0 0.0
48 1 7.521137161694581 4.167930990739939 0.0 0.0 0.0 0.0
49 1 7.941205518086472 4.687946482921492 0.0 0.0 0.0 0.0
50 2 9.04638687236819 4.974945774126864 0.0 0.0 0.0 0.0
51 2 1.129070732556282 5.680970276248085 0.0 0.0 0.0 0.0
52 1 2.0610051114120265 5.046464814393745 0.0 0.0 0.0 0.0
53 1 2.6857826073717086 5.295414167303678 0.0 0.0 0.0 0.0
54 1 3.3368798435221225 5.216315616898927 0.0 0.0 0.0 0.0
55 2 4.243967483139677 5.793134797454924 0.0 0.0 0.0 0.0
56 1 5.3253986721060205 5.654884364395733 0.0 0.0 0.0 0.0
57 1 5.837369397333641 5.219081362543438 0.0 0.0 0.0 0.0
58 2 6.9247874198395865 5.136613446351268 0.0 0.0 0.0 0.0
59 1 8.006595552692762 5.335623943761374 0.0 0.0 0.0 0.0
60 2 9.860704662736945 6.030213368153469 0.0 0.0 0.0 0.0
61 1 0.7791455293902394 6.781862763476109 0.0 0.0 0.0 0.0
62 2 1.854186775827445 6.735119781829318 0.0 0.0 0.0 0.0
63 1 2.188238680474491 5.709487235179414 0.0 0.0 0.0 0.0
64 2 3.0956879273643585 6.3012187867988265 0.0 0.0 0.0 0.0
65 1 3.965327423346415 6.925580342887321 0.0 0.0 0.0 0.0
66 2 5.026159916313531 6.734915600624538 0.0 0.0 0.0 0.0
67 2 6.209361560850842 6.302721695675344 0.0 0.0 0.0 0.0
68 2 7.439700484692068 6.257407338743594 0.0 0.0 0.0 0.0
69 2 8.674703467070767 6.176669530771857 0.0 0.0 0.0 0.0
70 1 9.402587909762024 7.0103079947499545 0.0 0.0 0.0 0.0
71 1 0.20711348305271546 7.127871831897816 0.0 0.0 0.0 0.0
72 1 0.82846612487081 7.478365588487934 0.0 0.0 0.0 0.0
73 1 2.7763354357561028 7.320700108002725 0.0 0.0 0.0 0.0
74 1 3.4628450114400704 7.398197737481323 0.0 0.0 0.0 0.0
75 1 4.152262598878289 7.56998321945159 0.0 0.0 0.0 0.0
76 1 4.794557744766352 7.796683035464257 0.0 0.0 0.0 0.0
77 2 5.871037917349801 7.6226667352175355 0.0 0.0 0.0 0.0
78 2 7.08518339331404 7.4356180945967765 0.0 0.0 0.0 0.0
79 1 8.129077988060596 7.097525578887167 0.0 0.0 0.0 0.0
80 1 8.780703485254698 7.2794204633317445 0.0 0.0 0.0 0.0
81 1 0.7846512247453752 8.18209456581658 0.0 0.0 0.0 0.0
82 2 1.8825324892080284 7.957795394901531 0.0 0.0 0.0 0.0
83 1 3.005764666196346 7.930621878741675 0.0 0.0 0.0 0.0
84 1 3.6644388593627237 8.06377011755142 0.0 0.0 0.0 0.0
85 1 4.30666178329635 8.243594727117298 0.0 0.0 0.0 0.0
86 1 4.9735026887980345 8.44875202396046 0.0 0.0 0.0 0.0
87 1 5.6062969856599505 8.66287490330529 0.0 0.0 0.0 0.0
88 2 6.715018356638968 8.638251185986029 0.0 0.0 0.0 0.0
89 2 8.115398473864627 8.16274182632521 0.0 0.0 0.0 0.0
90 2 9.54728905996038 8.081412234015737 0.0 0.0 0.0 0.0
91 2 0.23400617022637213 9.17603866810982 0.0 0.0 0.0 0.0
92 2 1.4565416320969558 9.097216672861137 0.0 0.0 0.0 0.0
93 2 3.059635113820284 9.00649419390742 0.0 0.0 0.0 0.0
94 1 3.399833825657529 0.20506127974911514 0.0 0.0 0.0 0.0
95 1 4.65134479236979 0.4572979649772755 0.0 0.0 0.0 0.0
96 2 4.272248055475202 9.32305252702104 0.0 0.0 0.0 0.0
97 1 6.59298330770669 9.741746114041268 0.0 0.0 0.0 0.0
98 1 7.2371241220195035 9.5875419416457 0.0 0.0 0.0 0.0
99 1 7.736107163280885 9.164433825748862 0.0 0.0 0.0 0.0
100 2 8.841599410474648 9.147404209726277 0.0 0.0 0.0 0.0
