ITEM: TIMESTEP
1
ITEM: NUMBER OF ATOMS
100
ITEM: BOX BOUNDS xy xz yz pp pp pp
0.0 9.88045 0.0
0.0 9.88045 0.0
0.0 10.0 0.0
ITEM: ATOMS id type x y z vx vy vz
1 1 0.2532815040675103 0.865521213735083 0.0 0.0 0.0 0.0
2 1 1.4653437289266127 0.39597926833341335 0.0 0.0 0.0 0.0
3 1 2.0964344442715306 0.22029156962704785 0.0 0.0 0.0 0.0
4 2 3.2067025169408674 0.1953143675076818 0.0 0.0 0.0 0.0
5 2 4.360774061829512 0.6019666281643207 0.0 0.0 0.0 0.0
6 1 5.441259845432784 0.6457655817501683 0.0 0.0 0.0 0.0
7 2 6.244314021807329 1.3633289915427367 0.0 0.0 0.0 0.0
8 2 7.054618167666504 9.76385612117531 0.0 0.0 0.0 0.0
9 2 8.487001675472063 0.49195559945221096 0.0 0.0 0.0 0.0
10 1 9.578233735125117 0.4695081184998434 0.0 0.0 0.0 0.0
11 1 0.16653540377323733 1.5390540681280758 0.0 0.0 0.0 0.0
12 2 1.2098778094109692 1.4502553918995118 0.0 0.0 0.0 0.0
13 2 2.407959645946177 1.2331526480120822 0.0 0.0 0.0 0.0
14 1 3.499787158943216 1.2517463256232695 0.0 0.0 0.0 0.0
15 1 4.014644109627218 1.6875567323432041 0.0 0.0 0.0 0.0
16 1 5.191964639922582 1.2788479160994528 0.0 0.0 0.0 0.0
17 1 5.297622777930788 1.9538899885275665 0.0 0.0 0.0 0.0
18 2 7.4062823410212815 1.0885064835247378 0.0 0.0 0.0 0.0
19 1 8.926050700928185 1.4813672426276108 0.0 0.0 0.0 0.0
20 1 9.495892840274632 1.1308499262050993 0.0 0.0 0.0 0.0
21 1 0.08222368839356858 2.280483814117091 0.0 0.0 0.0 0.0
22 1 0.7300105709101012 2.4598010172202334 0.0 0.0 0.0 0.0
23 2 1.8701937485600189 2.5087901415506897 0.0 0.0 0.0 0.0
24 2 3.086320987181961 2.2498884847707803 0.0 0.0 0.0 0.0
25 2 4.486801129433342 2.745064148818987 0.0 0.0 0.0 0.0
26 1 4.674240863159127 1.6785345984765259 0.0 0.0 0.0 0.0
27 2 6.824871620874708 2.4264808833504876 0.0 0.0 0.0 0.0
28 1 7.84851349748507 2.133739795691731 0.0 0.0 0.0 0.0
29 1 8.304782419933323 1.6569435654800801 0.0 0.0 0.0 0.0
30 1 9.476830969776412 1.8226034787634242 0.0 0.0 0.0 0.0
31 2 9.773181515821046 3.3943188969997924 0.0 0.0 0.0 0.0
32 2 1.1059269594114673 3.483758317135718 0.0 0.0 0.0 0.0
33 2 2.314109383993586 3.7797015333346646 0.0 0.0 0.0 0.0
34 2 3.43471327438838 3.3811819709453648 0.0 0.0 0.0 0.0
35 1 5.002351534199491 3.752435510020263 0.0 0.0 0.0 0.0
36 2 5.731606652858662 2.9642029917678117 0.0 0.0 0.0 0.0
37 1 6.694216558975432 3.5170203822089694 0.0 0.0 0.0 0.0
38 2 7.748814980138175 3.268777728789765 0.0 0.0 0.0 0.0
39 1 8.717472199610024 3.7364371325354964 0.0 0.0 0.0 0.0
40 2 8.814617759266776 2.638376368705324 0.0 0.0 0.0 0.0
41 1 0.447152458832236 4.3634779589590735 0.0 0.0 0.0 0.0
42 2 1.4846882035430462 4.667779366664478 0.0 0.0 0.0 0.0
43 1 3.2116682835440833 4.474411092444708 0.0 0.0 0.0 0.0
44 1 3.8856918265422147 4.348524196024163 0.0 0.0 0.0 0.0
45 1 4.370085456709805 3.8852301484046707 0.0 0.0 0.0 0.0
46 2 5.939139496371532 4.286916570027278 0.0 0.0 0.0 0.0
47 1 7.038307450811773 4.110467612752027 0.0 0.0 0.0 0.0
48 2 8.03371804850925 4.641470241421942 0.0 0.0 0.0 0.0
49 1 9.069507964909214 4.290427755682318 0.0 0.0 0.0 0.0
50 1 9.685105137581344 4.5135347226673055 0.0 0.0 0.0 0.0
51 2 0.3064643891719904 5.4793936901252565 0.0 0.0 0.0 0.0
52 2 1.5551571101173483 5.851508820445224 0.0 0.0 0.0 0.0
53 2 2.7472834004118694 5.479070771539372 0.0 0.0 0.0 0.0
54 1 3.7072431429372887 4.977246286304481 0.0 0.0 0.0 0.0
55 2 4.841467355769957 4.876719979678946 0.0 0.0 0.0 0.0
56 2 6.0838818646968775 5.535914691341507 0.0 0.0 0.0 0.0
57 1 6.921945148334043 4.775366746235592 0.0 0.0 0.0 0.0
58 2 7.327624462625624 5.7855268145990655 0.0 0.0 0.0 0.0
59 2 8.552358653448326 5.876868915600369 0.0 0.0 0.0 0.0
60 1 9.166108674703766 4.964021355351539 0.0 0.0 0.0 0.0
61 1 0.7135142108900356 6.512562134317729 0.0 0.0 0.0 0.0
62 1 1.2461217396877153 6.894017372357633 0.0 0.0 0.0 0.0
63 2 2.310405226567946 6.808868031381117 0.0 0.0 0.0 0.0
64 1 3.977272483675701 5.581898592656935 0.0 0.0 0.0 0.0
65 2 4.9530156797686455 6.108021861132896 0.0 0.0 0.0 0.0
66 1 5.911408782712822 6.636362432754086 0.0 0.0 0.0 0.0
67 1 6.556275787398609 6.558429787778738 0.0 0.0 0.0 0.0
68 2 7.49901805379159 7.072278601144225 0.0 0.0 0.0 0.0
69 1 8.56495757039644 7.038395699316291 0.0 0.0 0.0 0.0
70 2 9.539723193647376 6.604457597501464 0.0 0.0 0.0 0.0
71 2 0.432407471879435 7.589450932226117 0.0 0.0 0.0 0.0
72 2 1.680634773003503 7.892998762441842 0.0 0.0 0.0 0.0
73 1 2.8007206235937794 7.770595257177391 0.0 0.0 0.0 0.0
74 2 3.462643321750371 6.529054043004014 0.0 0.0 0.0 0.0
75 2 4.431655820826241 7.203970227151111 0.0 0.0 0.0 0.0
76 1 5.487262276930284 7.131792611838437 0.0 0.0 0.0 0.0
77 2 6.401842875063301 7.7083824024293595 0.0 0.0 0.0 0.0
78 1 7.412485317973316 8.161591291323095 0.0 0.0 0.0 0.0
79 1 8.06141943322683 8.037455805543093 0.0 0.0 0.0 0.0
80 2 9.144871235509882 7.98673212284967 0.0 0.0 0.0 0.0
81 1 0.8239559697958482 8.606666667933576 0.0 0.0 0.0 0.0
82 1 1.3835274593631395 8.967035918282736 0.0 0.0 0.0 0.0
83 1 2.042855138403229 8.8996292353068 0.0 0.0 0.0 0.0
84 1 3.472585194238935 7.723447480056256 0.0 0.0 0.0 0.0
85 1 4.019384783517947 8.188753490610637 0.0 0.0 0.0 0.0
86 2 5.142728494970802 8.190805307789386 0.0 0.0 0.0 0.0
87 2 5.994550728300762 9.055690023948184 0.0 0.0 0.0 0.0
88 1 7.636398426893129 8.806663138935408 0.0 0.0 0.0 0.0
89 1 8.289233724197327 8.680358734054057 0.0 0.0 0.0 0.0
90 1 0.15603982033899833 8.645193114816083 0.0 0.0 0.0 0.0
91 2 0.5492242514756558 9.68038220102705 0.0 0.0 0.0 0.0
92 1 1.648854890114045 9.59103082789381 0.0 0.0 0.0 0.0
93 1 2.309375746412605 9.488829777443671 0.0 0.0 0.0 0.0
94 2 3.1433777945989587 8.809271446938554 0.0 0.0 0.0 0.0
95 2 4.3852932354755305 9.23092978456146 0.0 0.0 0.0 0.0
96 1 5.295429437679966 9.878574092283579 0.0 0.0 0.0 0.0
97 1 5.99850835311825 0.2717300978278949 0.0 0.0 0.0 0.0
98 1 6.983463858888906 8.658474665900142 0.0 0.0 0.0 0.0
99 1 8.075507149021638 9.333750625928355 0.0 0.0 0.0 0.0
100 2 9.183569691640143 9.316835122406065 0.0 0.0 0.0 0.0
