ITEM: TIMESTEP
1
ITEM: NUMBER OF ATOMS
100
ITEM: BOX BOUNDS xy xz yz pp pp pp
0.0 9.88045 0.0
0.0 9.88045 0.0
0.0 10.0 0.0
ITEM: ATOMS id type x y z vx vy vz
1 1 1.2241541552854873 0.4605252212007022 0.0 0.0 0.0 0.0
2 1 1.4751609176798615 1.0882797392203605 0.0 0.0 0.0 0.0
3 2 2.513812566121715 0.7376667881728226 0.0 0.0 0.0 0.0
4 1 3.7344593425334525 9.53004281693247 0.0 0.0 0.0 0.0
5 1 5.041075205002754 0.049224442154597314 0.0 0.0 0.0 0.0
6 2 5.8217944766928555 0.8312320305112477 0.0 0.0 0.0 0.0
7 1 6.923731525076494 1.0439878667056586 0.0 0.0 0.0 0.0
8 1 6.807834749018225 0.3790255162202619 0.0 0.0 0.0 0.0
9 2 7.888219423232851 0.5394344916935432 0.0 0.0 0.0 0.0
10 1 8.84121845982455 9.864094126801652 0.0 0.0 0.0 0.0
11 1 1.3141440108555313 1.7374729017017274 0.0 0.0 0.0 0.0
12 1 1.943298923605614 1.6016909546464269 0.0 0.0 0.0 0.0
13 2 3.004259240267497 1.9201112487843273 0.0 0.0 0.0 0.0
14 2 3.7192429500362314 0.7725343042648735 0.0 0.0 0.0 0.0
15 1 4.762307659208419 0.6293951599934081 0.0 0.0 0.0 0.0
16 1 5.977921683008161 1.8877379530443974 0.0 0.0 0.0 0.0
17 1 6.608852697894193 1.6269067482790787 0.0 0.0 0.0 0.0
18 2 7.735247176536653 1.8413044374854854 0.0 0.0 0.0 0.0
19 2 8.995595174158321 1.0961934630578383 0.0 0.0 0.0 0.0
20 2 0.36668836983628417 1.2358424448813274 0.0 0.0 0.0 0.0
21 1 0.23345979022783903 2.3362645130737647 0.0 0.0 0.0 0.0
22 1 0.8815064530108759 2.2194612047408775 0.0 0.0 0.0 0.0
23 2 1.9199171352614006 2.6556948307025476 0.0 0.0 0.0 0.0
24 2 4.837987502226332 1.7051784083820622 0.0 0.0 0.0 0.0
25 1 5.6522949433920795 2.458814581338856 0.0 0.0 0.0 0.0
26 1 5.078305067469521 2.7653755803361837 0.0 0.0 0.0 0.0
27 2 6.704721312553557 2.7093652467274545 0.0 0.0 0.0 0.0
28 1 8.422995470192044 2.7416327378999648 0.0 0.0 0.0 0.0
29 1 8.826847078259496 2.2039826066487374 0.0 0.0 0.0 0.0
30 1 9.494201547356592 2.078299967477661 0.0 0.0 0.0 0.0
31 2 0.8495608425415994 3.28614710649031 0.0 0.0 0.0 0.0
32 1 1.8807805343302726 3.7260138819035755 0.0 0.0 0.0 0.0
33 1 2.5290868466735783 3.560634751027779 0.0 0.0 0.0 0.0
34 1 2.9550379168083243 3.0415267073980075 0.0 0.0 0.0 0.0
35 2 3.9951096024831108 2.7165518669550153 0.0 0.0 0.0 0.0
36 1 5.647050893156148 3.1373225434459795 0.0 0.0 0.0 0.0
37 1 7.40141747273905 3.52031802276329 0.0 0.0 0.0 0.0
38 1 7.782235277326222 2.958606408579081 0.0 0.0 0.0 0.0
39 2 8.438296143562924 3.8542850769342767 0.0 0.0 0.0 0.0
40 2 9.458245218519876 3.197171508625449 0.0 0.0 0.0 0.0
41 2 0.39687793770922414 4.413007952261893 0.0 0.0 0.0 0.0
42 1 1.4499856632805 4.215986248931812 0.0 0.0 0.0 0.0
43 2 2.4490675151170125 4.659984352731225 0.0 0.0 0.0 0.0
44 2 3.517635533455043 4.012808769661296 0.0 0.0 0.0 0.0
45 1 4.292825519515099 4.796639654104962 0.0 0.0 0.0 0.0
46 2 4.724624686922195 3.7699215386051144 0.0 0.0 0.0 0.0
47 2 6.3686709362499245 3.9626165997116707 0.0 0.0 0.0 0.0
48 2 7.4723959753932165 4.596391560187826 0.0 0.0 0.0 0.0
49 2 8.488254567112604 5.396515929565311 0.0 0.0 0.0 0.0
50 1 9.221965203120385 4.595336840802793 0.0 0.0 0.0 0.0
51 1 0.2566660780434976 5.509319965871542 0.0 0.0 0.0 0.0
52 2 1.3376892874259168 5.297348347268732 0.0 0.0 0.0 0.0
53 1 2.3457242347600062 5.742438945988565 0.0 0.0 0.0 0.0
54 2 3.4165486749468013 5.441943605426153 0.0 0.0 0.0 0.0
55 1 4.513229883025459 5.445634781050658 0.0 0.0 0.0 0.0
56 2 5.3803386153936845 4.783402934863422 0.0 0.0 0.0 0.0
57 2 6.450205415039442 5.30427840226726 0.0 0.0 0.0 0.0
58 1 7.452971557613911 5.6596367480362595 0.0 0.0 0.0 0.0
59 1 7.787905658931401 6.217342327249191 0.0 0.0 0.0 0.0
60 1 9.543246159443473 5.205833372461619 0.0 0.0 0.0 0.0
61 1 0.49270603678840286 6.747300936701974 0.0 0.0 0.0 0.0
62 1 0.583720699461028 6.09121107575591 0.0 0.0 0.0 0.0
63 2 1.5975276382249466 6.544976713528817 0.0 0.0 0.0 0.0
64 2 2.9905303647794335 6.615768167643539 0.0 0.0 0.0 0.0
65 2 4.222175582705928 6.511529279566739 0.0 0.0 0.0 0.0
66 2 5.42073063500976 6.09568022573206 0.0 0.0 0.0 0.0
67 1 6.475232620596184 6.39157750720584 0.0 0.0 0.0 0.0
68 1 7.10455579604743 6.212728601522575 0.0 0.0 0.0 0.0
69 1 8.33762634859523 6.583793360798492 0.0 0.0 0.0 0.0
70 2 9.367152838414285 6.308804625855992 0.0 0.0 0.0 0.0
71 1 0.023402918687565 7.243476600508557 0.0 0.0 0.0 0.0
72 2 1.0402309698664642 7.674485526242234 0.0 0.0 0.0 0.0
73 2 2.3029525274810525 7.6102003696286005 0.0 0.0 0.0 0.0
74 1 3.4911427588789823 7.612460738704544 0.0 0.0 0.0 0.0
75 1 4.585147848646166 7.531505263195464 0.0 0.0 0.0 0.0
76 1 5.153796152946369 7.176425069033085 0.0 0.0 0.0 0.0
77 2 6.2315995163103315 7.425624911273424 0.0 0.0 0.0 0.0
78 2 7.46324625758111 7.232105291016241 0.0 0.0 0.0 0.0
79 1 8.614920705842552 7.213339309658011 0.0 0.0 0.0 0.0
80 1 9.154159944193424 7.649749931082408 0.0 0.0 0.0 0.0
81 1 9.798469611678302 7.890507485242285 0.0 0.0 0.0 0.0
82 2 0.5374240376247572 8.786570413385983 0.0 0.0 0.0 0.0
83 2 1.7440440471645136 8.729829400909574 0.0 0.0 0.0 0.0
84 2 2.9864269401570027 8.628911202709652 0.0 0.0 0.0 0.0
85 2 4.174767250063241 8.530507584881871 0.0 0.0 0.0 0.0
86 2 5.3843050369068886 8.302745738471682 0.0 0.0 0.0 0.0
87 1 6.45928100921957 8.49801067565606 0.0 0.0 0.0 0.0
88 1 7.045304658643244 8.21051522435491 0.0 0.0 0.0 0.0
89 2 8.151568631146173 8.259154661063471 0.0 0.0 0.0 0.0
90 2 9.225595135930075 8.814697666703983 0.0 0.0 0.0 0.0
91 1 1.1300082953203132 9.680674077316873 0.0 0.0 0.0 0.0
92 1 1.7732657471062663 9.83367329432848 0.0 0.0 0.0 0.0
93 1 2.4240846975228125 9.560012349035953 0.0 0.0 0.0 0.0
94 1 3.09458843718586 9.710786699059664 0.0 0.0 0.0 0.0
95 1 4.391158902811993 9.717104753402314 0.0 0.0 0.0 0.0
96 1 4.931578185603617 9.289379898022931 0.0 0.0 0.0 0.0
97 2 6.021607429205863 9.477892359536122 0.0 0.0 0.0 0.0
98 2 7.268494158715351 9.271563723218433 0.0 0.0 0.0 0.0
99 1 8.335834364503096 9.411332410045695 0.0 0.0 0.0 0.0
100 2 0.05678040596970213 0.054597793749071144 0.0 0.0 0.0 0.0
