ITEM: TIMESTEP
1
ITEM: NUMBER OF ATOMS
100
ITEM: BOX BOUNDS xy xz yz pp pp pp
0.0 9.88045 0.0
0.0 9.88045 0.0
0.0 10.0 0.0
ITEM: ATOMS id type x y z vx vy vz
1 2 0.6354710509817192 0.21819729362648652 0.0 0.0 0.0 0.0
2 2 1.6319616562100716 0.9485786611828096 0.0 0.0 0.0 0.0
3 2 2.80021440348449 0.4643041112040855 0.0 0.0 0.0 0.0
4 1 3.528842634269737 1.3160721247964977 0.0 0.0 0.0 0.0
5 2 4.147862667118854 0.41223991720752257 0.0 0.0 0.0 0.0
6 1 5.236506644894956 0.6870513811577015 0.0 0.0 0.0 0.0
7 1 5.812547709073593 0.347594730211378 0.0 0.0 0.0 0.0
8 2 6.886635968403416 0.40667627533321077 0.0 0.0 0.0 0.0
9 2 8.13620894785653 0.4749254325493037 0.0 0.0 0.0 0.0
10 2 9.356513832013881 0.7248609291563983 0.0 0.0 0.0 0.0
11 1 1.4977530593961443 2.11742659301139 0.0 0.0 0.0 0.0
12 1 2.0038332964622136 2.6385141203760973 0.0 0.0 0.0 0.0
13 2 2.547521277578749 1.7391949122883652 0.0 0.0 0.0 0.0
14 1 3.5870637721057466 2.0190610511458056 0.0 0.0 0.0 0.0
15 2 4.5811349701181765 1.5589038065578247 0.0 0.0 0.0 0.0
16 1 5.837670854715436 1.0238907913603816 0.0 0.0 0.0 0.0
17 1 6.41031160543199 1.3949145624369077 0.0 0.0 0.0 0.0
18 2 7.480447310707728 1.5260780440937607 0.0 0.0 0.0 0.0
19 2 8.674364473417539 1.7965010243583541 0.0 0.0 0.0 0.0
20 2 0.5066555678482239 1.450571297533971 0.0 0.0 0.0 0.0
21 1 0.9054519910441519 2.4429886497589353 0.0 0.0 0.0 0.0
22 1 1.4044242212623204 2.8679180917976064 0.0 0.0 0.0 0.0
23 2 3.0245004356141623 3.026753657658198 0.0 0.0 0.0 0.0
24 1 4.0226644461014915 2.527183308449326 0.0 0.0 0.0 0.0
25 1 4.683305586902266 2.6625259636059697 0.0 0.0 0.0 0.0
26 2 5.623722938002126 2.121848771350595 0.0 0.0 0.0 0.0
27 2 6.758531522484958 2.524172299805515 0.0 0.0 0.0 0.0
28 1 7.6091903698655425 3.1735145393405184 0.0 0.0 0.0 0.0
29 1 7.869147353021744 2.554349424349388 0.0 0.0 0.0 0.0
30 2 9.691948454042986 2.4670167266957925 0.0 0.0 0.0 0.0
31 2 0.5303794098275314 3.4760646827291213 0.0 0.0 0.0 0.0
32 1 1.9209264350089033 3.308241112785547 0.0 0.0 0.0 0.0
33 1 2.2798828867840824 3.878426176628044 0.0 0.0 0.0 0.0
34 2 4.174859307953447 3.62031843062134 0.0 0.0 0.0 0.0
35 1 5.173067988320002 3.141382769482673 0.0 0.0 0.0 0.0
36 1 5.849253765204727 3.1842649172446897 0.0 0.0 0.0 0.0
37 1 6.409285750849113 3.5488817184894357 0.0 0.0 0.0 0.0
38 1 7.104222769601299 3.6863660168889063 0.0 0.0 0.0 0.0
39 1 8.438528253366526 2.9108422916665626 0.0 0.0 0.0 0.0
40 1 8.998024931807699 3.278933445283474 0.0 0.0 0.0 0.0
41 2 0.7844464409166321 4.672348088509488 0.0 0.0 0.0 0.0
42 1 1.5805540737662096 3.8912861311642972 0.0 0.0 0.0 0.0
43 2 1.9620846251561932 4.939907191834242 0.0 0.0 0.0 0.0
44 2 3.2345226599582224 4.448634738156853 0.0 0.0 0.0 0.0
45 1 4.472430716483472 4.654637010837562 0.0 0.0 0.0 0.0
46 2 5.49008211269391 4.222774250484482 0.0 0.0 0.0 0.0
47 1 6.591815851859036 4.176508499270501 0.0 0.0 0.0 0.0
48 1 7.206392806911893 4.409941037970709 0.0 0.0 0.0 0.0
49 2 8.21821015517665 4.044359946974196 0.0 0.0 0.0 0.0
50 2 9.458904342713632 4.257577804957497 0.0 0.0 0.0 0.0
51 1 0.44069242903274536 5.735260440536935 0.0 0.0 0.0 0.0
52 1 1.135710164589231 5.720763100430073 0.0 0.0 0.0 0.0
53 1 2.854710074038339 5.504858917524958 0.0 0.0 0.0 0.0
54 1 3.5121042575778048 5.501637164781778 0.0 0.0 0.0 0.0
55 1 4.10519660431714 5.19844513405888 0.0 0.0 0.0 0.0
56 2 5.208596307027308 5.488555592824435 0.0 0.0 0.0 0.0
57 2 6.492393187198547 5.262983704203058 0.0 0.0 0.0 0.0
58 1 7.5754687183533065 4.979414220005119 0.0 0.0 0.0 0.0
59 2 8.65481577407295 5.212210454739342 0.0 0.0 0.0 0.0
60 1 9.785525956904607 5.28980937493383 0.0 0.0 0.0 0.0
61 1 0.3392841152203413 6.833523154522414 0.0 0.0 0.0 0.0
62 1 0.80885652679766 6.319449727104778 0.0 0.0 0.0 0.0
63 2 2.07593544421089 6.307632305190534 0.0 0.0 0.0 0.0
64 1 3.16297535057969 6.085515973160244 0.0 0.0 0.0 0.0
65 2 4.240349321486646 6.294080491947073 0.0 0.0 0.0 0.0
66 1 6.003861964513529 6.256190253850933 0.0 0.0 0.0 0.0
67 1 6.2800676066865835 6.87227315740814 0.0 0.0 0.0 0.0
68 1 6.6845911657279045 6.3467500868034215 0.0 0.0 0.0 0.0
69 2 7.743052371945553 6.085823271041143 0.0 0.0 0.0 0.0
70 2 9.319735061801522 6.243445549330761 0.0 0.0 0.0 0.0
71 1 0.27692689427978273 7.7500327262512085 0.0 0.0 0.0 0.0
72 2 1.29033007819801 7.3270222771628095 0.0 0.0 0.0 0.0
73 2 2.5172831393650483 7.5566939984389885 0.0 0.0 0.0 0.0
74 1 3.2167033724680447 6.740578506950106 0.0 0.0 0.0 0.0
75 2 3.9969178563402283 7.527703928118807 0.0 0.0 0.0 0.0
76 2 5.21085206667791 7.035940314635476 0.0 0.0 0.0 0.0
77 1 6.211857547058522 7.539230466935539 0.0 0.0 0.0 0.0
78 2 7.27852723854446 7.313086011096011 0.0 0.0 0.0 0.0
79 2 8.507457451905685 7.145418505078148 0.0 0.0 0.0 0.0
80 1 9.690483276608509 7.259839702236171 0.0 0.0 0.0 0.0
81 1 0.3454416520265216 8.429026721660536 0.0 0.0 0.0 0.0
82 1 1.0252790477621092 8.408451568655952 0.0 0.0 0.0 0.0
83 1 1.687496141616784 8.347089809549832 0.0 0.0 0.0 0.0
84 1 3.7157157067533726 8.571615350908047 0.0 0.0 0.0 0.0
85 1 4.37914567143114 8.577995257651505 0.0 0.0 0.0 0.0
86 2 5.411930995619027 8.261566158510282 0.0 0.0 0.0 0.0
87 1 6.543417375298141 8.13716918605974 0.0 0.0 0.0 0.0
88 1 7.380491347580663 8.535488227624493 0.0 0.0 0.0 0.0
89 1 7.991800009002306 8.137656371360064 0.0 0.0 0.0 0.0
90 2 9.138342300643952 8.191428365280016 0.0 0.0 0.0 0.0
91 1 0.7198028554524519 8.998967819142102 0.0 0.0 0.0 0.0
92 2 1.7002093260982458 9.487806942031055 0.0 0.0 0.0 0.0
93 2 2.6716825985051043 8.768922952710916 0.0 0.0 0.0 0.0
94 1 3.4528301100435526 9.479969486338707 0.0 0.0 0.0 0.0
95 1 4.023553680910204 9.15902039648053 0.0 0.0 0.0 0.0
96 2 5.052476411698336 9.46082071678736 0.0 0.0 0.0 0.0
97 2 6.253334011517781 9.192893080873755 0.0 0.0 0.0 0.0
98 1 7.318068467787173 9.262463930538823 0.0 0.0 0.0 0.0
99 2 8.369761740608814 9.15128785477124 0.0 0.0 0.0 0.0
100 2 9.569724921325696 9.343166537384095 0.0 0.0 0.0 0.0
