ITEM: TIMESTEP
1
ITEM: NUMBER OF ATOMS
100
ITEM: BOX BOUNDS xy xz yz pp pp pp
0.0 9.88045 0.0
0.0 9.88045 0.0
0.0 10.0 0.0
ITEM: ATOMS id type x y z vx vy vz
1 1 0.6395909702822572 0.48283314796007804 0.0 0.0 0.0 0.0
2 1 1.270201232785912 0.2652855151318846 0.0 0.0 0.0 0.0
3 1 2.2747733762145597 0.971708989890254 0.0 0.0 0.0 0.0
4 1 2.8783415129370393 1.2828152501643089 0.0 0.0 0.0 0.0
5 1 4.82022444341978 0.9991359656583049 0.0 0.0 0.0 0.0
6 1 5.4630206931146255 1.1380716610580086 0.0 0.0 0.0 0.0
7 2 6.41706188281297 0.6389361769344816 0.0 0.0 0.0 0.0
8 2 7.6221622832750695 0.6102760181251025 0.0 0.0 0.0 0.0
9 2 8.854498642137315 0.6803611523858797 0.0 0.0 0.0 0.0
10 1 0.010944780993224157 0.2990996249292796 0.0 0.0 0.0 0.0
11 1 0.6485243965276217 2.301634598033716 0.0 0.0 0.0 0.0
12 2 1.2442478902913423 1.3747225650355175 0.0 0.0 0.0 0.0
13 1 2.2872010313259628 1.620418379315863 0.0 0.0 0.0 0.0
14 1 3.537685248819689 1.1539439997933454 0.0 0.0 0.0 0.0
15 1 4.204266560597359 1.2534015820289535 0.0 0.0 0.0 0.0
16 1 5.9245884204997505 1.6252102386537224 0.0 0.0 0.0 0.0
17 2 7.021613946504596 1.779689091784041 0.0 0.0 0.0 0.0
18 1 8.059702609125946 2.1710740084027367 0.0 0.0 0.0 0.0
19 1 8.16691772992949 1.5306245143234798 0.0 0.0 0.0 0.0
20 2 9.878819595222666 1.3958995453903578 0.0 0.0 0.0 0.0
21 1 0.03263909224390704 2.5621610589061814 0.0 0.0 0.0 0.0
22 2 1.7176906557391556 2.5566403186003677 0.0 0.0 0.0 0.0
23 2 2.9675507958407494 2.4235016630286625 0.0 0.0 0.0 0.0
24 1 3.844819322339515 1.8089277575870617 0.0 0.0 0.0 0.0
25 2 4.9100847242179695 2.0941356603121912 0.0 0.0 0.0 0.0
26 1 5.649771338674208 2.8786974749650796 0.0 0.0 0.0 0.0
27 1 6.006187934178535 2.289104866299629 0.0 0.0 0.0 0.0
28 1 7.626831474053958 2.6913895843294 0.0 0.0 0.0 0.0
29 1 8.75777272517122 1.8677952088871985 0.0 0.0 0.0 0.0
30 1 9.30102912116913 2.2848479206908707 0.0 0.0 0.0 0.0
31 2 0.80676610092742 3.4083072660163585 0.0 0.0 0.0 0.0
32 1 1.849893714354116 3.6633408467876887 0.0 0.0 0.0 0.0
33 1 2.4434708489484986 3.382497247055638 0.0 0.0 0.0 0.0
34 1 3.087713252144099 3.518655494355371 0.0 0.0 0.0 0.0
35 2 4.0409284338891895 2.9890346223637554 0.0 0.0 0.0 0.0
36 1 5.090138830127963 3.2132494899533937 0.0 0.0 0.0 0.0
37 2 6.667914832155663 3.1545892757390397 0.0 0.0 0.0 0.0
38 1 7.65489301091988 3.5329706773175094 0.0 0.0 0.0 0.0
39 2 8.614452484232872 3.088167379650991 0.0 0.0 0.0 0.0
40 1 9.658450980184329 3.1883254739737676 0.0 0.0 0.0 0.0
41 1 0.9240772449159961 4.50982704401016 0.0 0.0 0.0 0.0
42 1 1.5213753092775768 4.248891080055206 0.0 0.0 0.0 0.0
43 2 2.5604657913177324 4.494350385367849 0.0 0.0 0.0 0.0
44 1 3.5337423544313133 4.003944986539983 0.0 0.0 0.0 0.0
45 2 4.58569483516396 4.1818383432042525 0.0 0.0 0.0 0.0
46 2 5.813490246699525 4.038833779913817 0.0 0.0 0.0 0.0
47 2 7.02993139419059 4.432455825014607 0.0 0.0 0.0 0.0
48 1 8.056549522819195 4.065337921744511 0.0 0.0 0.0 0.0
49 2 9.130342808785592 4.185731849686762 0.0 0.0 0.0 0.0
50 1 0.2845705330983179 4.389766314274088 0.0 0.0 0.0 0.0
51 1 9.715311425270778 5.170346744208327 0.0 0.0 0.0 0.0
52 2 1.5416198173256817 5.393576977478971 0.0 0.0 0.0 0.0
53 1 2.6219456892014543 5.570701601119563 0.0 0.0 0.0 0.0
54 2 3.633757531641199 5.118511405693047 0.0 0.0 0.0 0.0
55 2 4.833836665815006 5.395435411520884 0.0 0.0 0.0 0.0
56 2 6.074615793007783 5.276390930183623 0.0 0.0 0.0 0.0
57 1 7.136255871919061 5.528781703931897 0.0 0.0 0.0 0.0
58 1 8.1598294153724 4.740212363368311 0.0 0.0 0.0 0.0
59 1 8.402723673896928 5.396423878456935 0.0 0.0 0.0 0.0
60 1 9.050662954609871 5.248186463348004 0.0 0.0 0.0 0.0
61 1 0.4925043522963045 5.025353758133826 0.0 0.0 0.0 0.0
62 2 0.4396030118560792 6.113817777387534 0.0 0.0 0.0 0.0
63 2 2.112833038963285 6.539614082436638 0.0 0.0 0.0 0.0
64 2 3.3250474530970036 6.3900983070721 0.0 0.0 0.0 0.0
65 2 4.498100073857031 6.619779874212358 0.0 0.0 0.0 0.0
66 1 5.5157392752320815 6.237328487062853 0.0 0.0 0.0 0.0
67 2 6.567954910993955 6.454543025624616 0.0 0.0 0.0 0.0
68 1 7.746960357437765 5.272389959067889 0.0 0.0 0.0 0.0
69 2 7.845339508693065 6.377595534299035 0.0 0.0 0.0 0.0
70 2 9.072801673810442 6.312540940150455 0.0 0.0 0.0 0.0
71 2 9.716700201231998 7.360821022686956 0.0 0.0 0.0 0.0
72 2 1.0915280618227843 7.1899877340249265 0.0 0.0 0.0 0.0
73 2 2.2174671955858907 7.818958787519541 0.0 0.0 0.0 0.0
74 1 3.2540213483340854 7.490166352279194 0.0 0.0 0.0 0.0
75 2 4.2755837079121815 7.870444665343921 0.0 0.0 0.0 0.0
76 2 5.48767300363154 7.341083413456932 0.0 0.0 0.0 0.0
77 1 6.56779762285337 7.542027377008382 0.0 0.0 0.0 0.0
78 1 7.237748807440076 7.30496176941465 0.0 0.0 0.0 0.0
79 1 7.901280201332653 7.473324810032043 0.0 0.0 0.0 0.0
80 1 8.5731007030795 7.321418996340138 0.0 0.0 0.0 0.0
81 1 0.6405819059465684 8.153247282214691 0.0 0.0 0.0 0.0
82 1 1.2713329139301435 8.331004566286035 0.0 0.0 0.0 0.0
83 2 1.9450565471702526 9.204231954070378 0.0 0.0 0.0 0.0
84 2 3.1722455103059892 8.6531171728507 0.0 0.0 0.0 0.0
85 1 4.22442691175808 8.976528434431595 0.0 0.0 0.0 0.0
86 2 5.2642712098412305 8.649004713337543 0.0 0.0 0.0 0.0
87 1 6.210452368323526 8.137756008062949 0.0 0.0 0.0 0.0
88 2 7.239789572394805 8.381622260533478 0.0 0.0 0.0 0.0
89 2 8.398729608394252 8.453676159732296 0.0 0.0 0.0 0.0
90 2 9.557502551645586 8.583626469672973 0.0 0.0 0.0 0.0
91 1 9.49642597449104 9.658387683280854 0.0 0.0 0.0 0.0
92 2 0.6711596452245302 9.263079563888516 0.0 0.0 0.0 0.0
93 1 1.894761660964643 0.43585399652060275 0.0 0.0 0.0 0.0
94 2 2.9319773475706477 0.12041314618585197 0.0 0.0 0.0 0.0
95 2 4.120227463906383 0.17287512534416472 0.0 0.0 0.0 0.0
96 2 5.330770379006755 0.02363094369524177 0.0 0.0 0.0 0.0
97 2 6.410694038666407 9.264128262674873 0.0 0.0 0.0 0.0
98 1 7.5469345943674835 9.40883692912937 0.0 0.0 0.0 0.0
99 1 8.20728255430023 9.561025008639408 0.0 0.0 0.0 0.0
100 1 8.864356935240759 9.451371324954318 0.0 0.0 0.0 0.0
