ITEM: TIMESTEP
1
ITEM: NUMBER OF ATOMS
100
ITEM: BOX BOUNDS xy xz yz pp pp pp
0.0 9.88045 0.0
0.0 9.88045 0.0
0.0 10.0 0.0
ITEM: ATOMS id type x y z vx vy vz
1 1 0.8018669365099872 0.790853624614299 0.0 0.0 0.0 0.0
2 1 1.4110771179287784 0.5565507037820323 0.0 0.0 0.0 0.0
3 2 2.4809369507262993 0.5847039994182008 0.0 0.0 0.0 0.0
4 1 3.320066869600359 9.774607297438138 0.0 0.0 0.0 0.0
5 2 4.442634007172651 0.07964308376841123 0.0 0.0 0.0 0.0
6 2 5.6694426150208725 0.34581526429678516 0.0 0.0 0.0 0.0
7 1 6.741483408208987 0.4196633923137095 0.0 0.0 0.0 0.0
8 1 7.327495074482643 0.09246177172353968 0.0 0.0 0.0 0.0
9 2 8.390586019468671 0.3626494542845861 0.0 0.0 0.0 0.0
10 2 9.691726513010972 0.30150105586682796 0.0 0.0 0.0 0.0
11 2 0.343375826312844 1.7508134985748778 0.0 0.0 0.0 0.0
12 2 1.649833659016363 1.6323322891063485 0.0 0.0 0.0 0.0
13 1 2.647799806659552 2.263828314519175 0.0 0.0 0.0 0.0
14 1 2.7665339387508885 1.6248225960450273 0.0 0.0 0.0 0.0
15 2 3.6371608252365926 0.9765441270334557 0.0 0.0 0.0 0.0
16 2 4.8994330567601185 1.3544094551913695 0.0 0.0 0.0 0.0
17 2 6.217632453542456 1.468204244334666 0.0 0.0 0.0 0.0
18 2 7.4933047280124665 1.208906098525707 0.0 0.0 0.0 0.0
19 1 8.181228320211158 2.0662484398628482 0.0 0.0 0.0 0.0
20 2 9.038414722118123 1.4034342366302681 0.0 0.0 0.0 0.0
21 1 0.7143606890905897 2.7564525518275307 0.0 0.0 0.0 0.0
22 2 1.7937432391518653 2.8979863728049087 0.0 0.0 0.0 0.0
23 1 3.103655590108558 2.7491109382454884 0.0 0.0 0.0 0.0
24 1 3.303902892227308 2.0633357761397053 0.0 0.0 0.0 0.0
25 1 3.99472012446174 1.980587394194843 0.0 0.0 0.0 0.0
26 2 4.859156914366371 2.6421418036708957 0.0 0.0 0.0 0.0
27 1 5.973368087590331 2.574435750439315 0.0 0.0 0.0 0.0
28 2 7.079076561242406 2.388862948949336 0.0 0.0 0.0 0.0
29 2 8.063298692245322 3.1352321866042994 0.0 0.0 0.0 0.0
30 2 9.29531366410959 2.6486945511031057 0.0 0.0 0.0 0.0
31 2 0.2124730261139391 3.7079163319930597 0.0 0.0 0.0 0.0
32 2 1.467265870513403 4.093223617953524 0.0 0.0 0.0 0.0
33 2 2.718157911105702 3.7583938879184995 0.0 0.0 0.0 0.0
34 1 3.7455167249361137 2.5852973382746782 0.0 0.0 0.0 0.0
35 2 3.982917828658669 3.632649867608719 0.0 0.0 0.0 0.0
36 2 5.592837803106058 3.650142782025667 0.0 0.0 0.0 0.0
37 1 6.710434095472047 3.407077027451287 0.0 0.0 0.0 0.0
38 1 7.237439591641909 3.8609791659637116 0.0 0.0 0.0 0.0
39 1 8.492164104813867 4.135902392357031 0.0 0.0 0.0 0.0
40 1 9.003609895588978 3.7069117678288763 0.0 0.0 0.0 0.0
41 1 0.6005424202812871 4.717377344571451 0.0 0.0 0.0 0.0
42 1 1.7726600279510563 5.1529036593149105 0.0 0.0 0.0 0.0
43 1 2.3264318869539413 4.771887579449207 0.0 0.0 0.0 0.0
44 2 3.4201023146030463 4.8357180047416 0.0 0.0 0.0 0.0
45 2 4.702549629275974 4.66772265832358 0.0 0.0 0.0 0.0
46 2 5.9239644807370935 4.9048167582239115 0.0 0.0 0.0 0.0
47 1 6.601809350829865 4.060635793153155 0.0 0.0 0.0 0.0
48 1 7.83509624909117 4.195934653751788 0.0 0.0 0.0 0.0
49 1 8.237382896542819 4.763298376543187 0.0 0.0 0.0 0.0
50 2 9.369770162282517 4.754382173241145 0.0 0.0 0.0 0.0
51 1 0.43749623737553306 5.342539164484527 0.0 0.0 0.0 0.0
52 1 1.0995199068229164 5.2060755898545175 0.0 0.0 0.0 0.0
53 1 2.398516864288494 5.435545321145554 0.0 0.0 0.0 0.0
54 1 3.6102990970486935 5.949894984967635 0.0 0.0 0.0 0.0
55 1 4.190676237932014 5.640629490773022 0.0 0.0 0.0 0.0
56 2 5.233487612188173 5.9176758507044385 0.0 0.0 0.0 0.0
57 2 7.141852694494871 5.004356685415052 0.0 0.0 0.0 0.0
58 2 8.04724361399236 5.860085219212263 0.0 0.0 0.0 0.0
59 1 9.143185483801332 5.826064911347147 0.0 0.0 0.0 0.0
60 1 9.800392470621505 5.742663993709809 0.0 0.0 0.0 0.0
61 2 0.8244544445292201 6.348673539844659 0.0 0.0 0.0 0.0
62 1 1.7743602831455103 5.820735203004573 0.0 0.0 0.0 0.0
63 1 2.369592659534372 6.104188299343349 0.0 0.0 0.0 0.0
64 1 2.9616128105114914 5.821142659751881 0.0 0.0 0.0 0.0
65 2 4.336468573056896 6.777998470212332 0.0 0.0 0.0 0.0
66 1 6.317800863603498 5.954086650002575 0.0 0.0 0.0 0.0
67 1 6.970280930263792 6.052921691479034 0.0 0.0 0.0 0.0
68 1 7.245706855337861 6.650042179882921 0.0 0.0 0.0 0.0
69 1 8.958643339600611 6.462744897027756 0.0 0.0 0.0 0.0
70 1 9.604381304872229 6.367114533567654 0.0 0.0 0.0 0.0
71 1 9.745954596079395 7.009794012092211 0.0 0.0 0.0 0.0
72 2 0.7698539344260033 7.599481999094688 0.0 0.0 0.0 0.0
73 2 1.8612333338888274 7.043956377705425 0.0 0.0 0.0 0.0
74 2 3.0944934614488884 6.925540007114837 0.0 0.0 0.0 0.0
75 2 4.775475870461184 7.951019274143428 0.0 0.0 0.0 0.0
76 2 5.6559605095440695 7.096212407852771 0.0 0.0 0.0 0.0
77 1 6.588107334892023 6.594170201725572 0.0 0.0 0.0 0.0
78 1 7.804194538513684 6.977785306058988 0.0 0.0 0.0 0.0
79 1 8.452679867153803 6.877114257033789 0.0 0.0 0.0 0.0
80 1 9.078894665254536 7.117714319475081 0.0 0.0 0.0 0.0
81 1 0.5625644121269359 8.704269773530735 0.0 0.0 0.0 0.0
82 1 1.2133817945544625 8.569830059179761 0.0 0.0 0.0 0.0
83 2 2.2689816094804436 8.247844409577189 0.0 0.0 0.0 0.0
84 2 3.5001540652260297 8.100651968683067 0.0 0.0 0.0 0.0
85 1 4.234617661541557 8.897928354967778 0.0 0.0 0.0 0.0
86 1 5.948864833350581 8.167979785741187 0.0 0.0 0.0 0.0
87 2 6.971164832914085 7.725784894033764 0.0 0.0 0.0 0.0
88 1 7.5681792590749986 8.72780367379066 0.0 0.0 0.0 0.0
89 2 8.297308165276581 7.9402522995512514 0.0 0.0 0.0 0.0
90 2 9.529703774298296 8.098326100972107 0.0 0.0 0.0 0.0
91 1 0.672430481015094 9.369533346354558 0.0 0.0 0.0 0.0
92 1 0.8989347603331994 0.12233436108983042 0.0 0.0 0.0 0.0
93 2 1.8421795892273027 9.42895970281126 0.0 0.0 0.0 0.0
94 1 2.9431089498890364 9.176503648218924 0.0 0.0 0.0 0.0
95 1 3.629790535784664 9.187980128348139 0.0 0.0 0.0 0.0
96 2 5.3156649087918915 9.054832321440738 0.0 0.0 0.0 0.0
97 2 6.563777763227411 9.16552621921258 0.0 0.0 0.0 0.0
98 1 7.682354618520327 9.389688114841743 0.0 0.0 0.0 0.0
99 2 8.773336892064846 9.090968871634411 0.0 0.0 0.0 0.0
100 1 0.02742512477403025 9.119530065994152 0.0 0.0 0.0 0.0
