ITEM: TIMESTEP
1
ITEM: NUMBER OF ATOMS
100
ITEM: BOX BOUNDS xy xz yz pp pp pp
0.0 9.88045 0.0
0.0 9.88045 0.0
0.0 10.0 0.0
ITEM: ATOMS id type x y z vx vy vz
1 1 1.0185236438769463 0.3378197135681695 0.0 0.0 0.0 0.0
2 1 1.696881110546657 0.32113785343193396 0.0 0.0 0.0 0.0
3 2 2.697565491359977 0.7587627647888225 0.0 0.0 0.0 0.0
4 1 3.762657883259838 0.8991057474482331 0.0 0.0 0.0 0.0
5 1 4.347341643762307 0.5713301650029888 0.0 0.0 0.0 0.0
6 2 5.402510487178084 0.7523131285457229 0.0 0.0 0.0 0.0
7 1 6.72337418573212 0.19216819754613926 0.0 0.0 0.0 0.0
8 2 7.68104835760456 0.8245460739379605 0.0 0.0 0.0 0.0
9 1 8.663511449808862 0.15493295582157415 0.0 0.0 0.0 0.0
10 1 0.6757195794284687 0.9173861849618287 0.0 0.0 0.0 0.0
11 1 0.07685661304559645 1.2036420595231796 0.0 0.0 0.0 0.0
12 2 1.657270818211189 1.4016831259796392 0.0 0.0 0.0 0.0
13 1 2.781122604329392 1.9347108032879616 0.0 0.0 0.0 0.0
14 1 3.4415814252488652 1.5441355772439949 0.0 0.0 0.0 0.0
15 2 4.554877106462548 1.6426730656625952 0.0 0.0 0.0 0.0
16 1 5.591781555474466 1.8692047471802509 0.0 0.0 0.0 0.0
17 2 6.485250100455097 1.2418802146921508 0.0 0.0 0.0 0.0
18 1 7.331918474489039 1.8620706292399467 0.0 0.0 0.0 0.0
19 1 7.990654558968118 1.857203715513029 0.0 0.0 0.0 0.0
20 2 8.888015811878452 1.2050116297721494 0.0 0.0 0.0 0.0
21 1 0.6023269215963752 1.6071886833856364 0.0 0.0 0.0 0.0
22 1 1.4838353736184275 2.477040061556881 0.0 0.0 0.0 0.0
23 1 2.1687101088789924 2.347340548396624 0.0 0.0 0.0 0.0
24 1 2.7525491034892404 2.65212887789109 0.0 0.0 0.0 0.0
25 2 3.825224554889169 2.569833200264049 0.0 0.0 0.0 0.0
26 1 5.27920800593782 2.498020910858473 0.0 0.0 0.0 0.0
27 2 6.424434581927018 2.5435906669303154 0.0 0.0 0.0 0.0
28 2 7.589525132194164 2.8841621423889223 0.0 0.0 0.0 0.0
29 1 8.52526968081442 2.2277632793349036 0.0 0.0 0.0 0.0
30 2 9.62227333246434 2.27091299727239 0.0 0.0 0.0 0.0
31 1 0.8524641391095437 2.242396821377621 0.0 0.0 0.0 0.0
32 1 0.9610196462309881 2.924589856240854 0.0 0.0 0.0 0.0
33 2 1.9689688904926803 3.44458097877774 0.0 0.0 0.0 0.0
34 1 3.014932433767847 3.283603229324859 0.0 0.0 0.0 0.0
35 2 3.963599745406107 3.7820598496488094 0.0 0.0 0.0 0.0
36 1 4.837369281983262 3.0385821016950567 0.0 0.0 0.0 0.0
37 1 5.5172577324868755 3.1479067577716133 0.0 0.0 0.0 0.0
38 1 7.853880968626647 3.9059040507461926 0.0 0.0 0.0 0.0
39 2 8.728614678512459 3.2671167119028977 0.0 0.0 0.0 0.0
40 2 0.0061009189746918935 3.4823635664079418 0.0 0.0 0.0 0.0
41 1 0.6045855583933345 4.388341240490668 0.0 0.0 0.0 0.0
42 1 0.9918272821498366 3.8424300157063014 0.0 0.0 0.0 0.0
43 2 1.6570159929793489 4.690558485841665 0.0 0.0 0.0 0.0
44 2 2.859778020444048 4.396181245095993 0.0 0.0 0.0 0.0
45 2 3.9971190475936154 5.035652110475969 0.0 0.0 0.0 0.0
46 2 5.096815657792533 4.153700195232251 0.0 0.0 0.0 0.0
47 2 6.726648538549279 3.825931293569407 0.0 0.0 0.0 0.0
48 1 7.636106117328443 4.508354596240127 0.0 0.0 0.0 0.0
49 2 8.78020188869984 4.486926579598885 0.0 0.0 0.0 0.0
50 1 9.85456774274365 4.614384761810735 0.0 0.0 0.0 0.0
51 2 0.6675326118810698 5.470500113648705 0.0 0.0 0.0 0.0
52 1 1.724986391985319 5.7866172196169385 0.0 0.0 0.0 0.0
53 1 2.3407559018495747 5.523099915986293 0.0 0.0 0.0 0.0
54 1 2.989950911409476 5.4823959816842445 0.0 0.0 0.0 0.0
55 1 4.736988443058115 5.87372456570621 0.0 0.0 0.0 0.0
56 1 5.057935901243292 5.288522836725873 0.0 0.0 0.0 0.0
57 2 6.049479295885 4.873130626791616 0.0 0.0 0.0 0.0
58 1 7.124313130133501 4.912314843692 0.0 0.0 0.0 0.0
59 2 8.073892180720248 5.490775122662472 0.0 0.0 0.0 0.0
60 2 9.335099116173543 5.626861379290589 0.0 0.0 0.0 0.0
61 1 0.5756644200351688 6.558215435362462 0.0 0.0 0.0 0.0
62 1 1.3255478616971765 6.3209683869058875 0.0 0.0 0.0 0.0
63 2 2.432260485453851 6.630870446315514 0.0 0.0 0.0 0.0
64 2 3.699599961182761 6.280996422762768 0.0 0.0 0.0 0.0
65 1 4.773063715295554 6.542938412565344 0.0 0.0 0.0 0.0
66 2 5.834791882998417 6.127875791109364 0.0 0.0 0.0 0.0
67 1 6.453994121193716 7.038256547668353 0.0 0.0 0.0 0.0
68 1 6.883557062334594 5.533440694148546 0.0 0.0 0.0 0.0
69 2 8.59542906445831 6.664470339738061 0.0 0.0 0.0 0.0
70 1 9.743858444857834 6.65034717403853 0.0 0.0 0.0 0.0
71 1 0.2912326690656931 7.167636086861651 0.0 0.0 0.0 0.0
72 2 1.3409630495381824 7.383504666307184 0.0 0.0 0.0 0.0
73 1 2.3479352077325193 7.759854984028418 0.0 0.0 0.0 0.0
74 2 3.3924083503886635 7.500461353969271 0.0 0.0 0.0 0.0
75 1 4.393489329111896 7.118083745568827 0.0 0.0 0.0 0.0
76 2 5.406858128464203 7.427204130273828 0.0 0.0 0.0 0.0
77 1 7.033061051113697 7.446166279482871 0.0 0.0 0.0 0.0
78 2 7.376545721789744 6.462482126958931 0.0 0.0 0.0 0.0
79 1 7.744230992860316 7.505904814561236 0.0 0.0 0.0 0.0
80 2 9.239276225755173 7.690698322420607 0.0 0.0 0.0 0.0
81 2 0.4078336017706358 8.294599118750684 0.0 0.0 0.0 0.0
82 2 1.602357337950894 8.575508930746057 0.0 0.0 0.0 0.0
83 1 2.6856741784451414 8.34270717494347 0.0 0.0 0.0 0.0
84 1 3.3081032982480663 8.606535043380955 0.0 0.0 0.0 0.0
85 2 4.404216233990359 8.279507600620946 0.0 0.0 0.0 0.0
86 2 5.83459561375641 8.633169458708984 0.0 0.0 0.0 0.0
87 1 6.422561270595556 7.697891601068084 0.0 0.0 0.0 0.0
88 2 7.111766273603204 8.495710147157377 0.0 0.0 0.0 0.0
89 2 8.320997677570809 8.446733359813816 0.0 0.0 0.0 0.0
90 1 9.346457536072759 8.89794143588769 0.0 0.0 0.0 0.0
91 1 0.7739269922728527 9.327504610249381 0.0 0.0 0.0 0.0
92 1 1.362917291764846 9.634262555439014 0.0 0.0 0.0 0.0
93 2 2.4658899591081314 9.416607184448782 0.0 0.0 0.0 0.0
94 2 3.6622557836915037 9.636546028782362 0.0 0.0 0.0 0.0
95 2 4.91999085533797 9.482596269632845 0.0 0.0 0.0 0.0
96 1 6.03472182987607 9.756876895257173 0.0 0.0 0.0 0.0
97 1 6.604387618644712 9.428065093338226 0.0 0.0 0.0 0.0
98 2 7.716158465139616 9.520184273491324 0.0 0.0 0.0 0.0
99 1 8.856528458948274 9.391144486882071 0.0 0.0 0.0 0.0
100 2 9.784864114350027 0.10837579516493356 0.0 0.0 0.0 0.0
