ITEM: TIMESTEP
1
ITEM: NUMBER OF ATOMS
100
ITEM: BOX BOUNDS xy xz yz pp pp pp
0.0 9.88045 0.0
0.0 9.88045 0.0
0.0 10.0 0.0
ITEM: ATOMS id type x y z vx vy vz
1 1 1.254800204422423 0.03966267050932515 0.0 0.0 0.0 0.0
2 1 1.7457148354628174 0.5244762637577125 0.0 0.0 0.0 0.0
3 2 2.7602920725813913 1.0319392863118282 0.0 0.0 0.0 0.0
4 1 3.6848635623927417 0.44863477957898074 0.0 0.0 0.0 0.0
5 1 4.373745102681676 0.324340918125964 0.0 0.0 0.0 0.0
6 1 5.0942119490260795 0.20794909298712425 0.0 0.0 0.0 0.0
7 2 5.95767348922382 0.8779137337303641 0.0 0.0 0.0 0.0
8 2 7.107771063262442 0.4636506527642714 0.0 0.0 0.0 0.0
9 2 8.310134170892926 0.02714212325955052 0.0 0.0 0.0 0.0
10 2 9.493626810749273 0.35681646726908517 0.0 0.0 0.0 0.0
11 2 0.6871036429524746 0.954173292951984 0.0 0.0 0.0 0.0
12 1 1.70733660670207 1.2233648855162285 0.0 0.0 0.0 0.0
13 1 2.466998035120401 2.1458590909952253 0.0 0.0 0.0 0.0
14 2 3.9969526596026346 1.4494562658596952 0.0 0.0 0.0 0.0
15 1 4.862878429129663 0.8216595075785235 0.0 0.0 0.0 0.0
16 2 5.224668627532958 1.8774785098335947 0.0 0.0 0.0 0.0
17 1 6.819313728398149 1.5514045322722168 0.0 0.0 0.0 0.0
18 1 7.4789023529799685 1.5274566052244334 0.0 0.0 0.0 0.0
19 1 7.9903880302493935 1.0981317977828884 0.0 0.0 0.0 0.0
20 1 8.646681838303929 1.0582822335568016 0.0 0.0 0.0 0.0
21 2 0.7940043333234637 2.2003361023441443 0.0 0.0 0.0 0.0
22 1 1.8598360496736035 1.8654736081695185 0.0 0.0 0.0 0.0
23 1 3.1215985416165535 2.112586518019735 0.0 0.0 0.0 0.0
24 1 3.677398601133458 2.476916952519078 0.0 0.0 0.0 0.0
25 1 4.341606951623928 2.4698746879467017 0.0 0.0 0.0 0.0
26 1 6.0768736830938686 2.619620298168354 0.0 0.0 0.0 0.0
27 1 6.30083016621533 1.9699497382691433 0.0 0.0 0.0 0.0
28 2 7.192574822164819 2.616661323977136 0.0 0.0 0.0 0.0
29 2 8.390064321946078 2.134770711719598 0.0 0.0 0.0 0.0
30 2 9.550518984040272 1.631108581669841 0.0 0.0 0.0 0.0
31 2 0.6499790910066273 3.5343998855425554 0.0 0.0 0.0 0.0
32 2 1.7528925391294965 2.9694720322760646 0.0 0.0 0.0 0.0
33 2 2.9334429370118307 3.2538553020494008 0.0 0.0 0.0 0.0
34 1 3.972512009624078 3.682546493682966 0.0 0.0 0.0 0.0
35 1 4.030968556639292 3.0410152022952066 0.0 0.0 0.0 0.0
36 2 5.1355063110208015 3.21219850714502 0.0 0.0 0.0 0.0
37 1 6.243398133534467 3.2911638238716012 0.0 0.0 0.0 0.0
38 2 7.164393686739974 3.8908622520510927 0.0 0.0 0.0 0.0
39 2 8.305468254657868 3.379440063050993 0.0 0.0 0.0 0.0
40 2 9.47537679267661 2.8509399281866603 0.0 0.0 0.0 0.0
41 2 0.5917428088754636 4.797308229443135 0.0 0.0 0.0 0.0
42 2 1.7753629681668894 4.2284299892169095 0.0 0.0 0.0 0.0
43 1 2.8815266700821356 4.383366496953503 0.0 0.0 0.0 0.0
44 1 3.5334199916909226 4.170868595705469 0.0 0.0 0.0 0.0
45 2 4.7627650407213045 4.394228599484159 0.0 0.0 0.0 0.0
46 2 6.039518691833179 4.45668094333981 0.0 0.0 0.0 0.0
47 1 7.118819094524626 4.9775421770301325 0.0 0.0 0.0 0.0
48 1 7.5428787356044955 5.509623345933536 0.0 0.0 0.0 0.0
49 2 8.209567098263534 4.652436121837533 0.0 0.0 0.0 0.0
50 2 9.37469042961155 4.092469440242957 0.0 0.0 0.0 0.0
51 2 0.4958426553556889 6.118209260174671 0.0 0.0 0.0 0.0
52 2 1.6149154846302045 5.523753058046997 0.0 0.0 0.0 0.0
53 1 2.567862839895923 4.993603597970235 0.0 0.0 0.0 0.0
54 2 3.6254414303565965 5.2339632805407 0.0 0.0 0.0 0.0
55 1 4.687730186173182 5.441520354130984 0.0 0.0 0.0 0.0
56 1 5.369964865300656 5.379189678008533 0.0 0.0 0.0 0.0
57 1 6.607670648503471 5.407155512384816 0.0 0.0 0.0 0.0
58 1 7.030305339288316 5.940228254101723 0.0 0.0 0.0 0.0
59 1 8.203700691618792 5.75547989458699 0.0 0.0 0.0 0.0
60 2 9.325542314679769 5.3286605424285876 0.0 0.0 0.0 0.0
61 1 0.667476165313066 7.220735095179506 0.0 0.0 0.0 0.0
62 2 1.6885271971930331 6.801729518516155 0.0 0.0 0.0 0.0
63 2 2.7361549637497102 6.118530341594118 0.0 0.0 0.0 0.0
64 1 3.79162412273252 6.372825011530424 0.0 0.0 0.0 0.0
65 1 4.351441692771464 6.017632600273803 0.0 0.0 0.0 0.0
66 1 5.015115043169305 5.994134155394147 0.0 0.0 0.0 0.0
67 2 6.008906825845387 6.325941456386607 0.0 0.0 0.0 0.0
68 1 7.664847641820177 6.1707352271135285 0.0 0.0 0.0 0.0
69 1 8.712334134781894 6.1893570992624065 0.0 0.0 0.0 0.0
70 2 9.46430465606094 6.995995978352169 0.0 0.0 0.0 0.0
71 2 0.09686511452558241 8.174243893062538 0.0 0.0 0.0 0.0
72 1 1.1138299455085188 7.7325796153794375 0.0 0.0 0.0 0.0
73 2 2.202038064183389 8.017216867780688 0.0 0.0 0.0 0.0
74 2 3.348338826947429 7.384531529710677 0.0 0.0 0.0 0.0
75 1 4.220092180432884 8.078148070408277 0.0 0.0 0.0 0.0
76 2 4.691653978437243 7.034028972571091 0.0 0.0 0.0 0.0
77 1 5.762192753491105 7.407127563090725 0.0 0.0 0.0 0.0
78 2 6.979746194885262 7.0592314927864654 0.0 0.0 0.0 0.0
79 2 8.198311276239608 7.115227004686551 0.0 0.0 0.0 0.0
80 1 8.896260414761208 7.939859771319658 0.0 0.0 0.0 0.0
81 1 0.13476090014076217 9.262617700020915 0.0 0.0 0.0 0.0
82 2 1.1957677860094713 8.82650982150542 0.0 0.0 0.0 0.0
83 1 2.259196330683042 9.135405074237454 0.0 0.0 0.0 0.0
84 2 3.301424446271272 8.751884060153849 0.0 0.0 0.0 0.0
85 1 4.909746980149438 8.063085397911156 0.0 0.0 0.0 0.0
86 1 5.486597665449212 8.383600912678734 0.0 0.0 0.0 0.0
87 2 6.527978160714012 8.199693679399784 0.0 0.0 0.0 0.0
88 1 7.603261982695238 8.031556702077362 0.0 0.0 0.0 0.0
89 1 8.261430012155174 8.20274649540772 0.0 0.0 0.0 0.0
90 1 8.97271296083338 8.595282193337322 0.0 0.0 0.0 0.0
91 1 0.6002327775259392 9.744412993550212 0.0 0.0 0.0 0.0
92 1 1.8869615932600698 9.717724862648037 0.0 0.0 0.0 0.0
93 1 2.5490730452407853 9.7515003682532 0.0 0.0 0.0 0.0
94 1 3.1926578969287998 9.875492433796351 0.0 0.0 0.0 0.0
95 1 3.832565382983322 9.70596626544085 0.0 0.0 0.0 0.0
96 2 4.684164610585685 9.102560500851895 0.0 0.0 0.0 0.0
97 2 5.986143004873007 9.408775160912617 0.0 0.0 0.0 0.0
98 2 7.328398821538111 9.113414873218163 0.0 0.0 0.0 0.0
99 1 8.373460099378665 8.84740618519651 0.0 0.0 0.0 0.0
100 1 9.333334386018603 9.155350960621437 0.0 0.0 0.0 0.0
