ITEM: TIMESTEP
1
ITEM: NUMBER OF ATOMS
100
ITEM: BOX BOUNDS xy xz yz pp pp pp
0.0 9.88045 0.0
0.0 9.88045 0.0
0.0 10.0 0.0
ITEM: ATOMS id type x y z vx vy vz
1 1 0.2223149659139942 0.3814094214754823 0.0 0.0 0.0 0.0
2 1 0.8809429055403958 0.27858034223942 0.0 0.0 0.0 0.0
3 1 2.6724099497774807 0.44282386303110577 0.0 0.0 0.0 0.0
4 2 3.7744102017811922 0.6204439910954356 0.0 0.0 0.0 0.0
5 2 5.092901145149163 0.7084418731636974 0.0 0.0 0.0 0.0
6 1 6.09163361563354 0.2745565663748119 0.0 0.0 0.0 0.0
7 1 6.742608216890807 0.3759667983722491 0.0 0.0 0.0 0.0
8 1 7.378272092085211 0.09246287043024215 0.0 0.0 0.0 0.0
9 2 8.436718262890777 0.4016623952821843 0.0 0.0 0.0 0.0
10 1 9.491197184529522 0.16588260634825186 0.0 0.0 0.0 0.0
11 1 0.6282652364384058 0.8915526466585735 0.0 0.0 0.0 0.0
12 2 1.7063903192754377 0.9463862626148642 0.0 0.0 0.0 0.0
13 1 2.797449909771567 1.100506510295718 0.0 0.0 0.0 0.0
14 2 3.452188382247664 1.9882427677147478 0.0 0.0 0.0 0.0
15 1 4.451476391868562 1.557341413182315 0.0 0.0 0.0 0.0
16 1 5.155911401805073 1.7697477809070998 0.0 0.0 0.0 0.0
17 2 6.187491673151683 1.3524853465852014 0.0 0.0 0.0 0.0
18 2 7.431062144585369 1.1696273418587753 0.0 0.0 0.0 0.0
19 1 8.438957832227784 1.5436447743846298 0.0 0.0 0.0 0.0
20 2 9.495946461519791 1.3069517623849465 0.0 0.0 0.0 0.0
21 2 0.7656114536617881 1.9459883550311436 0.0 0.0 0.0 0.0
22 1 1.467355927717253 2.7851427525899863 0.0 0.0 0.0 0.0
23 2 2.21247722828568 2.0163040052421093 0.0 0.0 0.0 0.0
24 1 3.5572761283067504 3.0897992960992733 0.0 0.0 0.0 0.0
25 2 4.5437624150939495 2.6401420074542767 0.0 0.0 0.0 0.0
26 1 5.579564354973969 2.2969649687118348 0.0 0.0 0.0 0.0
27 1 6.228735310694765 2.4301643102167323 0.0 0.0 0.0 0.0
28 2 6.882936347235104 3.2618421302192844 0.0 0.0 0.0 0.0
29 2 7.632222708744046 2.3329300018971817 0.0 0.0 0.0 0.0
30 2 8.84401316345733 2.5657522554714145 0.0 0.0 0.0 0.0
31 1 0.8620693831889897 3.0233795559221432 0.0 0.0 0.0 0.0
32 2 1.5082309886463896 3.8873180926153195 0.0 0.0 0.0 0.0
33 2 2.46984173186081 3.184856687058985 0.0 0.0 0.0 0.0
34 1 3.355426463887196 3.7285200535574203 0.0 0.0 0.0 0.0
35 2 4.409598801259747 3.819326201976829 0.0 0.0 0.0 0.0
36 2 5.630678271416945 3.4242395125802267 0.0 0.0 0.0 0.0
37 1 6.451475595348875 4.228753786162602 0.0 0.0 0.0 0.0
38 1 7.69697748930449 3.9755751708026392 0.0 0.0 0.0 0.0
39 1 8.000653160856867 3.353196734385172 0.0 0.0 0.0 0.0
40 2 9.7500155257118 3.380757520369612 0.0 0.0 0.0 0.0
41 1 0.5274007566481554 4.298709375089675 0.0 0.0 0.0 0.0
42 2 1.5723599852952497 5.08602823275188 0.0 0.0 0.0 0.0
43 1 2.5035768250424204 4.392065965439552 0.0 0.0 0.0 0.0
44 2 3.5697570338377766 4.763269463941172 0.0 0.0 0.0 0.0
45 1 4.641901629526202 4.8739558652353745 0.0 0.0 0.0 0.0
46 1 5.216292347536389 4.495876112127646 0.0 0.0 0.0 0.0
47 1 5.8677691684100886 4.5183951917192875 0.0 0.0 0.0 0.0
48 1 7.124794248401472 4.320830764907979 0.0 0.0 0.0 0.0
49 2 8.757933577794352 4.1254327692214625 0.0 0.0 0.0 0.0
50 1 9.771018199965994 4.459841023853589 0.0 0.0 0.0 0.0
51 2 0.4234079645986968 5.385941025581848 0.0 0.0 0.0 0.0
52 1 1.2113184777935526 6.126128450227948 0.0 0.0 0.0 0.0
53 2 2.6656011718194343 5.534151217969179 0.0 0.0 0.0 0.0
54 2 3.382701534633178 6.478364516660607 0.0 0.0 0.0 0.0
55 1 4.3546741744992365 5.500700909662103 0.0 0.0 0.0 0.0
56 2 5.46632840232198 5.544982055288639 0.0 0.0 0.0 0.0
57 2 6.651704283136274 5.293576456457204 0.0 0.0 0.0 0.0
58 2 7.9195873129975265 5.079111546427593 0.0 0.0 0.0 0.0
59 1 8.468464055047342 6.1489260613480115 0.0 0.0 0.0 0.0
60 2 9.127868639555599 5.339549878807471 0.0 0.0 0.0 0.0
61 1 0.6081304970762852 6.4191933517438695 0.0 0.0 0.0 0.0
62 1 1.8594506299740687 6.235701889548848 0.0 0.0 0.0 0.0
63 1 2.3288600373628703 6.721821668287472 0.0 0.0 0.0 0.0
64 1 3.1750550340608763 7.580715416848174 0.0 0.0 0.0 0.0
65 1 4.4479626971284665 6.153740130542352 0.0 0.0 0.0 0.0
66 1 5.019673418790291 6.492818249269506 0.0 0.0 0.0 0.0
67 1 6.215994679821979 6.319499972902936 0.0 0.0 0.0 0.0
68 2 7.422812567764034 6.211591904448383 0.0 0.0 0.0 0.0
69 1 9.054868128417931 6.4740932207749236 0.0 0.0 0.0 0.0
70 1 9.749698584575263 6.361774479169607 0.0 0.0 0.0 0.0
71 1 0.2411821859285467 6.947182990289227 0.0 0.0 0.0 0.0
72 2 1.3450628972850391 7.214966149720025 0.0 0.0 0.0 0.0
73 1 2.4959130508817546 7.407690929794801 0.0 0.0 0.0 0.0
74 1 3.6239478346395897 8.103654907371942 0.0 0.0 0.0 0.0
75 2 4.274005612268479 7.246872186504231 0.0 0.0 0.0 0.0
76 2 5.597481378587469 7.384471976995817 0.0 0.0 0.0 0.0
77 2 6.806515797476304 7.202605430269945 0.0 0.0 0.0 0.0
78 1 7.890047400078015 7.222542659531398 0.0 0.0 0.0 0.0
79 1 8.426013783331213 6.806966568855158 0.0 0.0 0.0 0.0
80 1 9.463949126900278 7.0034722538479866 0.0 0.0 0.0 0.0
81 2 0.148135082419475 8.00545240531048 0.0 0.0 0.0 0.0
82 2 1.4065459327254568 8.41820334900475 0.0 0.0 0.0 0.0
83 2 2.6456894651266474 8.584816600748063 0.0 0.0 0.0 0.0
84 1 3.7313610492272637 8.765274290756318 0.0 0.0 0.0 0.0
85 2 4.730722218047423 8.329158569005095 0.0 0.0 0.0 0.0
86 1 5.812329937256438 8.447095051820366 0.0 0.0 0.0 0.0
87 1 6.402444051390428 8.16567143635294 0.0 0.0 0.0 0.0
88 1 7.095932761468868 8.229964221210869 0.0 0.0 0.0 0.0
89 1 7.679792866406654 7.8835178796054795 0.0 0.0 0.0 0.0
90 2 8.777988542457297 7.847934409294542 0.0 0.0 0.0 0.0
91 2 0.4388249693841983 9.197007048984267 0.0 0.0 0.0 0.0
92 2 1.8153976790430937 9.58768132480401 0.0 0.0 0.0 0.0
93 1 2.901727010065879 9.70258345104781 0.0 0.0 0.0 0.0
94 1 3.4686253354670513 9.378597545642924 0.0 0.0 0.0 0.0
95 2 4.541126903979713 9.517727131433487 0.0 0.0 0.0 0.0
96 1 5.533533669183281 9.03876154184052 0.0 0.0 0.0 0.0
97 1 5.639775544741989 9.67619064499545 0.0 0.0 0.0 0.0
98 2 6.625277232329154 9.199168132938304 0.0 0.0 0.0 0.0
99 2 7.876886954064445 8.989539276147783 0.0 0.0 0.0 0.0
100 2 9.101826921269385 9.041271736857801 0.0 0.0 0.0 0.0
