ITEM: TIMESTEP
1
ITEM: NUMBER OF ATOMS
100
ITEM: BOX BOUNDS xy xz yz pp pp pp
0.0 9.88045 0.0
0.0 9.88045 0.0
0.0 10.0 0.0
ITEM: ATOMS id type x y z vx vy vz
1 1 1.0113485460305471 0.30878044115947123 0.0 0.0 0.0 0.0
2 1 1.6626043879278167 0.13467322835309234 0.0 0.0 0.0 0.0
3 2 2.6813499307457844 0.4426516526619325 0.0 0.0 0.0 0.0
4 1 3.381730070245947 9.512519899995384 0.0 0.0 0.0 0.0
5 2 4.259406610317676 0.3135994384399288 0.0 0.0 0.0 0.0
6 2 6.375337849956395 0.5429562320476483 0.0 0.0 0.0 0.0
7 1 7.566100556796075 0.26257571087757237 0.0 0.0 0.0 0.0
8 1 8.415963593871739 0.07051564721892208 0.0 0.0 0.0 0.0
9 2 9.294823307597039 0.7495988779509832 0.0 0.0 0.0 0.0
10 1 0.3503046295178045 0.2145297072964748 0.0 0.0 0.0 0.0
11 1 0.5784216434085044 0.8254223780125097 0.0 0.0 0.0 0.0
12 2 1.6805293695511898 1.1906285515985113 0.0 0.0 0.0 0.0
13 1 2.389906815726844 2.031497248061745 0.0 0.0 0.0 0.0
14 2 3.5253986477559787 1.3035967646114623 0.0 0.0 0.0 0.0
15 2 5.220842269621298 1.106789910126796 0.0 0.0 0.0 0.0
16 1 6.240496253211753 1.624251783529317 0.0 0.0 0.0 0.0
17 2 7.2793049074122065 1.3521389352895363 0.0 0.0 0.0 0.0
18 1 8.134265857434672 0.6679052637124382 0.0 0.0 0.0 0.0
19 1 8.350191105269738 1.3058388788804003 0.0 0.0 0.0 0.0
20 1 9.498084232565285 1.8524314781726667 0.0 0.0 0.0 0.0
21 2 0.6813975591503542 1.8769559483003673 0.0 0.0 0.0 0.0
22 1 1.261436324524003 2.781042363822705 0.0 0.0 0.0 0.0
23 1 1.714779389864459 2.265547671205501 0.0 0.0 0.0 0.0
24 2 3.391860234370477 2.4939797466963047 0.0 0.0 0.0 0.0
25 1 4.410112739185254 1.9550466815551166 0.0 0.0 0.0 0.0
26 2 5.445821894649379 2.3256252306651612 0.0 0.0 0.0 0.0
27 2 6.717723244416182 2.665172153597443 0.0 0.0 0.0 0.0
28 2 7.953020791555469 2.3669625251045687 0.0 0.0 0.0 0.0
29 1 8.843041958243747 1.741097412744581 0.0 0.0 0.0 0.0
30 1 9.07223951881548 2.3615897950473035 0.0 0.0 0.0 0.0
31 2 0.11902613979640732 2.9488295018348274 0.0 0.0 0.0 0.0
32 2 1.1665166275556078 3.8590455602309293 0.0 0.0 0.0 0.0
33 2 2.2965134351448095 3.160494790236328 0.0 0.0 0.0 0.0
34 2 3.4087599824493036 3.7071196688599066 0.0 0.0 0.0 0.0
35 2 4.499891256652838 3.0879639800381113 0.0 0.0 0.0 0.0
36 2 5.743308813107133 3.507401520366153 0.0 0.0 0.0 0.0
37 1 6.82883722420265 3.8079194260281466 0.0 0.0 0.0 0.0
38 2 7.928695667445108 3.6138568366806694 0.0 0.0 0.0 0.0
39 1 8.847362229832953 2.9767976981602766 0.0 0.0 0.0 0.0
40 1 9.069248090066434 3.5835046088947964 0.0 0.0 0.0 0.0
41 2 0.36655617348635117 4.802579737160278 0.0 0.0 0.0 0.0
42 1 1.4369977627294293 4.939810013956338 0.0 0.0 0.0 0.0
43 2 2.368511481382784 4.391569675084461 0.0 0.0 0.0 0.0
44 2 3.586656339751609 4.908657747672463 0.0 0.0 0.0 0.0
45 1 4.392978519538996 4.171283076897004 0.0 0.0 0.0 0.0
46 2 5.338856341557677 4.664308759477693 0.0 0.0 0.0 0.0
47 1 6.4224383667398826 4.362807358306742 0.0 0.0 0.0 0.0
48 2 7.429881418097411 4.794026517318027 0.0 0.0 0.0 0.0
49 2 8.728796413982806 4.59896450569625 0.0 0.0 0.0 0.0
50 1 9.617181933658127 3.952360718051018 0.0 0.0 0.0 0.0
51 1 0.6081418649939239 5.8324264504138945 0.0 0.0 0.0 0.0
52 1 1.2499983687155813 5.587723430792061 0.0 0.0 0.0 0.0
53 1 1.9169261056490106 5.410788987047785 0.0 0.0 0.0 0.0
54 1 2.597575226559272 5.447205950547515 0.0 0.0 0.0 0.0
55 2 4.669776484644534 5.717752758086275 0.0 0.0 0.0 0.0
56 1 5.591212552329555 6.3841928646079005 0.0 0.0 0.0 0.0
57 2 6.243792614819567 5.45661840493971 0.0 0.0 0.0 0.0
58 2 7.29577849148317 6.072394659648477 0.0 0.0 0.0 0.0
59 1 8.246888237917664 5.5522313788319675 0.0 0.0 0.0 0.0
60 2 9.366384957437397 5.672540348069491 0.0 0.0 0.0 0.0
61 2 0.0813999874631249 6.764613785208183 0.0 0.0 0.0 0.0
62 1 1.116233124699706 6.248450122800677 0.0 0.0 0.0 0.0
63 2 2.2006107029101947 6.472355544763783 0.0 0.0 0.0 0.0
64 2 3.463988251038078 6.098910346146041 0.0 0.0 0.0 0.0
65 1 4.6586626393452235 7.360497489007355 0.0 0.0 0.0 0.0
66 1 4.982827998280998 6.756827033964147 0.0 0.0 0.0 0.0
67 1 6.282636835729998 6.537628134876214 0.0 0.0 0.0 0.0
68 1 6.768577042920718 7.02127557308221 0.0 0.0 0.0 0.0
69 2 7.8733062262594435 7.174746946549472 0.0 0.0 0.0 0.0
70 1 8.386029326727346 6.197831128063048 0.0 0.0 0.0 0.0
71 1 9.8608240126187 8.383675722775202 0.0 0.0 0.0 0.0
72 1 0.28173536356548745 7.8051779712505 0.0 0.0 0.0 0.0
73 2 1.2791404069434806 7.3091892202105955 0.0 0.0 0.0 0.0
74 2 3.215272858350194 7.261256285466247 0.0 0.0 0.0 0.0
75 1 4.290439812878456 6.8029490259894 0.0 0.0 0.0 0.0
76 2 5.786102746303849 7.499237487946879 0.0 0.0 0.0 0.0
77 1 6.587511328445423 8.25537414986784 0.0 0.0 0.0 0.0
78 1 6.911916943281195 7.681912664317255 0.0 0.0 0.0 0.0
79 1 8.042702349494204 8.237881640672526 0.0 0.0 0.0 0.0
80 1 8.865022359092308 6.64961874847667 0.0 0.0 0.0 0.0
81 1 0.11033064837855545 9.01514833026087 0.0 0.0 0.0 0.0
82 2 1.1135133501696166 8.504879839760472 0.0 0.0 0.0 0.0
83 1 2.21998623576861 7.941817383357039 0.0 0.0 0.0 0.0
84 1 4.171805673694882 7.839751762762683 0.0 0.0 0.0 0.0
85 1 4.829233246311901 8.009832272516178 0.0 0.0 0.0 0.0
86 1 5.320558570843722 8.487988890981288 0.0 0.0 0.0 0.0
87 1 5.984830916563603 8.593973359458321 0.0 0.0 0.0 0.0
88 1 7.3359703122696995 8.253429097642105 0.0 0.0 0.0 0.0
89 1 7.7912187158418025 8.844354117690386 0.0 0.0 0.0 0.0
90 2 9.022503274116755 7.713837481709282 0.0 0.0 0.0 0.0
91 1 0.5675527697957469 9.480695850882364 0.0 0.0 0.0 0.0
92 1 1.2173377434839292 9.555011052143412 0.0 0.0 0.0 0.0
93 2 2.232129368092718 9.099670032523944 0.0 0.0 0.0 0.0
94 2 3.2429499801376793 8.442833076246243 0.0 0.0 0.0 0.0
95 2 4.3445409990639225 8.968597868792589 0.0 0.0 0.0 0.0
96 2 5.452753680465326 9.585728242286011 0.0 0.0 0.0 0.0
97 2 6.820250226319028 9.300936544172691 0.0 0.0 0.0 0.0
98 1 7.897587994662499 9.525917208481076 0.0 0.0 0.0 0.0
99 2 8.886960464282176 8.966237895508979 0.0 0.0 0.0 0.0
100 1 9.754212151922523 9.633802180718392 0.0 0.0 0.0 0.0
