ITEM: TIMESTEP
1
ITEM: NUMBER OF ATOMS
100
ITEM: BOX BOUNDS xy xz yz pp pp pp
0.0 9.88045 0.0
0.0 9.88045 0.0
0.0 10.0 0.0
ITEM: ATOMS id type x y z vx vy vz
1 2 0.50094414544711 0.42211813643784096 0.0 0.0 0.0 0.0
2 2 1.742866580732225 0.21854914100673314 0.0 0.0 0.0 0.0
3 1 2.773253840410537 0.5831130936573342 0.0 0.0 0.0 0.0
4 2 3.838379326461844 0.4330982973797144 0.0 0.0 0.0 0.0
5 1 4.9063727072704655 0.5321213258598401 0.0 0.0 0.0 0.0
6 1 5.553061140147616 0.459266774289893 0.0 0.0 0.0 0.0
7 1 6.784509762771502 0.7458737608850481 0.0 0.0 0.0 0.0
8 1 7.253736711594412 0.2945718066996115 0.0 0.0 0.0 0.0
9 2 8.312329740246678 0.25098666143108617 0.0 0.0 0.0 0.0
10 1 9.32445403574721 0.8284141461460578 0.0 0.0 0.0 0.0
11 1 0.19792822765502915 1.5193493523558375 0.0 0.0 0.0 0.0
12 2 1.285953219986691 1.368255460458652 0.0 0.0 0.0 0.0
13 1 2.3636703049842773 1.113561233320961 0.0 0.0 0.0 0.0
14 2 3.3450226937133487 1.6015328641435977 0.0 0.0 0.0 0.0
15 2 4.5809318400365004 1.5682557661998706 0.0 0.0 0.0 0.0
16 1 5.568415661002963 1.1330155248804472 0.0 0.0 0.0 0.0
17 1 6.1294000708909016 0.7670993934976214 0.0 0.0 0.0 0.0
18 2 7.690071762768596 1.3642958414631292 0.0 0.0 0.0 0.0
19 1 8.783767486560489 1.2306635996184654 0.0 0.0 0.0 0.0
20 1 9.403549681615841 1.490558380534115 0.0 0.0 0.0 0.0
21 2 0.8061416508948634 2.4909454146066996 0.0 0.0 0.0 0.0
22 1 1.8826559460772172 2.2985809845750276 0.0 0.0 0.0 0.0
23 1 2.2870083494746813 1.7789450464203551 0.0 0.0 0.0 0.0
24 1 2.5500610135488415 2.4027891721557144 0.0 0.0 0.0 0.0
25 2 4.02000795546843 2.692749423238542 0.0 0.0 0.0 0.0
26 1 5.42758924571021 2.2711466590629974 0.0 0.0 0.0 0.0
27 2 6.4640995561085965 1.790337738647821 0.0 0.0 0.0 0.0
28 2 7.45263558112376 2.6436404126918926 0.0 0.0 0.0 0.0
29 2 8.632605632869703 2.313741133945066 0.0 0.0 0.0 0.0
30 1 9.694557386496104 2.0889180659052227 0.0 0.0 0.0 0.0
31 1 0.3248901015801448 4.080932561234883 0.0 0.0 0.0 0.0
32 1 0.698848236289112 3.550412506293237 0.0 0.0 0.0 0.0
33 2 1.7646029026877748 3.3684675820561405 0.0 0.0 0.0 0.0
34 2 2.987681166241782 3.392788194753426 0.0 0.0 0.0 0.0
35 2 4.056401143208443 4.030904942241863 0.0 0.0 0.0 0.0
36 2 5.09740155532049 3.344049787078586 0.0 0.0 0.0 0.0
37 2 6.272070252195666 2.9827766584515847 0.0 0.0 0.0 0.0
38 1 7.112361067326936 3.704707561441015 0.0 0.0 0.0 0.0
39 2 8.219114082675656 3.7116849193982944 0.0 0.0 0.0 0.0
40 2 9.533986667325483 3.1971216555267676 0.0 0.0 0.0 0.0
41 1 0.5670274471513229 4.706586751809563 0.0 0.0 0.0 0.0
42 1 0.9752667884636891 4.161070743202443 0.0 0.0 0.0 0.0
43 2 1.9344378905284636 4.615003897097228 0.0 0.0 0.0 0.0
44 1 3.0151809012253334 4.473467049592758 0.0 0.0 0.0 0.0
45 2 4.460312213904992 5.366074638980321 0.0 0.0 0.0 0.0
46 1 5.063997723158491 4.46036974591757 0.0 0.0 0.0 0.0
47 2 6.104975010648773 4.177787838618903 0.0 0.0 0.0 0.0
48 2 7.152567101991662 4.814702926797938 0.0 0.0 0.0 0.0
49 1 8.232322499383242 4.878363424750927 0.0 0.0 0.0 0.0
50 2 9.229429396933252 4.463000018103154 0.0 0.0 0.0 0.0
51 1 0.14845805797106817 5.233574969406004 0.0 0.0 0.0 0.0
52 2 1.2039065455373057 5.611746885124318 0.0 0.0 0.0 0.0
53 1 2.8624121907348634 5.144801621610217 0.0 0.0 0.0 0.0
54 1 3.4829268707199907 4.938795779571329 0.0 0.0 0.0 0.0
55 1 4.534328111230299 6.416372086318996 0.0 0.0 0.0 0.0
56 1 5.168582053638394 6.262015261875413 0.0 0.0 0.0 0.0
57 2 5.749556580024051 5.358656618778038 0.0 0.0 0.0 0.0
58 1 6.724217069344153 5.823198950436999 0.0 0.0 0.0 0.0
59 2 7.7996798820495 5.917254826028192 0.0 0.0 0.0 0.0
60 2 9.012847367335837 5.684319014345768 0.0 0.0 0.0 0.0
61 2 0.19237317259000825 6.332899727017243 0.0 0.0 0.0 0.0
62 2 2.379710437782413 6.114107825136618 0.0 0.0 0.0 0.0
63 1 3.36309014697195 5.596912657732905 0.0 0.0 0.0 0.0
64 1 3.5749412869958657 6.225304966179227 0.0 0.0 0.0 0.0
65 1 3.981607684229007 6.760098861480935 0.0 0.0 0.0 0.0
66 1 5.805194290073279 6.471980680104076 0.0 0.0 0.0 0.0
67 1 6.488400081797352 6.4408197603269945 0.0 0.0 0.0 0.0
68 1 7.089554278314101 6.7853819461917375 0.0 0.0 0.0 0.0
69 1 7.770778202562779 6.99668886039307 0.0 0.0 0.0 0.0
70 2 8.90898893285896 6.960943507746527 0.0 0.0 0.0 0.0
71 2 1.327131585356284 6.9439270845739385 0.0 0.0 0.0 0.0
72 2 2.1033610043662936 8.023529566755485 0.0 0.0 0.0 0.0
73 2 2.99271291578021 7.188090052543031 0.0 0.0 0.0 0.0
74 1 4.0573336281911825 7.423923738997651 0.0 0.0 0.0 0.0
75 1 4.608240595445781 7.06030016863577 0.0 0.0 0.0 0.0
76 1 5.260676756360682 6.927136180256732 0.0 0.0 0.0 0.0
77 2 6.182291690852849 7.502492223426185 0.0 0.0 0.0 0.0
78 1 7.267625150632719 7.443002668473841 0.0 0.0 0.0 0.0
79 2 8.204119405562455 8.002136553093624 0.0 0.0 0.0 0.0
80 1 0.07644579227425119 7.402783905912175 0.0 0.0 0.0 0.0
81 2 0.8777387883306205 8.14931237489184 0.0 0.0 0.0 0.0
82 1 1.6429265616294393 9.000395062424323 0.0 0.0 0.0 0.0
83 1 3.1583962559103895 8.299613276375082 0.0 0.0 0.0 0.0
84 1 3.7640884251693523 8.009794946519063 0.0 0.0 0.0 0.0
85 2 4.932509491649912 8.083086490406963 0.0 0.0 0.0 0.0
86 1 5.920186364010857 8.565831611488145 0.0 0.0 0.0 0.0
87 1 6.595991359565209 8.5257128664817 0.0 0.0 0.0 0.0
88 1 7.120068974270886 8.115543531356593 0.0 0.0 0.0 0.0
89 1 7.869103148872476 9.047875367336875 0.0 0.0 0.0 0.0
90 2 9.440888835327994 8.37032312006268 0.0 0.0 0.0 0.0
91 1 0.41406717882580507 9.114118400310009 0.0 0.0 0.0 0.0
92 1 1.040598976305634 9.282037585341083 0.0 0.0 0.0 0.0
93 2 2.7154211544111044 9.320673870920487 0.0 0.0 0.0 0.0
94 2 3.946619511533913 9.071260165030179 0.0 0.0 0.0 0.0
95 2 5.1341919633274555 9.335100812210374 0.0 0.0 0.0 0.0
96 2 6.341680097486175 9.579471177317739 0.0 0.0 0.0 0.0
97 1 7.2262810232974335 8.812723598677723 0.0 0.0 0.0 0.0
98 1 7.407830522409031 9.511127030419084 0.0 0.0 0.0 0.0
99 1 8.525442877159975 9.02556055777545 0.0 0.0 0.0 0.0
100 2 9.387671316865084 9.632973191319588 0.0 0.0 0.0 0.0
