ITEM: TIMESTEP
1
ITEM: NUMBER OF ATOMS
100
ITEM: BOX BOUNDS xy xz yz pp pp pp
0.0 9.88045 0.0
0.0 9.88045 0.0
0.0 10.0 0.0
ITEM: ATOMS id type x y z vx vy vz
1 1 9.61650829046528 0.5610480598665497 0.0 0.0 0.0 0.0
2 2 0.8325874107112932 0.7750562683881415 0.0 0.0 0.0 0.0
3 2 2.1221161017205805 0.5900746270389038 0.0 0.0 0.0 0.0
4 2 4.181773059844279 0.09355299311090863 0.0 0.0 0.0 0.0
5 1 4.922397032805368 0.9079275358059697 0.0 0.0 0.0 0.0
6 1 5.256787629095201 0.3463615453081875 0.0 0.0 0.0 0.0
7 1 5.813457160701087 9.85618460330621 0.0 0.0 0.0 0.0
8 1 6.48162419608579 9.85986952060982 0.0 0.0 0.0 0.0
9 1 8.282415165854408 0.4749069953302694 0.0 0.0 0.0 0.0
10 1 8.954184531974919 0.658773779670648 0.0 0.0 0.0 0.0
11 1 9.747981055157474 1.2475443214379345 0.0 0.0 0.0 0.0
12 1 1.588769377901377 1.561308249400242 0.0 0.0 0.0 0.0
13 2 2.692436261173575 1.6571187923057025 0.0 0.0 0.0 0.0
14 1 3.253720808204071 0.7253489028118599 0.0 0.0 0.0 0.0
15 2 4.007509738698892 1.5160881476313204 0.0 0.0 0.0 0.0
16 1 5.136904152519145 1.5255361581231777 0.0 0.0 0.0 0.0
17 2 6.104452518180074 1.0259231126874115 0.0 0.0 0.0 0.0
18 2 7.367631407254257 1.084103580822624 0.0 0.0 0.0 0.0
19 1 8.455643340973435 1.094461844563395 0.0 0.0 0.0 0.0
20 1 9.087219378455954 1.3011409428582017 0.0 0.0 0.0 0.0
21 2 0.6194031671475766 2.114606482501371 0.0 0.0 0.0 0.0
22 1 1.7327079895696083 2.2123217713555055 0.0 0.0 0.0 0.0
23 1 2.2411972505878155 2.6578280133370438 0.0 0.0 0.0 0.0
24 2 3.3359514930903766 2.668935126880066 0.0 0.0 0.0 0.0
25 1 4.410299136612003 2.5435293224083817 0.0 0.0 0.0 0.0
26 1 4.9213519925354285 2.142112793480836 0.0 0.0 0.0 0.0
27 1 5.579054259073579 2.0335933007710754 0.0 0.0 0.0 0.0
28 2 6.649840290682462 2.1470226559403596 0.0 0.0 0.0 0.0
29 2 8.372240622730844 2.1392689861644887 0.0 0.0 0.0 0.0
30 1 9.445418192522661 1.8524233524288574 0.0 0.0 0.0 0.0
31 2 0.05103722823175913 3.4643328745424538 0.0 0.0 0.0 0.0
32 2 1.3148622955763465 3.2268515126076953 0.0 0.0 0.0 0.0
33 1 2.4443033685699707 3.303877844976359 0.0 0.0 0.0 0.0
34 2 4.127196323658577 3.577407267630478 0.0 0.0 0.0 0.0
35 1 5.000260551946247 4.202879906192628 0.0 0.0 0.0 0.0
36 2 5.360375414745671 3.137988923618574 0.0 0.0 0.0 0.0
37 1 6.46433509540681 3.2435381602936753 0.0 0.0 0.0 0.0
38 2 7.516477955462377 3.0003094924253357 0.0 0.0 0.0 0.0
39 2 8.691981339141677 3.3239291129153075 0.0 0.0 0.0 0.0
40 1 9.4315966550177 2.508736043891397 0.0 0.0 0.0 0.0
41 1 9.682360690312407 4.5338226857493575 0.0 0.0 0.0 0.0
42 2 0.8791676552746198 4.382905002902513 0.0 0.0 0.0 0.0
43 2 2.1332341845109153 4.343428320804733 0.0 0.0 0.0 0.0
44 2 3.3631425638673487 4.556097485720964 0.0 0.0 0.0 0.0
45 1 4.474102476119956 4.5954392842112615 0.0 0.0 0.0 0.0
46 1 5.648295738968473 4.200007044055975 0.0 0.0 0.0 0.0
47 1 6.2071540977096555 3.854202381176883 0.0 0.0 0.0 0.0
48 2 7.236987598803689 4.171236735539389 0.0 0.0 0.0 0.0
49 1 8.375734221367049 4.39170708915355 0.0 0.0 0.0 0.0
50 1 9.063819938166306 4.315562755256117 0.0 0.0 0.0 0.0
51 2 0.2978196971466159 5.497373136170037 0.0 0.0 0.0 0.0
52 2 1.5149680738186138 5.433504711283891 0.0 0.0 0.0 0.0
53 2 2.727156648326342 5.66477216365854 0.0 0.0 0.0 0.0
54 2 4.118748001025185 5.59380014381705 0.0 0.0 0.0 0.0
55 2 5.362921017814732 5.261916964093763 0.0 0.0 0.0 0.0
56 1 6.209431356746717 4.541251059117682 0.0 0.0 0.0 0.0
57 2 6.839372360987196 5.418498185605273 0.0 0.0 0.0 0.0
58 2 7.91511165802154 5.99450947838929 0.0 0.0 0.0 0.0
59 1 7.974024003678468 4.932510428940981 0.0 0.0 0.0 0.0
60 2 8.968270227845263 5.392356027732728 0.0 0.0 0.0 0.0
61 2 0.73118672182289 6.647807643693915 0.0 0.0 0.0 0.0
62 1 1.8551993383331984 6.4387082039145 0.0 0.0 0.0 0.0
63 1 2.437544201045633 6.753514704803972 0.0 0.0 0.0 0.0
64 2 3.5069909777407315 6.626211967058724 0.0 0.0 0.0 0.0
65 2 4.764169070791508 6.696939450810847 0.0 0.0 0.0 0.0
66 2 5.965102707408742 6.348336149648167 0.0 0.0 0.0 0.0
67 1 7.015618026358741 6.567588456737579 0.0 0.0 0.0 0.0
68 1 6.760869955447063 7.182237157238796 0.0 0.0 0.0 0.0
69 1 8.859030282273723 6.505677149472259 0.0 0.0 0.0 0.0
70 1 9.520775676932393 6.371630543800646 0.0 0.0 0.0 0.0
71 1 0.553338640323555 7.7331233852862225 0.0 0.0 0.0 0.0
72 2 1.6370498525901072 7.499248629876735 0.0 0.0 0.0 0.0
73 1 2.7305142407762015 7.3739538077370534 0.0 0.0 0.0 0.0
74 1 4.022699711872032 7.5522989840120465 0.0 0.0 0.0 0.0
75 1 4.635826081573342 7.790068050062738 0.0 0.0 0.0 0.0
76 2 5.718891450308141 7.571277806357127 0.0 0.0 0.0 0.0
77 2 7.095125788787025 8.232096871408338 0.0 0.0 0.0 0.0
78 1 8.20438651221068 8.229846411106864 0.0 0.0 0.0 0.0
79 2 7.93238328867052 7.205384758468901 0.0 0.0 0.0 0.0
80 2 9.357353800073472 7.462697753987678 0.0 0.0 0.0 0.0
81 1 0.19224893455654585 8.302375644474639 0.0 0.0 0.0 0.0
82 2 1.2096595265388743 8.62533200841098 0.0 0.0 0.0 0.0
83 2 2.497554978016297 8.433033358625158 0.0 0.0 0.0 0.0
84 2 3.821243237136221 8.61148390139453 0.0 0.0 0.0 0.0
85 1 4.924856119357453 8.379698330889884 0.0 0.0 0.0 0.0
86 2 5.937830355925532 8.778872314141276 0.0 0.0 0.0 0.0
87 1 7.520190531225319 9.296400246364831 0.0 0.0 0.0 0.0
88 1 8.010402787913403 8.85543575403821 0.0 0.0 0.0 0.0
89 1 8.830247520808774 8.404734751786808 0.0 0.0 0.0 0.0
90 1 9.476253395424761 8.570218860511934 0.0 0.0 0.0 0.0
91 2 0.26341852274722133 9.460048513627976 0.0 0.0 0.0 0.0
92 1 1.3467027674335783 9.69895317119935 0.0 0.0 0.0 0.0
93 1 1.9480431539800118 9.398853123109085 0.0 0.0 0.0 0.0
94 2 3.0141641684138296 9.556876974523153 0.0 0.0 0.0 0.0
95 1 4.822236314297437 9.03854418089764 0.0 0.0 0.0 0.0
96 1 5.202695464573252 9.573548895919801 0.0 0.0 0.0 0.0
97 1 6.861924061346486 9.306731624451942 0.0 0.0 0.0 0.0
98 1 7.155558828719791 0.019460709177524294 0.0 0.0 0.0 0.0
99 1 7.826461533734997 0.004869018687436721 0.0 0.0 0.0 0.0
100 2 8.89027002191343 9.479656723465368 0.0 0.0 0.0 0.0
