ITEM: TIMESTEP
1
ITEM: NUMBER OF ATOMS
100
ITEM: BOX BOUNDS xy xz yz pp pp pp
0.0 9.88045 0.0
0.0 9.88045 0.0
0.0 10.0 0.0
ITEM: ATOMS id type x y z vx vy vz
1 1 1.076594437278828 0.5375661504113245 0.0 0.0 0.0 0.0
2 1 1.6430092241386314 0.22906279836693094 0.0 0.0 0.0 0.0
3 2 2.6919759712338798 0.44338851382245786 0.0 0.0 0.0 0.0
4 1 3.7271971376225745 0.057663114260194985 0.0 0.0 0.0 0.0
5 1 4.305791628827644 0.4282092949577838 0.0 0.0 0.0 0.0
6 1 5.055815573900905 0.6406447091542411 0.0 0.0 0.0 0.0
7 2 6.446139221779346 0.48628977630009956 0.0 0.0 0.0 0.0
8 1 7.506763754536806 0.20727479997474393 0.0 0.0 0.0 0.0
9 2 8.61707776964071 0.5569437115743169 0.0 0.0 0.0 0.0
10 2 9.87376414736575 0.44534646644946746 0.0 0.0 0.0 0.0
11 2 0.6285411705983661 1.4968191456327375 0.0 0.0 0.0 0.0
12 2 1.8685014618053217 1.3265394282954783 0.0 0.0 0.0 0.0
13 2 3.124476056295989 1.6567210445443772 0.0 0.0 0.0 0.0
14 1 3.711037866832736 0.721964717270456 0.0 0.0 0.0 0.0
15 2 4.396809344581258 1.5308877788000943 0.0 0.0 0.0 0.0
16 1 5.406445816560578 1.8924871058910706 0.0 0.0 0.0 0.0
17 1 5.4897298559329775 1.184040404356995 0.0 0.0 0.0 0.0
18 2 6.471203158516565 1.7140193208390064 0.0 0.0 0.0 0.0
19 2 7.607564153783818 1.2935008070673468 0.0 0.0 0.0 0.0
20 1 9.375440736112767 1.4309138340972174 0.0 0.0 0.0 0.0
21 1 0.3218084236528829 2.521637192730239 0.0 0.0 0.0 0.0
22 2 1.4135282909881062 2.460623512636565 0.0 0.0 0.0 0.0
23 2 2.6025469754615207 2.8095636847467023 0.0 0.0 0.0 0.0
24 2 3.8932679743600076 2.7307745823757426 0.0 0.0 0.0 0.0
25 1 4.931444160544021 3.1061133908917906 0.0 0.0 0.0 0.0
26 1 4.978233265601155 2.4390677676794454 0.0 0.0 0.0 0.0
27 2 5.992592382639315 2.8278569211938263 0.0 0.0 0.0 0.0
28 2 7.275473219604244 2.734409065609295 0.0 0.0 0.0 0.0
29 2 8.518083962359842 2.125236768028783 0.0 0.0 0.0 0.0
30 1 9.615252823857958 2.085426568995883 0.0 0.0 0.0 0.0
31 1 0.5687553010161196 3.159350404867283 0.0 0.0 0.0 0.0
32 2 1.563682103700626 3.6771222190439055 0.0 0.0 0.0 0.0
33 1 2.671105146168446 3.9035764220689417 0.0 0.0 0.0 0.0
34 1 3.294450084121561 3.668967707154229 0.0 0.0 0.0 0.0
35 2 4.32437402283668 4.010365607228171 0.0 0.0 0.0 0.0
36 2 5.584239788506947 4.00151272694158 0.0 0.0 0.0 0.0
37 1 6.637548291160723 3.6803362333259066 0.0 0.0 0.0 0.0
38 2 7.645007394869677 4.035644419124718 0.0 0.0 0.0 0.0
39 1 8.276295974996696 3.1860156073005617 0.0 0.0 0.0 0.0
40 2 9.33834494298569 3.1361472641999577 0.0 0.0 0.0 0.0
41 1 1.0983654527274902 4.665388843119012 0.0 0.0 0.0 0.0
42 1 1.7384094446863985 4.757658010476528 0.0 0.0 0.0 0.0
43 1 2.3320654617250405 4.469883059092073 0.0 0.0 0.0 0.0
44 2 3.3705879652884803 4.798750386623281 0.0 0.0 0.0 0.0
45 1 4.375485907510476 5.162736990169829 0.0 0.0 0.0 0.0
46 1 4.968373537682558 4.885436238390106 0.0 0.0 0.0 0.0
47 1 6.62047726697078 4.3563030402699106 0.0 0.0 0.0 0.0
48 1 7.030273201639157 4.908900039929565 0.0 0.0 0.0 0.0
49 2 8.815155221500081 4.24091198851404 0.0 0.0 0.0 0.0
50 2 0.14950495729826407 4.1771427074787075 0.0 0.0 0.0 0.0
51 1 0.6437763222982246 5.138928194749784 0.0 0.0 0.0 0.0
52 1 1.3258028631915053 5.3079178243005325 0.0 0.0 0.0 0.0
53 2 2.4239918618993723 5.56961804292691 0.0 0.0 0.0 0.0
54 1 3.4891606868852314 5.918171631322071 0.0 0.0 0.0 0.0
55 1 4.15442552021029 5.796847446037737 0.0 0.0 0.0 0.0
56 1 4.924160963762463 5.554843568391291 0.0 0.0 0.0 0.0
57 2 5.989712825344352 5.2305717852918026 0.0 0.0 0.0 0.0
58 2 8.08771709778192 5.3050695979066385 0.0 0.0 0.0 0.0
59 1 9.204247855195288 5.242117533316284 0.0 0.0 0.0 0.0
60 1 9.86659920683753 5.31148689761924 0.0 0.0 0.0 0.0
61 2 0.662929991293036 6.199628279285088 0.0 0.0 0.0 0.0
62 1 1.7295337852037707 6.366457800569715 0.0 0.0 0.0 0.0
63 1 2.2810517278642863 6.756717573341578 0.0 0.0 0.0 0.0
64 1 3.0403440499475094 6.428340279634053 0.0 0.0 0.0 0.0
65 1 4.7143788748444155 6.180434062216769 0.0 0.0 0.0 0.0
66 1 5.360420447684184 6.092672631542652 0.0 0.0 0.0 0.0
67 1 5.976332720719963 6.345837528608387 0.0 0.0 0.0 0.0
68 2 6.992636647281976 5.988105882569777 0.0 0.0 0.0 0.0
69 2 8.02693865855338 6.618652276160157 0.0 0.0 0.0 0.0
70 2 9.279668721063107 6.328401992762492 0.0 0.0 0.0 0.0
71 1 0.17885690254756403 7.1487456351073355 0.0 0.0 0.0 0.0
72 2 1.2718519823617347 7.330911801715058 0.0 0.0 0.0 0.0
73 1 2.3657080321882566 7.4810014946757155 0.0 0.0 0.0 0.0
74 1 2.8774962603181793 7.059653484312484 0.0 0.0 0.0 0.0
75 2 3.988062331759022 6.9441898967843985 0.0 0.0 0.0 0.0
76 2 5.27807105973685 7.1794278251632075 0.0 0.0 0.0 0.0
77 1 6.369902727990518 6.8957614435659655 0.0 0.0 0.0 0.0
78 1 7.017939539171094 7.119896723823997 0.0 0.0 0.0 0.0
79 1 8.795990559469043 7.359804368928825 0.0 0.0 0.0 0.0
80 1 9.462079582999307 7.416092936176293 0.0 0.0 0.0 0.0
81 2 0.3906839218539064 8.213838341607222 0.0 0.0 0.0 0.0
82 2 1.8240889198553023 8.443298784958202 0.0 0.0 0.0 0.0
83 2 3.374905179987582 8.008537844401474 0.0 0.0 0.0 0.0
84 1 4.496389289759539 7.929346282345045 0.0 0.0 0.0 0.0
85 1 5.112233811473112 8.277111718229692 0.0 0.0 0.0 0.0
86 1 5.209185824532651 9.351652420299772 0.0 0.0 0.0 0.0
87 1 5.5654160530795185 8.793044035924874 0.0 0.0 0.0 0.0
88 2 6.289931866674395 7.987062676043125 0.0 0.0 0.0 0.0
89 2 7.796882391102864 7.928867796231121 0.0 0.0 0.0 0.0
90 2 9.046112842081689 8.41056886115162 0.0 0.0 0.0 0.0
91 2 0.8239967246253692 9.357107922249584 0.0 0.0 0.0 0.0
92 1 1.9257708970386107 9.518217198380725 0.0 0.0 0.0 0.0
93 2 2.9464984222038644 9.137792485353879 0.0 0.0 0.0 0.0
94 2 4.210763806668414 8.969641589316417 0.0 0.0 0.0 0.0
95 1 4.801872891079891 0.004031468152733808 0.0 0.0 0.0 0.0
96 1 5.45696645953358 0.09180546555511349 0.0 0.0 0.0 0.0
97 1 5.865838532731735 9.41529556148758 0.0 0.0 0.0 0.0
98 2 6.8991998177756635 9.110708755798454 0.0 0.0 0.0 0.0
99 2 8.140245423873168 9.216781948206185 0.0 0.0 0.0 0.0
100 1 9.216665683859246 9.477440113228004 0.0 0.0 0.0 0.0
