ITEM: TIMESTEP
1
ITEM: NUMBER OF ATOMS
100
ITEM: BOX BOUNDS xy xz yz pp pp pp
0.0 9.88045 0.0
0.0 9.88045 0.0
0.0 10.0 0.0
ITEM: ATOMS id type x y z vx vy vz
1 1 0.05821524768981727 0.560354282147988 0.0 0.0 0.0 0.0
2 2 1.1015733362865074 0.7209803976445428 0.0 0.0 0.0 0.0
3 1 2.099304044915895 0.38617027830068307 0.0 0.0 0.0 0.0
4 2 3.1494127920214954 0.5574669152290619 0.0 0.0 0.0 0.0
5 2 4.3496162656553885 0.4899756439294313 0.0 0.0 0.0 0.0
6 1 5.3062069934756515 0.891710310339683 0.0 0.0 0.0 0.0
7 1 5.944081231515126 0.8700685508058368 0.0 0.0 0.0 0.0
8 2 6.897257709692092 0.40925128364039454 0.0 0.0 0.0 0.0
9 1 7.934234660140009 0.73881126190522 0.0 0.0 0.0 0.0
10 2 8.911555401446533 0.33231386169880167 0.0 0.0 0.0 0.0
11 2 0.21307063282120417 1.621003014952028 0.0 0.0 0.0 0.0
12 1 1.3909256087114494 1.7604578925687264 0.0 0.0 0.0 0.0
13 2 2.4601316178249437 1.524771663704416 0.0 0.0 0.0 0.0
14 2 3.805330221349494 1.6200116243679792 0.0 0.0 0.0 0.0
15 1 4.920048590273363 1.4646565859030665 0.0 0.0 0.0 0.0
16 1 5.6142066550856375 1.481393601341584 0.0 0.0 0.0 0.0
17 1 6.277992474680613 1.4216549211346945 0.0 0.0 0.0 0.0
18 2 7.319119933054804 1.6125069724810963 0.0 0.0 0.0 0.0
19 1 8.370118724203648 1.2991243000160912 0.0 0.0 0.0 0.0
20 1 8.983681337620823 1.6009853321765983 0.0 0.0 0.0 0.0
21 2 0.8306341910342694 2.670607445393048 0.0 0.0 0.0 0.0
22 2 2.0768622468452964 2.6624666944038546 0.0 0.0 0.0 0.0
23 1 3.1705819526132513 2.513539412535273 0.0 0.0 0.0 0.0
24 1 4.212592807529058 2.609093446850463 0.0 0.0 0.0 0.0
25 2 5.308837040988153 2.5262150126778233 0.0 0.0 0.0 0.0
26 1 6.318131315029459 2.0817120697318483 0.0 0.0 0.0 0.0
27 1 7.087524722944374 2.652072920128009 0.0 0.0 0.0 0.0
28 1 7.47458407605683 3.208067786199649 0.0 0.0 0.0 0.0
29 2 8.22749418445233 2.4359294993756064 0.0 0.0 0.0 0.0
30 2 9.436219196122046 2.69936831282346 0.0 0.0 0.0 0.0
31 2 0.28802433547441747 3.740359070139275 0.0 0.0 0.0 0.0
32 2 1.4970919558506721 3.723023165652024 0.0 0.0 0.0 0.0
33 1 3.028626209890345 3.185092854853179 0.0 0.0 0.0 0.0
34 1 3.670309535699547 3.0046934191690884 0.0 0.0 0.0 0.0
35 2 4.610455658967051 3.610561731417598 0.0 0.0 0.0 0.0
36 1 6.39782720388587 2.73846453489674 0.0 0.0 0.0 0.0
37 1 6.815418790463675 3.248482021601367 0.0 0.0 0.0 0.0
38 1 8.019088830432421 3.5913861811347805 0.0 0.0 0.0 0.0
39 1 8.65937943656181 3.4630594962597985 0.0 0.0 0.0 0.0
40 1 9.118089871607294 3.9296862769599925 0.0 0.0 0.0 0.0
41 1 0.21200535185208602 4.818771658310964 0.0 0.0 0.0 0.0
42 2 1.439166495710519 4.9106261706734715 0.0 0.0 0.0 0.0
43 1 2.419513378827655 4.372187250870291 0.0 0.0 0.0 0.0
44 1 2.561358274467663 3.6750430495897946 0.0 0.0 0.0 0.0
45 2 3.5097522685918126 4.174716339435082 0.0 0.0 0.0 0.0
46 2 5.860497297676708 3.723845636465551 0.0 0.0 0.0 0.0
47 1 6.217130075441118 4.77131648256451 0.0 0.0 0.0 0.0
48 2 7.158894182970546 4.25998190656315 0.0 0.0 0.0 0.0
49 2 8.332289313952336 4.685791655011553 0.0 0.0 0.0 0.0
50 1 9.440495127019162 4.529378682400462 0.0 0.0 0.0 0.0
51 2 0.6179230042854155 5.826432910117756 0.0 0.0 0.0 0.0
52 1 2.29941436527287 5.6042802498640745 0.0 0.0 0.0 0.0
53 1 2.715290930334843 5.02948715846967 0.0 0.0 0.0 0.0
54 1 2.9619609231902273 5.705344579212981 0.0 0.0 0.0 0.0
55 2 3.989810019239502 5.295413907215321 0.0 0.0 0.0 0.0
56 2 5.117069062252657 4.747086161366163 0.0 0.0 0.0 0.0
57 1 6.02573036877209 5.397510569694325 0.0 0.0 0.0 0.0
58 2 7.1263631428053245 5.48807427023549 0.0 0.0 0.0 0.0
59 1 8.177425561516525 5.797146243928334 0.0 0.0 0.0 0.0
60 2 9.276121530385366 5.587697217517814 0.0 0.0 0.0 0.0
61 1 9.828060973609626 6.662945549965954 0.0 0.0 0.0 0.0
62 1 1.712242340045019 5.950135422237643 0.0 0.0 0.0 0.0
63 2 2.4461597725148105 6.737315647008441 0.0 0.0 0.0 0.0
64 1 3.422176375238402 6.215272476826846 0.0 0.0 0.0 0.0
65 1 4.100101957841252 6.387941088552112 0.0 0.0 0.0 0.0
66 2 5.120341047572003 5.991941180116196 0.0 0.0 0.0 0.0
67 2 6.301456010920829 6.451792642355106 0.0 0.0 0.0 0.0
68 2 7.493178676514119 6.712497644473637 0.0 0.0 0.0 0.0
69 1 8.515118229343738 6.3801538117295875 0.0 0.0 0.0 0.0
70 1 9.122371180548049 6.642601918131669 0.0 0.0 0.0 0.0
71 1 0.2069814818647467 7.317329680582461 0.0 0.0 0.0 0.0
72 2 1.1930719972559787 6.914536291282396 0.0 0.0 0.0 0.0
73 1 1.9142295588880855 7.718825950771413 0.0 0.0 0.0 0.0
74 2 3.521378440975958 7.297651466233697 0.0 0.0 0.0 0.0
75 1 4.56406999030292 6.911291155288992 0.0 0.0 0.0 0.0
76 2 5.68591347220595 7.494781724894662 0.0 0.0 0.0 0.0
77 1 6.768142524832356 7.52785596036427 0.0 0.0 0.0 0.0
78 1 7.35433703273737 7.861113938160461 0.0 0.0 0.0 0.0
79 2 8.418285632230015 7.510089795652223 0.0 0.0 0.0 0.0
80 1 9.447288100423561 7.1984757580224725 0.0 0.0 0.0 0.0
81 2 0.9002151456745823 8.18124055423629 0.0 0.0 0.0 0.0
82 1 2.0124270605014822 8.3801389392652 0.0 0.0 0.0 0.0
83 1 2.552737968308214 7.903918974064611 0.0 0.0 0.0 0.0
84 2 3.4787708469644283 8.484605473748541 0.0 0.0 0.0 0.0
85 2 4.595122017483562 7.989346206900005 0.0 0.0 0.0 0.0
86 1 5.611414503806158 8.5828973483498 0.0 0.0 0.0 0.0
87 1 6.309122988429592 8.611882154724444 0.0 0.0 0.0 0.0
88 1 7.77005511773178 8.399915133324638 0.0 0.0 0.0 0.0
89 1 8.440072366482296 8.600163337508945 0.0 0.0 0.0 0.0
90 2 9.491885910788566 8.250684875256182 0.0 0.0 0.0 0.0
91 2 0.10090996293113215 9.366542398398801 0.0 0.0 0.0 0.0
92 2 1.371705416799989 9.356659071778445 0.0 0.0 0.0 0.0
93 2 2.59501036739712 9.300434103683413 0.0 0.0 0.0 0.0
94 1 3.6757414252596416 9.521798338131827 0.0 0.0 0.0 0.0
95 2 4.695265411002714 9.189590915782732 0.0 0.0 0.0 0.0
96 2 5.812027549303687 9.676546790866647 0.0 0.0 0.0 0.0
97 1 6.772050347245346 9.137472303926911 0.0 0.0 0.0 0.0
98 1 7.083365449592377 8.522450484552166 0.0 0.0 0.0 0.0
99 2 7.82124052889238 9.493697118663173 0.0 0.0 0.0 0.0
100 1 8.866837104063 9.130284228189373 0.0 0.0 0.0 0.0
