ITEM: TIMESTEP
1
ITEM: NUMBER OF ATOMS
100
ITEM: BOX BOUNDS xy xz yz pp pp pp
0.0 9.88045 0.0
0.0 9.88045 0.0
0.0 10.0 0.0
ITEM: ATOMS id type x y z vx vy vz
1 1 0.38136983034727473 0.4675195987178372 0.0 0.0 0.0 0.0
2 1 1.0813365068629746 0.5140085578008945 0.0 0.0 0.0 0.0
3 1 1.6981096194113556 0.2546752110437438 0.0 0.0 0.0 0.0
4 2 3.211481474488796 9.46713995017565 0.0 0.0 0.0 0.0
5 2 4.211864137078661 0.5133243296870801 0.0 0.0 0.0 0.0
6 1 5.270629805515557 0.688179059781095 0.0 0.0 0.0 0.0
7 1 6.423475308458357 0.19157328125763376 0.0 0.0 0.0 0.0
8 2 7.3483871724523215 0.7927398305082135 0.0 0.0 0.0 0.0
9 2 8.580008661157102 0.5438473607312045 0.0 0.0 0.0 0.0
10 1 9.669781648941544 0.8021453312297175 0.0 0.0 0.0 0.0
11 2 0.6892957596549578 1.5137127961638321 0.0 0.0 0.0 0.0
12 2 1.8863064342630453 1.3119096258958676 0.0 0.0 0.0 0.0
13 2 2.993927137422546 0.7989393525550866 0.0 0.0 0.0 0.0
14 1 3.8345739296618655 1.5334962963079564 0.0 0.0 0.0 0.0
15 1 4.490590530264276 1.6646748981944781 0.0 0.0 0.0 0.0
16 1 5.039624580027481 1.298444931935563 0.0 0.0 0.0 0.0
17 2 6.164680900019898 1.2622475436810945 0.0 0.0 0.0 0.0
18 1 7.076937454344362 1.851156380946039 0.0 0.0 0.0 0.0
19 2 8.169599925466974 1.7175024195452349 0.0 0.0 0.0 0.0
20 2 9.41555837462012 1.8901489872905766 0.0 0.0 0.0 0.0
21 1 0.4534036178967818 2.548626011159208 0.0 0.0 0.0 0.0
22 2 1.6312767546005462 2.5181782092779144 0.0 0.0 0.0 0.0
23 2 2.894651790179562 2.063401052673977 0.0 0.0 0.0 0.0
24 1 3.735558483435025 2.768705388043126 0.0 0.0 0.0 0.0
25 1 4.0566204049644545 2.180197804596808 0.0 0.0 0.0 0.0
26 2 5.416817735908871 2.3234233229038215 0.0 0.0 0.0 0.0
27 1 6.557857845998578 2.278142720824588 0.0 0.0 0.0 0.0
28 2 7.555670990047402 2.8201400878754597 0.0 0.0 0.0 0.0
29 1 8.65312105796072 2.6799772066448755 0.0 0.0 0.0 0.0
30 1 9.256357150831468 2.965441948068773 0.0 0.0 0.0 0.0
31 1 0.7441184134615567 3.13754074412329 0.0 0.0 0.0 0.0
32 2 1.6479028297580167 3.7863588605435554 0.0 0.0 0.0 0.0
33 2 2.7797220192751166 3.2836122102531236 0.0 0.0 0.0 0.0
34 1 4.027898134704161 3.372851167423933 0.0 0.0 0.0 0.0
35 1 4.403608273496872 2.779766974857498 0.0 0.0 0.0 0.0
36 2 5.177425885094953 3.564940176160108 0.0 0.0 0.0 0.0
37 2 6.389011968382755 3.3438029316020925 0.0 0.0 0.0 0.0
38 1 7.348342945464052 3.8813515841627715 0.0 0.0 0.0 0.0
39 2 8.427273637726262 3.7355018731059944 0.0 0.0 0.0 0.0
40 1 0.05772604904804268 3.084868558731095 0.0 0.0 0.0 0.0
41 2 0.4943657546169422 4.175624523573788 0.0 0.0 0.0 0.0
42 1 1.3001544981204105 4.86600811551334 0.0 0.0 0.0 0.0
43 2 2.365357396814707 4.800831241740841 0.0 0.0 0.0 0.0
44 1 3.288424049000168 4.224071856628821 0.0 0.0 0.0 0.0
45 2 4.342157652400485 4.4295095545159935 0.0 0.0 0.0 0.0
46 1 5.423148764549392 4.705926884694245 0.0 0.0 0.0 0.0
47 2 6.5355683058624265 4.588976029242594 0.0 0.0 0.0 0.0
48 1 7.634616053341112 4.484459424486038 0.0 0.0 0.0 0.0
49 1 8.222962921688083 4.8189489732731685 0.0 0.0 0.0 0.0
50 1 9.491007724170117 3.5784040501551058 0.0 0.0 0.0 0.0
51 2 0.3859893241550308 5.472403563522085 0.0 0.0 0.0 0.0
52 1 1.5244867740617685 5.491929072637851 0.0 0.0 0.0 0.0
53 1 2.0829561522530207 5.899163865118766 0.0 0.0 0.0 0.0
54 2 3.4440378442557944 5.310109769541541 0.0 0.0 0.0 0.0
55 2 4.7041343327562135 5.593339930656623 0.0 0.0 0.0 0.0
56 1 5.755881684688901 5.3293563217518924 0.0 0.0 0.0 0.0
57 1 6.367549883563972 5.666526468618791 0.0 0.0 0.0 0.0
58 2 7.45288534377468 5.557556901007123 0.0 0.0 0.0 0.0
59 1 8.535725098620523 5.452058580097855 0.0 0.0 0.0 0.0
60 2 9.278440561990832 4.646261400127548 0.0 0.0 0.0 0.0
61 1 9.52131680475709 6.2631548945635735 0.0 0.0 0.0 0.0
62 1 1.2854411336145932 6.100706399469646 0.0 0.0 0.0 0.0
63 2 1.8658517122630094 7.000340896873631 0.0 0.0 0.0 0.0
64 1 2.7078156773922255 6.215750246541247 0.0 0.0 0.0 0.0
65 2 3.8082417451655157 6.439138717934868 0.0 0.0 0.0 0.0
66 2 5.608530378889565 6.424159490185399 0.0 0.0 0.0 0.0
67 1 6.681977455677314 6.292138036015322 0.0 0.0 0.0 0.0
68 2 7.7678237950828635 6.753719031265943 0.0 0.0 0.0 0.0
69 1 8.651378521255976 6.125500827668731 0.0 0.0 0.0 0.0
70 1 9.167988209522555 5.710610435127927 0.0 0.0 0.0 0.0
71 1 0.0027346614731435293 7.872592640720876 0.0 0.0 0.0 0.0
72 2 0.5322194665255306 6.901615278789103 0.0 0.0 0.0 0.0
73 1 2.2030014380219383 8.043282646970729 0.0 0.0 0.0 0.0
74 2 3.0561350687961584 7.356412264905716 0.0 0.0 0.0 0.0
75 2 4.696582518060983 7.241240648004369 0.0 0.0 0.0 0.0
76 2 5.882857095194186 7.604749276840764 0.0 0.0 0.0 0.0
77 1 6.711711284432012 6.950190808633966 0.0 0.0 0.0 0.0
78 2 7.0329561911996565 8.048090578340556 0.0 0.0 0.0 0.0
79 1 8.074432813932996 7.7946411513258465 0.0 0.0 0.0 0.0
80 2 8.998021212329572 7.1952121039367105 0.0 0.0 0.0 0.0
81 1 0.11075744416035077 8.537067650258736 0.0 0.0 0.0 0.0
82 2 1.1099572091491403 8.074138066394521 0.0 0.0 0.0 0.0
83 1 2.7733969646502827 8.400201798862012 0.0 0.0 0.0 0.0
84 1 3.9701142360854056 8.031815878427718 0.0 0.0 0.0 0.0
85 2 5.013565491795274 8.429258049888826 0.0 0.0 0.0 0.0
86 1 6.108650923277457 8.654240585838965 0.0 0.0 0.0 0.0
87 1 6.5764236898315405 9.126804549343973 0.0 0.0 0.0 0.0
88 1 7.2739421012986245 9.099412225508534 0.0 0.0 0.0 0.0
89 1 7.888078325554257 8.83606968403519 0.0 0.0 0.0 0.0
90 2 8.9210338791686 8.447615068147961 0.0 0.0 0.0 0.0
91 2 0.8188631797462457 9.346269857242852 0.0 0.0 0.0 0.0
92 2 1.9995372516508327 9.115565480335945 0.0 0.0 0.0 0.0
93 1 3.423286095665668 8.393965908439483 0.0 0.0 0.0 0.0
94 1 3.9945709683531248 8.725737526717129 0.0 0.0 0.0 0.0
95 1 4.348440306910607 9.30932352933548 0.0 0.0 0.0 0.0
96 2 5.481196029095084 9.535818904298264 0.0 0.0 0.0 0.0
97 1 6.962753803568481 9.675380616479785 0.0 0.0 0.0 0.0
98 1 7.7070632621949615 9.621925056305821 0.0 0.0 0.0 0.0
99 1 8.332433707849532 9.362539617993553 0.0 0.0 0.0 0.0
100 2 9.469662647028379 9.560872468645414 0.0 0.0 0.0 0.0
