ITEM: TIMESTEP
1
ITEM: NUMBER OF ATOMS
100
ITEM: BOX BOUNDS xy xz yz pp pp pp
0.0 9.88045 0.0
0.0 9.88045 0.0
0.0 10.0 0.0
ITEM: ATOMS id type x y z vx vy vz
1 1 0.4849144234644588 0.3484584618125507 0.0 0.0 0.0 0.0
2 1 1.2003712783601976 0.49931676060740643 0.0 0.0 0.0 0.0
3 1 1.889858391255777 0.34517528950405696 0.0 0.0 0.0 0.0
4 2 2.998697978089777 0.5650686705929756 0.0 0.0 0.0 0.0
5 1 4.605703611384974 0.25322028253854306 0.0 0.0 0.0 0.0
6 1 5.197656759736327 0.6539304597656009 0.0 0.0 0.0 0.0
7 1 5.777446502984389 0.2297083226478824 0.0 0.0 0.0 0.0
8 2 7.417146741895929 0.4072624351566902 0.0 0.0 0.0 0.0
9 1 7.949544629306377 1.3392320702561666 0.0 0.0 0.0 0.0
10 2 9.026798463229142 0.2528521619744604 0.0 0.0 0.0 0.0
11 1 0.7191543356731706 0.9893779157269527 0.0 0.0 0.0 0.0
12 1 2.014555680461537 0.9959350205064548 0.0 0.0 0.0 0.0
13 1 2.4630197403716476 1.5287881051905736 0.0 0.0 0.0 0.0
14 1 3.1123432361673125 1.758316945762904 0.0 0.0 0.0 0.0
15 2 4.08572891509838 1.1870014092296022 0.0 0.0 0.0 0.0
16 1 5.2374702490269 1.3317142368454107 0.0 0.0 0.0 0.0
17 2 6.323851181615198 1.1480310399563183 0.0 0.0 0.0 0.0
18 1 7.331106116023279 1.5452871806330486 0.0 0.0 0.0 0.0
19 2 8.991944267133738 1.4806640660870674 0.0 0.0 0.0 0.0
20 1 0.05209031589024882 0.8795769733121371 0.0 0.0 0.0 0.0
21 2 0.19474982154592024 1.9816498729905758 0.0 0.0 0.0 0.0
22 2 1.3942680381571266 1.8568359683129672 0.0 0.0 0.0 0.0
23 2 2.3503897208473723 2.631178701187931 0.0 0.0 0.0 0.0
24 2 3.5861989219923007 2.800329103297587 0.0 0.0 0.0 0.0
25 2 4.664886410145991 2.251101817164435 0.0 0.0 0.0 0.0
26 2 5.891668315318223 2.326190862665912 0.0 0.0 0.0 0.0
27 1 6.92497804607575 2.760441696179048 0.0 0.0 0.0 0.0
28 1 6.953627678502742 2.089611675284137 0.0 0.0 0.0 0.0
29 2 8.004582542789375 2.45856382143981 0.0 0.0 0.0 0.0
30 1 9.10787293121549 2.561949920486095 0.0 0.0 0.0 0.0
31 2 0.84694908101052 3.0413037014833892 0.0 0.0 0.0 0.0
32 2 1.7990736908857694 3.810050156282982 0.0 0.0 0.0 0.0
33 1 2.8644288987322835 3.6009380903162223 0.0 0.0 0.0 0.0
34 1 3.459877561015679 3.9153685114522134 0.0 0.0 0.0 0.0
35 1 4.54605786172804 3.3441978907628296 0.0 0.0 0.0 0.0
36 1 5.201347485713198 3.190589129456253 0.0 0.0 0.0 0.0
37 2 6.207730917185375 3.60299659616051 0.0 0.0 0.0 0.0
38 2 7.456832976943023 3.727931365936233 0.0 0.0 0.0 0.0
39 2 8.69741024402103 3.588175759766572 0.0 0.0 0.0 0.0
40 1 9.625799365361948 2.981320617681919 0.0 0.0 0.0 0.0
41 2 0.6701089347088969 4.380280636651164 0.0 0.0 0.0 0.0
42 1 1.6107110162659768 4.9074418882220545 0.0 0.0 0.0 0.0
43 2 2.687229582854838 4.670883385037195 0.0 0.0 0.0 0.0
44 1 3.837198197614759 4.519901482518586 0.0 0.0 0.0 0.0
45 1 4.1146546850573715 3.8632397306785813 0.0 0.0 0.0 0.0
46 2 5.124009517853357 4.280575714792473 0.0 0.0 0.0 0.0
47 1 6.6690032654329245 4.59881681732158 0.0 0.0 0.0 0.0
48 1 7.322240884830443 4.80477360660432 0.0 0.0 0.0 0.0
49 1 9.298833888434773 5.40152034843756 0.0 0.0 0.0 0.0
50 1 9.781686256987959 3.630162766662817 0.0 0.0 0.0 0.0
51 1 0.056654779266905105 5.279196500653219 0.0 0.0 0.0 0.0
52 2 0.975988109890628 5.838517343707842 0.0 0.0 0.0 0.0
53 2 2.189100386314819 5.8214518114169005 0.0 0.0 0.0 0.0
54 2 3.3980617709520016 5.643331830438391 0.0 0.0 0.0 0.0
55 2 4.571204503188529 5.387709057754423 0.0 0.0 0.0 0.0
56 2 5.788799867113002 5.3322499732715105 0.0 0.0 0.0 0.0
57 1 6.849180070119197 5.2514169174398155 0.0 0.0 0.0 0.0
58 2 8.397941574214324 4.797797093493618 0.0 0.0 0.0 0.0
59 1 8.813746220923765 5.84926920322485 0.0 0.0 0.0 0.0
60 1 9.499699423469922 4.732771820730681 0.0 0.0 0.0 0.0
61 1 0.8738021268505656 6.947789587201697 0.0 0.0 0.0 0.0
62 1 1.5492117961773229 6.805043794261702 0.0 0.0 0.0 0.0
63 1 2.875168596218243 6.683473890605733 0.0 0.0 0.0 0.0
64 1 3.550359966338946 6.703241393632905 0.0 0.0 0.0 0.0
65 1 4.189316415439433 6.418849467141011 0.0 0.0 0.0 0.0
66 2 5.304375970764303 6.6056344351215674 0.0 0.0 0.0 0.0
67 2 6.567535974533634 6.306766132786277 0.0 0.0 0.0 0.0
68 2 7.730271345731906 5.8769040311705325 0.0 0.0 0.0 0.0
69 1 8.641410291526986 6.497695911714818 0.0 0.0 0.0 0.0
70 2 9.754252040343998 6.434702216006157 0.0 0.0 0.0 0.0
71 2 0.33073742989326627 7.920814160332487 0.0 0.0 0.0 0.0
72 1 1.3302804276474083 7.458991686406548 0.0 0.0 0.0 0.0
73 1 2.2222906727518428 6.878128759054751 0.0 0.0 0.0 0.0
74 1 3.190952450926813 7.2812989480050625 0.0 0.0 0.0 0.0
75 2 4.258990859389356 7.505857257419247 0.0 0.0 0.0 0.0
76 2 5.371482816523803 7.89526901630425 0.0 0.0 0.0 0.0
77 1 6.258575731100895 7.325404004069174 0.0 0.0 0.0 0.0
78 1 7.440927335175286 6.970031784080838 0.0 0.0 0.0 0.0
79 1 8.109789645267544 6.918873520222895 0.0 0.0 0.0 0.0
80 2 9.02899981015104 7.518768865259639 0.0 0.0 0.0 0.0
81 1 0.3888772771216262 9.056274675547781 0.0 0.0 0.0 0.0
82 2 1.356969294482269 8.63485756840204 0.0 0.0 0.0 0.0
83 2 2.3196198269235198 7.9285114652483255 0.0 0.0 0.0 0.0
84 2 3.42853232115503 8.39667711005148 0.0 0.0 0.0 0.0
85 2 4.53453639721079 8.978383904970073 0.0 0.0 0.0 0.0
86 2 5.808682825395831 8.994525442607852 0.0 0.0 0.0 0.0
87 1 6.497818184758415 7.9696808529917575 0.0 0.0 0.0 0.0
88 1 6.918343544075508 7.409430194093942 0.0 0.0 0.0 0.0
89 2 7.843590139157536 8.006572805833526 0.0 0.0 0.0 0.0
90 2 9.246783867728332 8.768556683610546 0.0 0.0 0.0 0.0
91 1 0.7842846325155591 9.611926427649712 0.0 0.0 0.0 0.0
92 1 1.4408943907577298 9.73405075040484 0.0 0.0 0.0 0.0
93 2 2.447711610727636 9.267008162291697 0.0 0.0 0.0 0.0
94 1 3.5240290160944157 9.472452445346706 0.0 0.0 0.0 0.0
95 1 3.974576224276429 0.07213222318081769 0.0 0.0 0.0 0.0
96 1 5.1820023338516865 9.853444347123386 0.0 0.0 0.0 0.0
97 1 6.412257766760718 0.023088475407618603 0.0 0.0 0.0 0.0
98 2 6.999519122996298 8.95046106467553 0.0 0.0 0.0 0.0
99 2 8.151565217066203 9.274338557297394 0.0 0.0 0.0 0.0
100 1 0.10808804234150138 9.654736986995527 0.0 0.0 0.0 0.0
