ITEM: TIMESTEP
1
ITEM: NUMBER OF ATOMS
100
ITEM: BOX BOUNDS xy xz yz pp pp pp
0.0 9.88045 0.0
0.0 9.88045 0.0
0.0 10.0 0.0
ITEM: ATOMS id type x y z vx vy vz
1 1 0.7341735053854932 9.807809611703435 0.0 0.0 0.0 0.0
2 1 0.8129776465621462 0.5807547181146053 0.0 0.0 0.0 0.0
3 2 3.1620522856945232 0.31569822106693757 0.0 0.0 0.0 0.0
4 1 4.177405017936483 0.6449012876917957 0.0 0.0 0.0 0.0
5 1 4.632736304802941 1.1496905991925686 0.0 0.0 0.0 0.0
6 1 4.812207724486196 0.4998997895958849 0.0 0.0 0.0 0.0
7 2 5.894204916629265 0.5601938174927583 0.0 0.0 0.0 0.0
8 1 6.978434674128602 0.7257978589829374 0.0 0.0 0.0 0.0
9 2 7.888584469427852 0.060933228620611776 0.0 0.0 0.0 0.0
10 1 0.2943058188361043 9.315177677916166 0.0 0.0 0.0 0.0
11 2 0.24473826844299942 1.514203768048681 0.0 0.0 0.0 0.0
12 1 1.252773520932634 1.0721115615008598 0.0 0.0 0.0 0.0
13 2 2.322745531346528 1.2257465731604797 0.0 0.0 0.0 0.0
14 2 3.5581053730467906 1.5521977124392334 0.0 0.0 0.0 0.0
15 1 5.262472951189687 1.4220862623230528 0.0 0.0 0.0 0.0
16 1 5.672318734627743 1.9623667726999048 0.0 0.0 0.0 0.0
17 1 6.223651514056762 1.5742466691681936 0.0 0.0 0.0 0.0
18 1 6.8941417767233775 1.4341061172090326 0.0 0.0 0.0 0.0
19 2 8.586889400077252 1.0905708887274788 0.0 0.0 0.0 0.0
20 2 9.605992592131994 0.37965557103109465 0.0 0.0 0.0 0.0
21 2 0.32056706016308784 2.761090237642149 0.0 0.0 0.0 0.0
22 2 1.386560988138111 2.1569035257927127 0.0 0.0 0.0 0.0
23 2 2.5865457755273358 2.400643937532574 0.0 0.0 0.0 0.0
24 1 3.613157436889682 2.7006505535452785 0.0 0.0 0.0 0.0
25 2 4.576136300325579 2.2445926216664254 0.0 0.0 0.0 0.0
26 2 5.4647665539504064 3.0462574574319543 0.0 0.0 0.0 0.0
27 2 6.645596691110924 2.557198124745355 0.0 0.0 0.0 0.0
28 1 7.503043592904088 1.1365565265501252 0.0 0.0 0.0 0.0
29 2 7.832320805329716 2.2001123344983755 0.0 0.0 0.0 0.0
30 2 9.08690870895329 2.2034218089780744 0.0 0.0 0.0 0.0
31 1 9.756258248591733 3.7545670606505754 0.0 0.0 0.0 0.0
32 2 0.9657477031124219 3.8146663898504114 0.0 0.0 0.0 0.0
33 2 2.1730909402057663 3.555014347264551 0.0 0.0 0.0 0.0
34 1 3.251092430843835 3.261831608064179 0.0 0.0 0.0 0.0
35 2 4.315445519327836 3.55433277984123 0.0 0.0 0.0 0.0
36 1 5.811059099817628 4.056593555986626 0.0 0.0 0.0 0.0
37 1 6.378477959004624 3.609825373296606 0.0 0.0 0.0 0.0
38 2 7.507665541382063 3.5455792063167157 0.0 0.0 0.0 0.0
39 1 8.543972745384966 3.1556087503454644 0.0 0.0 0.0 0.0
40 1 9.239312252426664 3.2763887124627207 0.0 0.0 0.0 0.0
41 1 0.03504069848386703 4.437888485173891 0.0 0.0 0.0 0.0
42 1 0.6027057730286051 4.835992823101037 0.0 0.0 0.0 0.0
43 2 1.7839375347217041 4.778812753590671 0.0 0.0 0.0 0.0
44 2 3.1481250774323772 4.338463956020216 0.0 0.0 0.0 0.0
45 1 4.191233531031735 4.634869431480176 0.0 0.0 0.0 0.0
46 1 5.15695523869094 4.281045430648823 0.0 0.0 0.0 0.0
47 2 6.743974953146171 4.604613543408993 0.0 0.0 0.0 0.0
48 1 7.814598047486007 4.6245320300857475 0.0 0.0 0.0 0.0
49 2 8.807305985410798 4.2547526592025875 0.0 0.0 0.0 0.0
50 1 9.584144886726651 5.04422181688181 0.0 0.0 0.0 0.0
51 1 0.25357657091206337 5.408991026106372 0.0 0.0 0.0 0.0
52 1 0.9179340962982774 5.430970961914475 0.0 0.0 0.0 0.0
53 2 2.8090691711836318 5.520598768586462 0.0 0.0 0.0 0.0
54 1 3.8456082204081867 5.2267444053216705 0.0 0.0 0.0 0.0
55 2 4.9047421184670545 5.4353087938470255 0.0 0.0 0.0 0.0
56 1 5.683315796678901 4.7147223368360205 0.0 0.0 0.0 0.0
57 2 6.109613033046407 5.795761356212762 0.0 0.0 0.0 0.0
58 2 7.363393859570058 5.611534877465186 0.0 0.0 0.0 0.0
59 2 8.565352471072256 5.464679403982765 0.0 0.0 0.0 0.0
60 1 9.578611988982734 5.786800772892925 0.0 0.0 0.0 0.0
61 2 0.5359024575974254 6.4644879076178245 0.0 0.0 0.0 0.0
62 2 1.7444411616315443 6.136519971672788 0.0 0.0 0.0 0.0
63 1 2.960942343803826 6.577643408002032 0.0 0.0 0.0 0.0
64 2 4.052364285965552 6.387730459176501 0.0 0.0 0.0 0.0
65 1 4.92626680813903 7.061212171541463 0.0 0.0 0.0 0.0
66 1 5.201315599799938 6.4604833921534714 0.0 0.0 0.0 0.0
67 2 6.04466319248222 7.150247487304897 0.0 0.0 0.0 0.0
68 1 6.934689144793821 6.570857826108637 0.0 0.0 0.0 0.0
69 2 8.05097108252405 6.616509648696193 0.0 0.0 0.0 0.0
70 2 9.233280739538971 6.900090903381293 0.0 0.0 0.0 0.0
71 1 0.23023800150528317 7.5113617808697395 0.0 0.0 0.0 0.0
72 2 1.3434593849692635 7.381527049883837 0.0 0.0 0.0 0.0
73 1 2.4288104370120474 6.9650549228783625 0.0 0.0 0.0 0.0
74 2 3.4386005762366483 7.559090199028548 0.0 0.0 0.0 0.0
75 1 4.491057576220495 7.568211378304278 0.0 0.0 0.0 0.0
76 1 5.126559881660744 7.698453446963414 0.0 0.0 0.0 0.0
77 1 6.946599319164097 7.826600057405209 0.0 0.0 0.0 0.0
78 1 7.141065012659307 7.19856016112666 0.0 0.0 0.0 0.0
79 1 8.39187846346536 7.6493348786368225 0.0 0.0 0.0 0.0
80 1 9.68122591444866 8.062742983474527 0.0 0.0 0.0 0.0
81 1 0.5192317686879958 8.090874583297978 0.0 0.0 0.0 0.0
82 1 2.091716270479717 8.179562415457841 0.0 0.0 0.0 0.0
83 1 2.3901170331876385 7.614107997755827 0.0 0.0 0.0 0.0
84 1 3.644061457227256 8.634719899387843 0.0 0.0 0.0 0.0
85 2 4.715919132852885 8.701404468867421 0.0 0.0 0.0 0.0
86 2 5.941829508669355 8.393988892085535 0.0 0.0 0.0 0.0
87 1 6.993354918532827 8.478275759874053 0.0 0.0 0.0 0.0
88 1 7.644872259155119 7.64827986825586 0.0 0.0 0.0 0.0
89 1 8.978021108248104 8.0093900481917 0.0 0.0 0.0 0.0
90 1 0.1903107432563793 8.651870112385794 0.0 0.0 0.0 0.0
91 2 1.2836451086879355 8.862177514433514 0.0 0.0 0.0 0.0
92 2 1.818656277620349 0.10817929901917012 0.0 0.0 0.0 0.0
93 2 2.6657097391516125 9.073451910528773 0.0 0.0 0.0 0.0
94 1 3.7949327948354195 9.30627681529512 0.0 0.0 0.0 0.0
95 1 4.293429896550846 9.829027747888361 0.0 0.0 0.0 0.0
96 1 4.996923043560839 9.748412060851173 0.0 0.0 0.0 0.0
97 1 5.5761732618908955 9.406650028804226 0.0 0.0 0.0 0.0
98 2 6.697485312022564 9.51340325469939 0.0 0.0 0.0 0.0
99 2 8.021268555647943 8.67022781518153 0.0 0.0 0.0 0.0
100 2 9.112182993482381 9.124660221604856 0.0 0.0 0.0 0.0
