ITEM: TIMESTEP
1
ITEM: NUMBER OF ATOMS
100
ITEM: BOX BOUNDS xy xz yz pp pp pp
0.0 9.88045 0.0
0.0 9.88045 0.0
0.0 10.0 0.0
ITEM: ATOMS id type x y z vx vy vz
1 1 1.1112325238798242 0.23875360784123986 0.0 0.0 0.0 0.0
2 2 1.9817504152051437 0.9130866530565381 0.0 0.0 0.0 0.0
3 2 2.7286193172355704 9.83044549960311 0.0 0.0 0.0 0.0
4 1 3.8013179364191374 0.13894491894285496 0.0 0.0 0.0 0.0
5 1 4.468064791998477 0.12554834763162026 0.0 0.0 0.0 0.0
6 1 5.0886353415993 0.3739347255916074 0.0 0.0 0.0 0.0
7 1 5.7708955664504105 0.3191883537028574 0.0 0.0 0.0 0.0
8 1 7.81407172752431 9.707039988249258 0.0 0.0 0.0 0.0
9 1 8.358802512311795 9.324499573250945 0.0 0.0 0.0 0.0
10 2 0.016479907256684356 0.19757955528119367 0.0 0.0 0.0 0.0
11 2 0.7019003042349471 1.2626366826142368 0.0 0.0 0.0 0.0
12 1 1.5694345072549298 1.8967877136388602 0.0 0.0 0.0 0.0
13 2 2.7251454160830355 2.0295174319947895 0.0 0.0 0.0 0.0
14 1 3.0934400679961067 0.9878712832984513 0.0 0.0 0.0 0.0
15 2 4.17623434174261 1.1699982549381076 0.0 0.0 0.0 0.0
16 2 5.4188586024570515 1.3999471403625554 0.0 0.0 0.0 0.0
17 1 6.317269196604431 0.7835502416517867 0.0 0.0 0.0 0.0
18 2 7.441925561525056 0.8897590374495726 0.0 0.0 0.0 0.0
19 2 8.678749605947454 0.49289797277065317 0.0 0.0 0.0 0.0
20 1 9.506869950007555 1.2337940287113665 0.0 0.0 0.0 0.0
21 2 0.6344872039017654 2.5499555813830086 0.0 0.0 0.0 0.0
22 2 1.8467125688890131 2.908657777755363 0.0 0.0 0.0 0.0
23 1 2.8231695538040325 3.286915030678775 0.0 0.0 0.0 0.0
24 2 3.7664894551979655 2.785378649506391 0.0 0.0 0.0 0.0
25 1 4.630394676480366 2.157938707961081 0.0 0.0 0.0 0.0
26 2 5.574500995698159 2.669666408555735 0.0 0.0 0.0 0.0
27 2 6.587005171675408 1.8639951690603715 0.0 0.0 0.0 0.0
28 2 7.6713801181604095 2.489412139541074 0.0 0.0 0.0 0.0
29 2 8.527201548113146 1.6758675226812574 0.0 0.0 0.0 0.0
30 1 9.611495521736677 1.9140432393933808 0.0 0.0 0.0 0.0
31 1 1.065139435098162 3.6013453675064206 0.0 0.0 0.0 0.0
32 1 0.9382941534549711 4.237219608209071 0.0 0.0 0.0 0.0
33 2 2.083445285514518 4.149656321909112 0.0 0.0 0.0 0.0
34 2 3.493416927538934 4.118424639847121 0.0 0.0 0.0 0.0
35 2 4.702059675816759 3.6409365929530204 0.0 0.0 0.0 0.0
36 1 5.789579088616581 3.7375071399197632 0.0 0.0 0.0 0.0
37 2 6.698061456936668 3.1921627247374373 0.0 0.0 0.0 0.0
38 2 7.824895402130629 3.724228748894285 0.0 0.0 0.0 0.0
39 2 8.921701440071205 2.863023662773773 0.0 0.0 0.0 0.0
40 2 9.87852464370715 3.65333120602691 0.0 0.0 0.0 0.0
41 2 0.12075954575550688 4.9651368284901265 0.0 0.0 0.0 0.0
42 1 1.2293339906799199 4.821973059650145 0.0 0.0 0.0 0.0
43 2 2.817076735794101 5.19516367434667 0.0 0.0 0.0 0.0
44 1 3.9013278263727567 5.143089893545288 0.0 0.0 0.0 0.0
45 1 4.400054136139764 4.708578132705397 0.0 0.0 0.0 0.0
46 1 5.055820261010879 4.69788254893165 0.0 0.0 0.0 0.0
47 1 5.597791916409264 4.355614404312357 0.0 0.0 0.0 0.0
48 2 6.663966240579613 4.470798617694768 0.0 0.0 0.0 0.0
49 2 7.8010667862588825 4.979855247748289 0.0 0.0 0.0 0.0
50 2 8.885764924062082 4.35922300504994 0.0 0.0 0.0 0.0
51 1 1.1191737489006528 5.467261610132317 0.0 0.0 0.0 0.0
52 1 1.7463330702034796 5.250986519777692 0.0 0.0 0.0 0.0
53 1 1.9542448713802725 5.907126378811599 0.0 0.0 0.0 0.0
54 1 3.7548735132566278 5.793453417000668 0.0 0.0 0.0 0.0
55 2 4.829242978613462 5.739118880410433 0.0 0.0 0.0 0.0
56 1 5.685426705851866 5.0348991946706905 0.0 0.0 0.0 0.0
57 1 6.174991977082885 5.526498627511777 0.0 0.0 0.0 0.0
58 1 6.862234977901044 5.551483774795409 0.0 0.0 0.0 0.0
59 2 8.911314831104544 5.624370070978601 0.0 0.0 0.0 0.0
60 1 9.878577635429634 6.10640983484314 0.0 0.0 0.0 0.0
61 1 0.6401468048945459 5.913815221946971 0.0 0.0 0.0 0.0
62 1 1.3138296229017221 6.100674919756557 0.0 0.0 0.0 0.0
63 1 1.7794930055380564 6.599819644015129 0.0 0.0 0.0 0.0
64 2 2.916891286901587 6.45521670218151 0.0 0.0 0.0 0.0
65 1 4.600997563015125 6.82287663494016 0.0 0.0 0.0 0.0
66 2 5.702921538224738 6.544660490216115 0.0 0.0 0.0 0.0
67 1 6.711211102171666 6.195164225322527 0.0 0.0 0.0 0.0
68 2 7.78973754405798 6.20926973833892 0.0 0.0 0.0 0.0
69 1 8.783637442376893 6.702889618374476 0.0 0.0 0.0 0.0
70 1 9.465782346839381 6.660749239782117 0.0 0.0 0.0 0.0
71 2 0.6711890148877073 6.977461798814142 0.0 0.0 0.0 0.0
72 1 1.5788261684489862 7.522748707914635 0.0 0.0 0.0 0.0
73 1 2.138730184259534 7.184307705652603 0.0 0.0 0.0 0.0
74 1 2.7366410241473966 7.528531837252111 0.0 0.0 0.0 0.0
75 2 3.8569112089836155 7.6531347035697745 0.0 0.0 0.0 0.0
76 1 4.975347065366485 7.394170239365328 0.0 0.0 0.0 0.0
77 1 5.634300862524662 7.6153831055067815 0.0 0.0 0.0 0.0
78 2 6.708847718595128 7.3131553089082475 0.0 0.0 0.0 0.0
79 2 7.95419710973647 7.417056341049527 0.0 0.0 0.0 0.0
80 1 9.13202742593824 7.269391317597257 0.0 0.0 0.0 0.0
81 1 1.1652136421939725 8.030146702197667 0.0 0.0 0.0 0.0
82 1 1.7429348922190888 8.41623271931735 0.0 0.0 0.0 0.0
83 1 2.138501783337644 7.859391112068919 0.0 0.0 0.0 0.0
84 2 2.8965832070148485 8.60772104759841 0.0 0.0 0.0 0.0
85 1 3.9745594684317527 8.758372089041536 0.0 0.0 0.0 0.0
86 2 5.0180106795597155 8.501087921105476 0.0 0.0 0.0 0.0
87 2 6.253038892971148 8.523312972541694 0.0 0.0 0.0 0.0
88 2 7.510913579823981 8.619264836755315 0.0 0.0 0.0 0.0
89 2 8.759580194097147 8.311551795382387 0.0 0.0 0.0 0.0
90 2 0.06877662421705999 8.01050039413789 0.0 0.0 0.0 0.0
91 2 0.800653492467196 9.052869493572876 0.0 0.0 0.0 0.0
92 1 1.653482435369187 9.727631296140055 0.0 0.0 0.0 0.0
93 1 1.9013330587110546 9.088214932210567 0.0 0.0 0.0 0.0
94 1 3.6924252836599902 9.359068701742782 0.0 0.0 0.0 0.0
95 1 4.34862076255007 9.351658082171495 0.0 0.0 0.0 0.0
96 1 4.995054619611571 9.590695107644757 0.0 0.0 0.0 0.0
97 1 5.6551520725010995 9.483427823299131 0.0 0.0 0.0 0.0
98 2 6.739812172318851 9.66463115883492 0.0 0.0 0.0 0.0
99 1 9.032164965350592 9.363653612239851 0.0 0.0 0.0 0.0
100 1 9.596093544720382 9.029569730210007 0.0 0.0 0.0 0.0
