ITEM: TIMESTEP
1
ITEM: NUMBER OF ATOMS
100
ITEM: BOX BOUNDS xy xz yz pp pp pp
0.0 9.88045 0.0
0.0 9.88045 0.0
0.0 10.0 0.0
ITEM: ATOMS id type x y z vx vy vz
1 1 0.7294432623235082 0.28211985102560205 0.0 0.0 0.0 0.0
2 2 1.7655430669082592 0.5383549358019788 0.0 0.0 0.0 0.0
3 1 3.427686587967378 0.7961320435176793 0.0 0.0 0.0 0.0
4 1 3.9219655436091654 0.31958537313280994 0.0 0.0 0.0 0.0
5 1 5.20288310849329 0.9676274253571526 0.0 0.0 0.0 0.0
6 1 5.77723403609374 0.6488314699109405 0.0 0.0 0.0 0.0
7 2 6.263837098325245 9.562577713117767 0.0 0.0 0.0 0.0
8 1 7.033621345777854 0.5087018153602166 0.0 0.0 0.0 0.0
9 2 8.13759403410974 0.6877682626015281 0.0 0.0 0.0 0.0
10 2 9.522132745279517 0.5680487064928514 0.0 0.0 0.0 0.0
11 2 0.7535632779992566 1.345171791274085 0.0 0.0 0.0 0.0
12 1 1.454047139453099 2.155643658756617 0.0 0.0 0.0 0.0
13 1 2.766865329423672 0.9044193582593502 0.0 0.0 0.0 0.0
14 2 4.262327194754046 1.5077277095336048 0.0 0.0 0.0 0.0
15 1 5.3826992942102025 1.6130856817232095 0.0 0.0 0.0 0.0
16 1 5.983214112387449 1.289869075447695 0.0 0.0 0.0 0.0
17 1 6.42997351813697 0.7841432509882691 0.0 0.0 0.0 0.0
18 2 7.185891255389253 1.5808825408316043 0.0 0.0 0.0 0.0
19 1 8.317662742889283 1.7561635541417124 0.0 0.0 0.0 0.0
20 1 8.937428255651481 1.5090413302146073 0.0 0.0 0.0 0.0
21 2 0.42498481294559975 2.5602376764111217 0.0 0.0 0.0 0.0
22 1 2.0853927500254583 2.336557962056861 0.0 0.0 0.0 0.0
23 1 1.9226103465540483 1.6569852683148332 0.0 0.0 0.0 0.0
24 2 3.0622250353692984 1.9062194680389972 0.0 0.0 0.0 0.0
25 1 3.88430169555294 2.577078485412492 0.0 0.0 0.0 0.0
26 2 4.968741072523025 2.633340818342315 0.0 0.0 0.0 0.0
27 2 6.2015659851121185 2.3598824011708786 0.0 0.0 0.0 0.0
28 2 7.768915425781841 2.6756004495297123 0.0 0.0 0.0 0.0
29 2 9.009742555605582 2.650374241390798 0.0 0.0 0.0 0.0
30 1 9.588013225902744 1.6958826768097235 0.0 0.0 0.0 0.0
31 1 9.799371621693279 4.118694778670968 0.0 0.0 0.0 0.0
32 1 0.4696785388306483 3.697588406589874 0.0 0.0 0.0 0.0
33 2 1.4963800006004742 3.2500619846500065 0.0 0.0 0.0 0.0
34 2 2.8503343072648994 3.149843600569508 0.0 0.0 0.0 0.0
35 1 3.9910007374579837 3.224722268407039 0.0 0.0 0.0 0.0
36 2 4.859502140806069 3.893041170903822 0.0 0.0 0.0 0.0
37 2 6.829116458825041 3.4292985094446142 0.0 0.0 0.0 0.0
38 2 8.090701394103549 3.878373754730309 0.0 0.0 0.0 0.0
39 1 9.172944126901172 3.853847158000557 0.0 0.0 0.0 0.0
40 1 9.71822227647902 3.464372751431045 0.0 0.0 0.0 0.0
41 1 0.4004617700605408 4.582043727775445 0.0 0.0 0.0 0.0
42 1 0.9413682098457524 4.1782389591775075 0.0 0.0 0.0 0.0
43 2 2.0500315988037507 4.365647880302277 0.0 0.0 0.0 0.0
44 1 3.157760019688306 4.212238061536831 0.0 0.0 0.0 0.0
45 1 3.721630143756811 3.833478177347007 0.0 0.0 0.0 0.0
46 1 5.176699520655867 4.964660057120055 0.0 0.0 0.0 0.0
47 2 6.037343480538989 4.341368654517445 0.0 0.0 0.0 0.0
48 1 7.16343204902422 4.469042055502672 0.0 0.0 0.0 0.0
49 1 8.987136027044041 4.537831127751218 0.0 0.0 0.0 0.0
50 1 9.621015148176939 4.761078150469151 0.0 0.0 0.0 0.0
51 2 0.3103417856891869 5.6957894728784355 0.0 0.0 0.0 0.0
52 1 1.0211333661300108 4.834931738157874 0.0 0.0 0.0 0.0
53 2 1.751478390028612 5.6160987160147195 0.0 0.0 0.0 0.0
54 2 2.9407831829987265 5.290178282598863 0.0 0.0 0.0 0.0
55 2 4.074406323300375 4.858821058182621 0.0 0.0 0.0 0.0
56 1 4.889283742800622 5.548565377448842 0.0 0.0 0.0 0.0
57 1 5.553992978445163 5.558516710820125 0.0 0.0 0.0 0.0
58 2 6.628109393944242 5.411933001148952 0.0 0.0 0.0 0.0
59 2 8.040975302158367 5.15473957720425 0.0 0.0 0.0 0.0
60 1 9.14489815104141 5.2340198812900764 0.0 0.0 0.0 0.0
61 1 0.4968788945014196 6.783664961218962 0.0 0.0 0.0 0.0
62 1 1.108062675464408 6.492454262831964 0.0 0.0 0.0 0.0
63 1 1.7712683209665687 6.69730802590142 0.0 0.0 0.0 0.0
64 2 2.8282820487614457 6.520375586149219 0.0 0.0 0.0 0.0
65 2 4.03186438997204 6.191617092241757 0.0 0.0 0.0 0.0
66 1 5.159553906265856 6.138235076505648 0.0 0.0 0.0 0.0
67 2 6.145111519028071 6.572891056930894 0.0 0.0 0.0 0.0
68 2 7.45505728629864 6.298622546753027 0.0 0.0 0.0 0.0
69 2 8.734917986305513 6.268992880719276 0.0 0.0 0.0 0.0
70 1 9.729612374778435 6.711443407946492 0.0 0.0 0.0 0.0
71 1 0.10082677308305787 7.399385332193538 0.0 0.0 0.0 0.0
72 2 1.1977868068148148 7.586975986257923 0.0 0.0 0.0 0.0
73 2 2.405883255587472 7.712129118212222 0.0 0.0 0.0 0.0
74 2 3.708410974975376 7.431104802735139 0.0 0.0 0.0 0.0
75 2 4.94076133032466 7.198482431934469 0.0 0.0 0.0 0.0
76 1 5.952901211499692 7.660371870069373 0.0 0.0 0.0 0.0
77 2 7.011664893293798 7.495749961518728 0.0 0.0 0.0 0.0
78 1 8.059727494349003 7.182364053405017 0.0 0.0 0.0 0.0
79 1 8.676064130197062 7.393873405712818 0.0 0.0 0.0 0.0
80 1 9.320790757017198 7.228916562194906 0.0 0.0 0.0 0.0
81 2 0.5556778352162723 8.566581484166443 0.0 0.0 0.0 0.0
82 1 1.6349376226278662 8.583591959688622 0.0 0.0 0.0 0.0
83 1 2.234880959733503 8.825543920163947 0.0 0.0 0.0 0.0
84 2 3.284622784610095 8.59368942095521 0.0 0.0 0.0 0.0
85 2 4.493701174829728 8.524351186438663 0.0 0.0 0.0 0.0
86 1 5.499357679442483 8.128510953617996 0.0 0.0 0.0 0.0
87 1 6.139109229353885 8.360564265658917 0.0 0.0 0.0 0.0
88 2 7.977958927570351 8.284289183481825 0.0 0.0 0.0 0.0
89 2 9.246761937837034 8.31689488113868 0.0 0.0 0.0 0.0
90 1 9.690168588266193 9.338002231514063 0.0 0.0 0.0 0.0
91 1 1.0759883665090364 9.553615837801695 0.0 0.0 0.0 0.0
92 1 1.7185161289068842 9.27832262899448 0.0 0.0 0.0 0.0
93 2 2.8316722287061844 9.72614710419229 0.0 0.0 0.0 0.0
94 1 3.9164656137435783 9.50368620524793 0.0 0.0 0.0 0.0
95 2 4.983103750790156 9.75712206023705 0.0 0.0 0.0 0.0
96 1 5.549555215386486 8.780361226528472 0.0 0.0 0.0 0.0
97 1 6.7912757207960315 8.561559427213336 0.0 0.0 0.0 0.0
98 2 7.460700530993729 9.411697449908926 0.0 0.0 0.0 0.0
99 2 8.649378059424128 9.434904596820795 0.0 0.0 0.0 0.0
100 1 0.39160257412273225 9.621435509188766 0.0 0.0 0.0 0.0
