ITEM: TIMESTEP
1
ITEM: NUMBER OF ATOMS
100
ITEM: BOX BOUNDS xy xz yz pp pp pp
0.0 9.88045 0.0
0.0 9.88045 0.0
0.0 10.0 0.0
ITEM: ATOMS id type x y z vx vy vz
1 1 0.07087812268392917 1.673413343930438 0.0 0.0 0.0 0.0
2 2 1.1821614791609398 1.599839769098779 0.0 0.0 0.0 0.0
3 2 2.95912566105504 0.5952655540598263 0.0 0.0 0.0 0.0
4 1 4.022003432857432 0.8513998703664823 0.0 0.0 0.0 0.0
5 1 4.658745689875306 0.6432338653779536 0.0 0.0 0.0 0.0
6 1 5.1035794565453205 0.13847767656421303 0.0 0.0 0.0 0.0
7 1 6.705758040658949 0.91309061759403 0.0 0.0 0.0 0.0
8 2 7.484853335974371 0.09431512906173421 0.0 0.0 0.0 0.0
9 1 8.468900448534182 0.6307334211761599 0.0 0.0 0.0 0.0
10 2 9.582244279138603 0.612974794919947 0.0 0.0 0.0 0.0
11 1 0.30566775527385437 2.3131975784583085 0.0 0.0 0.0 0.0
12 1 2.3092019817298133 1.5335241397103097 0.0 0.0 0.0 0.0
13 1 2.9869879070299863 1.6607282139780855 0.0 0.0 0.0 0.0
14 1 3.644016983397178 1.4184195556046977 0.0 0.0 0.0 0.0
15 1 4.526687371100067 1.3019471479018236 0.0 0.0 0.0 0.0
16 2 5.635738547177184 1.1067570781176514 0.0 0.0 0.0 0.0
17 1 6.619986125358061 1.5889932128785884 0.0 0.0 0.0 0.0
18 2 7.666042528628413 1.370443153643422 0.0 0.0 0.0 0.0
19 1 8.729626101230846 1.257936893680548 0.0 0.0 0.0 0.0
20 1 9.277325100375652 1.64704744117855 0.0 0.0 0.0 0.0
21 1 0.29775298737395517 3.01086857856972 0.0 0.0 0.0 0.0
22 1 1.5147420251269341 2.6310157864655146 0.0 0.0 0.0 0.0
23 2 2.577792216136652 2.6579579276314944 0.0 0.0 0.0 0.0
24 1 3.5047399641095014 2.0772479421102195 0.0 0.0 0.0 0.0
25 1 4.138568381333068 1.8467708677165413 0.0 0.0 0.0 0.0
26 2 5.148702766322885 2.2157950956251637 0.0 0.0 0.0 0.0
27 1 6.2152885679724 2.1050615600548928 0.0 0.0 0.0 0.0
28 2 7.19756174335642 2.601047293849113 0.0 0.0 0.0 0.0
29 2 8.421286080822355 2.3103091383722676 0.0 0.0 0.0 0.0
30 1 9.530116062468977 2.260268675861063 0.0 0.0 0.0 0.0
31 1 0.8647699126338679 2.661752337192427 0.0 0.0 0.0 0.0
32 1 1.5998923469728936 3.2866707413471867 0.0 0.0 0.0 0.0
33 1 2.1511553908710392 3.674162337581331 0.0 0.0 0.0 0.0
34 2 3.2363803888055336 3.7038611775276444 0.0 0.0 0.0 0.0
35 2 4.15290679499281 2.93523933801933 0.0 0.0 0.0 0.0
36 2 5.273140345733459 3.435593792827715 0.0 0.0 0.0 0.0
37 1 6.123113723758199 2.7715292668219322 0.0 0.0 0.0 0.0
38 1 7.4935451869672685 3.701133881405742 0.0 0.0 0.0 0.0
39 1 8.03458795969642 3.3242127300707476 0.0 0.0 0.0 0.0
40 2 9.129927458375287 3.2843799703621794 0.0 0.0 0.0 0.0
41 1 0.9073379274431985 3.3254403237695356 0.0 0.0 0.0 0.0
42 2 1.293461274405406 4.343269571797963 0.0 0.0 0.0 0.0
43 1 2.374708182382772 4.318973756268887 0.0 0.0 0.0 0.0
44 2 3.31120393287036 4.9668156901867695 0.0 0.0 0.0 0.0
45 2 4.347604137341914 4.221217843130823 0.0 0.0 0.0 0.0
46 1 5.447231257119548 4.506848105448597 0.0 0.0 0.0 0.0
47 2 6.409608998913783 3.8631147776785713 0.0 0.0 0.0 0.0
48 2 7.2488265848978655 4.774649475840791 0.0 0.0 0.0 0.0
49 2 8.43714911768074 4.344650752499394 0.0 0.0 0.0 0.0
50 2 0.11090816863890751 4.126091774941679 0.0 0.0 0.0 0.0
51 2 0.5650358318305071 5.387674901100809 0.0 0.0 0.0 0.0
52 1 1.6966846939333504 5.331189973307445 0.0 0.0 0.0 0.0
53 1 2.23057687354832 4.95913444425949 0.0 0.0 0.0 0.0
54 1 2.381207188015798 5.617762110782382 0.0 0.0 0.0 0.0
55 1 4.4021097182286955 5.299841027443912 0.0 0.0 0.0 0.0
56 1 5.047013124227679 5.062383405217628 0.0 0.0 0.0 0.0
57 2 6.108956484256246 5.374452486729663 0.0 0.0 0.0 0.0
58 1 7.09153090800695 5.849211222955563 0.0 0.0 0.0 0.0
59 2 8.195308665179128 5.612172459969316 0.0 0.0 0.0 0.0
60 1 9.322940278662806 4.988957465383356 0.0 0.0 0.0 0.0
61 1 0.47661340132020463 6.501221627099988 0.0 0.0 0.0 0.0
62 2 1.5502052643891127 6.367039467200556 0.0 0.0 0.0 0.0
63 1 2.797438942328625 6.921733214785693 0.0 0.0 0.0 0.0
64 1 2.6282906823718934 6.257001507214767 0.0 0.0 0.0 0.0
65 2 3.700307738451523 6.132363374420097 0.0 0.0 0.0 0.0
66 2 5.077334408129932 6.1657658015148025 0.0 0.0 0.0 0.0
67 2 6.3068892969631385 6.653126722471406 0.0 0.0 0.0 0.0
68 1 7.416753983335453 6.4196019551947 0.0 0.0 0.0 0.0
69 2 8.399521297604133 6.901677788915932 0.0 0.0 0.0 0.0
70 2 9.358779692337942 6.062252241898061 0.0 0.0 0.0 0.0
71 1 0.7539645847858558 7.12314195848696 0.0 0.0 0.0 0.0
72 2 1.7534496163577609 7.540085981073246 0.0 0.0 0.0 0.0
73 1 2.845017153322849 7.6036534085515175 0.0 0.0 0.0 0.0
74 2 3.910864721974949 7.316108122539398 0.0 0.0 0.0 0.0
75 1 5.003807724307188 7.247545636581727 0.0 0.0 0.0 0.0
76 2 5.910081670302568 7.8401191626656574 0.0 0.0 0.0 0.0
77 1 6.968746202033486 7.6483835524253445 0.0 0.0 0.0 0.0
78 1 7.316098500247211 7.079565386892667 0.0 0.0 0.0 0.0
79 1 7.63863992607958 7.672593670780253 0.0 0.0 0.0 0.0
80 2 9.57014514633107 7.267460790919465 0.0 0.0 0.0 0.0
81 1 0.6693714523551382 7.809244832934533 0.0 0.0 0.0 0.0
82 2 1.033341975069719 8.871789716364493 0.0 0.0 0.0 0.0
83 2 2.2975847862176604 8.59446603656437 0.0 0.0 0.0 0.0
84 2 3.5254535551867745 8.4713243281911 0.0 0.0 0.0 0.0
85 2 4.7445376957490435 8.33328148170255 0.0 0.0 0.0 0.0
86 1 5.681515595876653 8.900292304878674 0.0 0.0 0.0 0.0
87 2 6.790047815220325 8.757160523010652 0.0 0.0 0.0 0.0
88 1 7.765986424644717 8.311629002203764 0.0 0.0 0.0 0.0
89 2 8.835505306504203 8.241226678640405 0.0 0.0 0.0 0.0
90 1 0.1319352782309995 8.24438074351105 0.0 0.0 0.0 0.0
91 1 0.10578977248395893 9.48216612552754 0.0 0.0 0.0 0.0
92 2 0.8785662527951763 0.3893594815053465 0.0 0.0 0.0 0.0
93 2 1.9672962635700835 9.772571561704627 0.0 0.0 0.0 0.0
94 1 3.005420419443113 9.41088912273519 0.0 0.0 0.0 0.0
95 2 4.0836851284124265 9.60292743826003 0.0 0.0 0.0 0.0
96 1 5.17900502619968 9.350923379234635 0.0 0.0 0.0 0.0
97 2 6.188689606887007 9.853142443991594 0.0 0.0 0.0 0.0
98 1 7.9033815275252195 8.957566813261208 0.0 0.0 0.0 0.0
99 2 8.853377360063767 9.489039969023697 0.0 0.0 0.0 0.0
100 1 9.763254805390833 8.8577581796956 0.0 0.0 0.0 0.0
