ITEM: TIMESTEP
1
ITEM: NUMBER OF ATOMS
100
ITEM: BOX BOUNDS xy xz yz pp pp pp
0.0 9.88045 0.0
0.0 9.88045 0.0
0.0 10.0 0.0
ITEM: ATOMS id type x y z vx vy vz
1 2 9.85243942617022 0.6305129106071784 0.0 0.0 0.0 0.0
2 2 1.1537862593292043 0.3000768050899261 0.0 0.0 0.0 0.0
3 2 2.304274328966123 0.6630729927662367 0.0 0.0 0.0 0.0
4 2 3.279585398424739 9.824779932745637 0.0 0.0 0.0 0.0
5 2 4.407745551840391 1.0024150208808946 0.0 0.0 0.0 0.0
6 2 5.480228991140943 0.2950911921479959 0.0 0.0 0.0 0.0
7 1 6.436605566943453 0.8110057427935378 0.0 0.0 0.0 0.0
8 2 7.507674963476859 0.7180318355300518 0.0 0.0 0.0 0.0
9 1 8.349498928404053 0.03539171559218722 0.0 0.0 0.0 0.0
10 1 9.006306300936583 9.843362371780604 0.0 0.0 0.0 0.0
11 1 0.2999276972749813 1.6854644458396641 0.0 0.0 0.0 0.0
12 1 0.8472213937404085 1.33334394391035 0.0 0.0 0.0 0.0
13 1 1.500788324066485 1.3933197452675168 0.0 0.0 0.0 0.0
14 1 3.306644907634962 1.0716742300465627 0.0 0.0 0.0 0.0
15 1 3.5404084612983926 1.7008277903253382 0.0 0.0 0.0 0.0
16 2 5.606103454726255 1.501476740365723 0.0 0.0 0.0 0.0
17 1 6.686636881525397 1.4308102871297375 0.0 0.0 0.0 0.0
18 2 7.644870275839724 1.9484198182518715 0.0 0.0 0.0 0.0
19 2 8.669697922328258 1.083649730181319 0.0 0.0 0.0 0.0
20 1 9.532009309553851 1.7044927771716758 0.0 0.0 0.0 0.0
21 1 9.874293504221624 2.2844256749136127 0.0 0.0 0.0 0.0
22 2 1.0874388021778525 2.4322955199132688 0.0 0.0 0.0 0.0
23 2 2.4744246691258667 1.8886819866925288 0.0 0.0 0.0 0.0
24 1 4.090203353850826 2.068871044193148 0.0 0.0 0.0 0.0
25 1 4.7386023620626085 2.099156415819404 0.0 0.0 0.0 0.0
26 2 5.641893412618255 2.7407794903603055 0.0 0.0 0.0 0.0
27 1 6.5415595660498225 2.0814930972790453 0.0 0.0 0.0 0.0
28 1 6.732646509646956 2.7154749524705553 0.0 0.0 0.0 0.0
29 2 7.703428732250169 3.1660233896134784 0.0 0.0 0.0 0.0
30 2 8.791733156417058 2.494024294246216 0.0 0.0 0.0 0.0
31 1 9.865809034605522 2.952382949337428 0.0 0.0 0.0 0.0
32 2 1.5889294892871735 3.5577850418082564 0.0 0.0 0.0 0.0
33 2 2.6956689656778567 3.087244097620633 0.0 0.0 0.0 0.0
34 1 3.516023565487032 2.393147956266871 0.0 0.0 0.0 0.0
35 2 4.418420142450501 3.1344101622007527 0.0 0.0 0.0 0.0
36 2 5.653594170505377 3.9673682630617466 0.0 0.0 0.0 0.0
37 1 6.601683717534007 3.3947674313428347 0.0 0.0 0.0 0.0
38 1 7.591822969442763 4.2405536076545705 0.0 0.0 0.0 0.0
39 1 8.715124479483524 3.5925825215233123 0.0 0.0 0.0 0.0
40 1 9.367602133587733 3.4333205170495433 0.0 0.0 0.0 0.0
41 2 0.44119624866693297 3.952917965684622 0.0 0.0 0.0 0.0
42 2 1.7299219623244653 4.775568411792192 0.0 0.0 0.0 0.0
43 1 2.8110821909954 4.7933340405573315 0.0 0.0 0.0 0.0
44 2 3.5155894695104224 3.9700864975560832 0.0 0.0 0.0 0.0
45 1 4.568628212807744 4.2384462328930725 0.0 0.0 0.0 0.0
46 1 5.562899399813823 5.048210168488373 0.0 0.0 0.0 0.0
47 2 6.667275652596615 4.793927820704206 0.0 0.0 0.0 0.0
48 1 8.05019178710445 4.722406079124837 0.0 0.0 0.0 0.0
49 1 8.254283653473736 4.0882203197143845 0.0 0.0 0.0 0.0
50 2 9.22280507381973 4.564737002596036 0.0 0.0 0.0 0.0
51 2 0.5417630068427984 5.19163121431984 0.0 0.0 0.0 0.0
52 1 1.459924143379184 5.817029276271223 0.0 0.0 0.0 0.0
53 2 2.5819859351047056 5.871120729283287 0.0 0.0 0.0 0.0
54 2 3.8496357639827794 5.157814237615421 0.0 0.0 0.0 0.0
55 1 4.92504609369709 4.797999117124533 0.0 0.0 0.0 0.0
56 1 5.92613758994893 5.607219648295427 0.0 0.0 0.0 0.0
57 2 6.9299329530577385 6.082447695582283 0.0 0.0 0.0 0.0
58 1 7.695409203642747 5.299609645052773 0.0 0.0 0.0 0.0
59 1 8.37642458869104 5.2919026337698485 0.0 0.0 0.0 0.0
60 2 9.332619859111327 5.79633900731704 0.0 0.0 0.0 0.0
61 2 0.5656237320912727 6.452730838263835 0.0 0.0 0.0 0.0
62 1 1.6397185680934203 6.454780442416107 0.0 0.0 0.0 0.0
63 1 2.120282760809881 6.895389207247658 0.0 0.0 0.0 0.0
64 2 3.741534216392771 6.463454083018054 0.0 0.0 0.0 0.0
65 2 4.837143723150429 5.877499762075181 0.0 0.0 0.0 0.0
66 1 5.8296108539223015 6.265523846498862 0.0 0.0 0.0 0.0
67 1 6.682979698992797 7.263174367987844 0.0 0.0 0.0 0.0
68 1 7.339372105743936 7.1086755926743646 0.0 0.0 0.0 0.0
69 2 8.163051515554532 6.356037814807792 0.0 0.0 0.0 0.0
70 2 9.35989004090994 7.010363936065401 0.0 0.0 0.0 0.0
71 2 0.5250335947750775 7.718555631440867 0.0 0.0 0.0 0.0
72 1 1.473669014125057 7.125348052836457 0.0 0.0 0.0 0.0
73 1 2.7731262578084768 6.975350272009803 0.0 0.0 0.0 0.0
74 2 3.5567298239370535 7.72380973453835 0.0 0.0 0.0 0.0
75 2 5.022588657368095 7.099335347988396 0.0 0.0 0.0 0.0
76 1 6.152320742999293 6.827262660965933 0.0 0.0 0.0 0.0
77 1 6.035447986809601 7.457946001747695 0.0 0.0 0.0 0.0
78 1 7.150375183254317 7.770845109848779 0.0 0.0 0.0 0.0
79 2 8.316534583106193 7.600999037285879 0.0 0.0 0.0 0.0
80 1 9.347884176841683 8.0946044249983 0.0 0.0 0.0 0.0
81 1 0.4152015140658625 8.787998753192921 0.0 0.0 0.0 0.0
82 1 1.2648288630118618 8.521728799482403 0.0 0.0 0.0 0.0
83 2 2.2251599098390935 7.9741287564268575 0.0 0.0 0.0 0.0
84 1 3.0290899417634027 8.725094023435137 0.0 0.0 0.0 0.0
85 2 4.682203316455255 8.321443261986934 0.0 0.0 0.0 0.0
86 1 5.7194442830916215 8.024684683651099 0.0 0.0 0.0 0.0
87 1 6.438254859609787 7.9668497377685075 0.0 0.0 0.0 0.0
88 1 6.9111951788690416 8.414020492671831 0.0 0.0 0.0 0.0
89 1 7.555854600662243 8.323992792398226 0.0 0.0 0.0 0.0
90 1 9.638222259526215 8.70546925420467 0.0 0.0 0.0 0.0
91 1 0.33388488130166527 9.449616438225648 0.0 0.0 0.0 0.0
92 1 0.9779551331039922 9.124272433444535 0.0 0.0 0.0 0.0
93 2 2.078176889123995 9.27785262345461 0.0 0.0 0.0 0.0
94 1 3.687222463374727 8.801474857392403 0.0 0.0 0.0 0.0
95 2 4.468463733290451 9.54757482386694 0.0 0.0 0.0 0.0
96 2 6.038741676160791 9.055550722253043 0.0 0.0 0.0 0.0
97 1 6.549812071404985 0.15773090692971614 0.0 0.0 0.0 0.0
98 2 7.394708182235527 9.380421059873688 0.0 0.0 0.0 0.0
99 2 8.543286259892971 8.839486972531375 0.0 0.0 0.0 0.0
100 1 9.533116877854978 9.398896256559453 0.0 0.0 0.0 0.0
