ITEM: TIMESTEP
1
ITEM: NUMBER OF ATOMS
100
ITEM: BOX BOUNDS xy xz yz pp pp pp
0.0 9.88045 0.0
0.0 9.88045 0.0
0.0 10.0 0.0
ITEM: ATOMS id type x y z vx vy vz
1 2 1.5430189978649789 9.610691121847163 0.0 0.0 0.0 0.0
2 2 1.6038906534202564 0.9663528063308829 0.0 0.0 0.0 0.0
3 2 2.64407111113564 0.21947883446617047 0.0 0.0 0.0 0.0
4 2 3.7599271932435436 0.7468942438738914 0.0 0.0 0.0 0.0
5 1 4.789414355705066 0.3799712721598856 0.0 0.0 0.0 0.0
6 1 5.404755751867594 0.6399919176561526 0.0 0.0 0.0 0.0
7 1 6.053997109529034 0.48662979921942223 0.0 0.0 0.0 0.0
8 2 6.993547971042072 1.0451412764373342 0.0 0.0 0.0 0.0
9 2 8.154653713394437 0.8351295963271297 0.0 0.0 0.0 0.0
10 2 9.199072816580264 0.21751614679744297 0.0 0.0 0.0 0.0
11 2 0.5429213439160019 1.6124510685571345 0.0 0.0 0.0 0.0
12 1 1.5292477569343643 2.055225808529136 0.0 0.0 0.0 0.0
13 2 2.7063594795550716 1.4916842541678157 0.0 0.0 0.0 0.0
14 1 3.7271859098709026 1.8597682056560914 0.0 0.0 0.0 0.0
15 1 4.037762108264365 2.483127456378831 0.0 0.0 0.0 0.0
16 2 4.738801364836846 1.5278268224847034 0.0 0.0 0.0 0.0
17 2 5.941504755558699 1.608584432341104 0.0 0.0 0.0 0.0
18 1 8.105429288677536 1.9575853914402404 0.0 0.0 0.0 0.0
19 2 9.191877753470557 1.4743823772143019 0.0 0.0 0.0 0.0
20 2 0.5030771320675171 0.3500069865776924 0.0 0.0 0.0 0.0
21 2 1.1960384914414333 3.127759086667548 0.0 0.0 0.0 0.0
22 1 2.081746534926063 2.4036231783367064 0.0 0.0 0.0 0.0
23 1 2.282972679602097 3.0357612115805463 0.0 0.0 0.0 0.0
24 1 2.7339634528212207 2.565320401586339 0.0 0.0 0.0 0.0
25 1 4.692356550351857 2.626836966937951 0.0 0.0 0.0 0.0
26 1 5.331013498511814 2.5018511711900717 0.0 0.0 0.0 0.0
27 1 5.957206579173633 2.70748366526952 0.0 0.0 0.0 0.0
28 2 7.012682163576845 2.3022632359489226 0.0 0.0 0.0 0.0
29 1 8.635525960204957 2.4003154559196043 0.0 0.0 0.0 0.0
30 2 9.709511989311917 2.618013003431832 0.0 0.0 0.0 0.0
31 2 0.1126130288421897 3.7947901773927923 0.0 0.0 0.0 0.0
32 1 1.73270821227976 4.13951862270359 0.0 0.0 0.0 0.0
33 1 2.190600785313913 3.676477101378802 0.0 0.0 0.0 0.0
34 1 3.3719809052971432 2.411641979884509 0.0 0.0 0.0 0.0
35 1 4.285357701671555 3.140265708044431 0.0 0.0 0.0 0.0
36 2 5.2586121960399925 3.6278274159787425 0.0 0.0 0.0 0.0
37 1 6.386446894839382 3.1982817287606484 0.0 0.0 0.0 0.0
38 2 7.430367981542626 3.5804234502301653 0.0 0.0 0.0 0.0
39 1 8.032519695384956 2.6580528993852495 0.0 0.0 0.0 0.0
40 2 8.747986155610088 3.508267339801801 0.0 0.0 0.0 0.0
41 1 0.6503524383925195 4.757405744710655 0.0 0.0 0.0 0.0
42 1 1.089529161298655 4.258981745456342 0.0 0.0 0.0 0.0
43 2 2.7435555864884096 4.607169712480893 0.0 0.0 0.0 0.0
44 2 3.2892086397989813 3.507672560265469 0.0 0.0 0.0 0.0
45 1 4.204810938257509 4.1684395325809644 0.0 0.0 0.0 0.0
46 1 4.722871839266933 4.622972420900178 0.0 0.0 0.0 0.0
47 2 6.3312149125083605 4.258469224263448 0.0 0.0 0.0 0.0
48 2 7.0439790444602055 5.233465323483767 0.0 0.0 0.0 0.0
49 2 8.177474894536658 4.646922663585624 0.0 0.0 0.0 0.0
50 2 9.440842529497342 4.885782416593735 0.0 0.0 0.0 0.0
51 2 0.5229811274137891 5.838521511553299 0.0 0.0 0.0 0.0
52 2 1.6521478942388146 5.232826596638502 0.0 0.0 0.0 0.0
53 1 2.6913905000984246 5.685957135181923 0.0 0.0 0.0 0.0
54 2 3.802295089004945 5.25680010781839 0.0 0.0 0.0 0.0
55 1 4.9210608002029 5.2930120773925395 0.0 0.0 0.0 0.0
56 1 5.3812355569304025 4.798443745549796 0.0 0.0 0.0 0.0
57 1 5.905644050222119 5.257939741915037 0.0 0.0 0.0 0.0
58 1 8.010048374543757 5.742834969744458 0.0 0.0 0.0 0.0
59 1 8.675594956362257 5.649889037124055 0.0 0.0 0.0 0.0
60 1 9.29379412537334 5.969351790229869 0.0 0.0 0.0 0.0
61 1 1.0570041858187151 6.780759138802408 0.0 0.0 0.0 0.0
62 1 1.5493446328789602 6.320338369056625 0.0 0.0 0.0 0.0
63 1 2.2218854624694093 6.185538565607725 0.0 0.0 0.0 0.0
64 2 3.2475621841697375 6.616750557341289 0.0 0.0 0.0 0.0
65 2 4.481713942460698 6.318919156662542 0.0 0.0 0.0 0.0
66 1 5.444307016689939 5.739354128216573 0.0 0.0 0.0 0.0
67 1 6.1584910950203975 5.889454303439504 0.0 0.0 0.0 0.0
68 2 7.166973000642693 6.467345132984142 0.0 0.0 0.0 0.0
69 2 8.500780837141832 6.725585018843285 0.0 0.0 0.0 0.0
70 1 9.613621901370784 6.575357059694293 0.0 0.0 0.0 0.0
71 1 0.32720925297477105 6.994723500606338 0.0 0.0 0.0 0.0
72 1 0.9216900107141314 7.421878003601511 0.0 0.0 0.0 0.0
73 2 2.072232691933786 7.295366610075641 0.0 0.0 0.0 0.0
74 2 3.505914020500131 7.829375905915293 0.0 0.0 0.0 0.0
75 1 4.5816451071022 7.446339944936199 0.0 0.0 0.0 0.0
76 2 5.6082255697069385 6.830301982769273 0.0 0.0 0.0 0.0
77 2 6.633897821236158 7.584521972561973 0.0 0.0 0.0 0.0
78 1 7.715263729508335 7.450093861446563 0.0 0.0 0.0 0.0
79 1 8.307905583003242 7.82136219906736 0.0 0.0 0.0 0.0
80 1 9.46933344269449 7.218868906886624 0.0 0.0 0.0 0.0
81 2 0.10930318287833655 8.145623825489723 0.0 0.0 0.0 0.0
82 1 1.2520214300312498 8.010356699820596 0.0 0.0 0.0 0.0
83 1 1.8077253917385818 8.462776751968512 0.0 0.0 0.0 0.0
84 1 2.518209762913776 8.297091491389807 0.0 0.0 0.0 0.0
85 2 4.476288645394523 8.610345260727158 0.0 0.0 0.0 0.0
86 2 5.51981631148443 8.057676449460462 0.0 0.0 0.0 0.0
87 1 6.384882085156105 8.70460118858889 0.0 0.0 0.0 0.0
88 2 7.458023098725428 8.500004788687573 0.0 0.0 0.0 0.0
89 1 8.71512029812333 8.397897551513944 0.0 0.0 0.0 0.0
90 1 8.976144340667693 7.734512301618167 0.0 0.0 0.0 0.0
91 1 0.5892071970267807 9.12025722329959 0.0 0.0 0.0 0.0
92 1 1.0892174342185021 8.645719641891297 0.0 0.0 0.0 0.0
93 1 2.3483292198890986 8.928998650918237 0.0 0.0 0.0 0.0
94 2 3.401519886320106 9.142808563860527 0.0 0.0 0.0 0.0
95 1 4.390821707380037 9.707274488790468 0.0 0.0 0.0 0.0
96 2 5.50347579497437 9.399940789446745 0.0 0.0 0.0 0.0
97 2 6.9126786882478735 9.668423653220264 0.0 0.0 0.0 0.0
98 2 8.19941326760151 9.430892360607187 0.0 0.0 0.0 0.0
99 1 9.18790485611572 8.935037191241866 0.0 0.0 0.0 0.0
100 1 9.814185430500794 9.224405132582575 0.0 0.0 0.0 0.0
