ITEM: TIMESTEP
1
ITEM: NUMBER OF ATOMS
100
ITEM: BOX BOUNDS xy xz yz pp pp pp
0.0 9.88045 0.0
0.0 9.88045 0.0
0.0 10.0 0.0
ITEM: ATOMS id type x y z vx vy vz
1 2 0.5795985381775329 0.42870487901712323 0.0 0.0 0.0 0.0
2 1 1.2653344607990438 1.297038693307502 0.0 0.0 0.0 0.0
3 2 1.801015572813913 0.3299991568055732 0.0 0.0 0.0 0.0
4 2 3.0096687640979694 0.3934935180483099 0.0 0.0 0.0 0.0
5 2 4.266248292666501 0.5093352904755307 0.0 0.0 0.0 0.0
6 1 5.305547274651885 0.13308919398056035 0.0 0.0 0.0 0.0
7 2 6.3784249178261385 0.47097622619891905 0.0 0.0 0.0 0.0
8 1 7.386863208453936 0.04890816723764135 0.0 0.0 0.0 0.0
9 2 8.384713492255397 0.4527032580940898 0.0 0.0 0.0 0.0
10 1 9.409567695755534 0.10534541750437681 0.0 0.0 0.0 0.0
11 2 0.22928423144498777 1.6674921550542474 0.0 0.0 0.0 0.0
12 1 1.2914045145817352 1.9746565745963707 0.0 0.0 0.0 0.0
13 2 2.3433042885609874 1.4946409818665478 0.0 0.0 0.0 0.0
14 1 3.4985280663645315 1.3382724211619987 0.0 0.0 0.0 0.0
15 2 4.405003591822871 1.9384205862085295 0.0 0.0 0.0 0.0
16 2 5.364824315872493 1.196489625561794 0.0 0.0 0.0 0.0
17 1 6.370592128677625 1.6120851570068044 0.0 0.0 0.0 0.0
18 2 7.39020568201148 1.1887694087478482 0.0 0.0 0.0 0.0
19 2 8.808844152253094 1.699801420591606 0.0 0.0 0.0 0.0
20 1 9.429254510373427 0.7881492577306345 0.0 0.0 0.0 0.0
21 1 0.26365488920157854 2.760303087929103 0.0 0.0 0.0 0.0
22 1 0.9357811207837985 2.6019202402822357 0.0 0.0 0.0 0.0
23 2 2.0467583145206487 2.761420089104961 0.0 0.0 0.0 0.0
24 2 3.216956037704763 2.380027355761123 0.0 0.0 0.0 0.0
25 1 4.114531848921911 2.9644423299125333 0.0 0.0 0.0 0.0
26 2 5.571949757923699 2.42695285045296 0.0 0.0 0.0 0.0
27 2 6.8310647098182855 2.6124482638434916 0.0 0.0 0.0 0.0
28 1 7.826088249588169 2.1784083363212083 0.0 0.0 0.0 0.0
29 2 8.496651893102813 3.026355823698748 0.0 0.0 0.0 0.0
30 1 9.492038888612038 2.5732989401575606 0.0 0.0 0.0 0.0
31 1 0.44852385637450387 3.3967800540827655 0.0 0.0 0.0 0.0
32 1 1.1076389990273752 3.3131430606208463 0.0 0.0 0.0 0.0
33 2 3.1409682000642904 3.6174026945966546 0.0 0.0 0.0 0.0
34 1 4.202999773669877 3.5990388050572446 0.0 0.0 0.0 0.0
35 1 4.758434993922507 3.18939066089816 0.0 0.0 0.0 0.0
36 2 5.802757467269049 3.642578431124714 0.0 0.0 0.0 0.0
37 1 6.8592645107798536 3.685920949494733 0.0 0.0 0.0 0.0
38 1 7.518346849435771 3.528772909070347 0.0 0.0 0.0 0.0
39 2 8.325819872531593 4.346941927800653 0.0 0.0 0.0 0.0
40 1 9.63360664653315 3.236449546361297 0.0 0.0 0.0 0.0
41 1 9.86997636321914 3.8718697102496202 0.0 0.0 0.0 0.0
42 2 0.875593120276168 4.437195018580024 0.0 0.0 0.0 0.0
43 2 1.9897118652180397 4.014002431156035 0.0 0.0 0.0 0.0
44 2 3.9485625274955525 4.6478885757424875 0.0 0.0 0.0 0.0
45 1 4.77026730816631 3.8908757503878046 0.0 0.0 0.0 0.0
46 1 6.360991410627112 4.985049802299525 0.0 0.0 0.0 0.0
47 1 6.637380435099306 4.36698931334319 0.0 0.0 0.0 0.0
48 1 7.280445586845562 4.168658393225203 0.0 0.0 0.0 0.0
49 1 8.514310954107195 5.4218485864880375 0.0 0.0 0.0 0.0
50 1 9.23533722443985 3.802517956560755 0.0 0.0 0.0 0.0
51 2 9.491966260136621 4.917792893724996 0.0 0.0 0.0 0.0
52 2 1.960928404695406 5.393290617802475 0.0 0.0 0.0 0.0
53 1 2.843235457552416 4.700216980844224 0.0 0.0 0.0 0.0
54 2 4.485202151149926 5.769134005703665 0.0 0.0 0.0 0.0
55 2 5.303981349027076 4.816070280787075 0.0 0.0 0.0 0.0
56 1 5.614863568971674 5.848065916853106 0.0 0.0 0.0 0.0
57 1 6.280693360163188 5.664770670249384 0.0 0.0 0.0 0.0
58 2 7.408750309374445 5.230706349875468 0.0 0.0 0.0 0.0
59 1 8.182108547272943 5.998171316604618 0.0 0.0 0.0 0.0
60 1 9.533457104021133 6.036804636073876 0.0 0.0 0.0 0.0
61 2 0.6916894540179125 5.633168253721419 0.0 0.0 0.0 0.0
62 1 1.4815609796621898 6.416927360323358 0.0 0.0 0.0 0.0
63 2 3.2311777484481787 5.731547876267568 0.0 0.0 0.0 0.0
64 2 3.7982910655827578 7.080771759203657 0.0 0.0 0.0 0.0
65 2 5.089543647875679 6.813724913410182 0.0 0.0 0.0 0.0
66 1 6.17272089471598 7.036147744487666 0.0 0.0 0.0 0.0
67 1 6.064834836814965 6.338835060406087 0.0 0.0 0.0 0.0
68 2 7.132186383285174 6.414938782526695 0.0 0.0 0.0 0.0
69 1 8.177756760505515 6.653004337511571 0.0 0.0 0.0 0.0
70 1 8.86289849665532 6.0056480343969465 0.0 0.0 0.0 0.0
71 2 0.43112812969744785 6.812088575587328 0.0 0.0 0.0 0.0
72 1 1.4784810602313125 7.104414016801032 0.0 0.0 0.0 0.0
73 2 2.5363705020867053 6.759286803851539 0.0 0.0 0.0 0.0
74 1 4.02005848751907 8.168064789539663 0.0 0.0 0.0 0.0
75 2 5.116624773246252 7.997599913176956 0.0 0.0 0.0 0.0
76 1 6.169697044427719 7.739363349974678 0.0 0.0 0.0 0.0
77 1 6.741130844640662 7.408619674091924 0.0 0.0 0.0 0.0
78 1 6.793588751610286 8.070939358224338 0.0 0.0 0.0 0.0
79 2 7.806070498840683 7.679078704431361 0.0 0.0 0.0 0.0
80 2 9.134695770176318 7.111039962070873 0.0 0.0 0.0 0.0
81 1 9.48143749689431 8.172689349556238 0.0 0.0 0.0 0.0
82 2 0.7432439265539588 7.982807698157168 0.0 0.0 0.0 0.0
83 2 2.1688314749331297 7.954500057648832 0.0 0.0 0.0 0.0
84 1 3.3052552893443456 8.127619676815325 0.0 0.0 0.0 0.0
85 1 3.656960859305611 8.729890693630871 0.0 0.0 0.0 0.0
86 1 5.743414979726829 8.858079095976965 0.0 0.0 0.0 0.0
87 1 6.237433785480501 8.429703114717585 0.0 0.0 0.0 0.0
88 1 6.87038514310611 8.737574183090663 0.0 0.0 0.0 0.0
89 1 8.786826620374253 8.149342184198783 0.0 0.0 0.0 0.0
90 1 9.057174583355582 8.747799585924518 0.0 0.0 0.0 0.0
91 2 0.1884534472254454 9.115580627920727 0.0 0.0 0.0 0.0
92 2 1.4114445754866984 9.02984552093504 0.0 0.0 0.0 0.0
93 2 2.634157310542515 9.090499555215215 0.0 0.0 0.0 0.0
94 1 3.664921275854934 9.421407410525491 0.0 0.0 0.0 0.0
95 2 4.684275594878716 9.127303839446915 0.0 0.0 0.0 0.0
96 1 5.724558362260252 9.505595771914672 0.0 0.0 0.0 0.0
97 1 6.333113992080597 9.175135197437315 0.0 0.0 0.0 0.0
98 1 6.964019836476488 9.410536109942766 0.0 0.0 0.0 0.0
99 2 7.973343032240839 8.963733356101207 0.0 0.0 0.0 0.0
100 1 9.004264396732882 9.425360748519909 0.0 0.0 0.0 0.0
