ITEM: TIMESTEP
1
ITEM: NUMBER OF ATOMS
100
ITEM: BOX BOUNDS xy xz yz pp pp pp
0.0 9.88045 0.0
0.0 9.88045 0.0
0.0 10.0 0.0
ITEM: ATOMS id type x y z vx vy vz
1 2 0.8607941728051893 0.14325137285205738 0.0 0.0 0.0 0.0
2 1 2.0053884455049062 0.20857469910401194 0.0 0.0 0.0 0.0
3 1 2.740072942415228 0.30590482963564963 0.0 0.0 0.0 0.0
4 1 2.860722545126665 0.965685288055846 0.0 0.0 0.0 0.0
5 2 3.8809073077724268 0.49565876194364783 0.0 0.0 0.0 0.0
6 1 4.878602738676204 0.031499583641703806 0.0 0.0 0.0 0.0
7 2 5.9692873837174885 0.4460336688697347 0.0 0.0 0.0 0.0
8 2 7.074979069936088 1.0064418309126524 0.0 0.0 0.0 0.0
9 2 8.206166207950485 0.2684346075146282 0.0 0.0 0.0 0.0
10 2 9.521827909277826 0.3911997578677436 0.0 0.0 0.0 0.0
11 1 0.5685852151813628 1.2262347654922088 0.0 0.0 0.0 0.0
12 2 1.7207737179772615 1.2301399191318776 0.0 0.0 0.0 0.0
13 1 2.7552533766815865 1.6225153888632364 0.0 0.0 0.0 0.0
14 1 3.379058446195292 1.446713752720669 0.0 0.0 0.0 0.0
15 1 4.015550614148922 1.6153447870523583 0.0 0.0 0.0 0.0
16 2 4.973566552312969 1.1136390613812777 0.0 0.0 0.0 0.0
17 2 6.086148684211721 1.892428664702993 0.0 0.0 0.0 0.0
18 1 8.092798339147318 1.3789161866843593 0.0 0.0 0.0 0.0
19 1 8.734255188300217 1.2058515258733973 0.0 0.0 0.0 0.0
20 1 9.344431330989488 1.4391601204506972 0.0 0.0 0.0 0.0
21 2 1.3184458162635209 2.4049711505217743 0.0 0.0 0.0 0.0
22 1 2.3700465714932175 2.137332092987858 0.0 0.0 0.0 0.0
23 1 2.3356106326432244 2.7830393394173485 0.0 0.0 0.0 0.0
24 2 3.4514324602670143 2.5656749487309525 0.0 0.0 0.0 0.0
25 1 4.395080117769583 3.280551680734761 0.0 0.0 0.0 0.0
26 2 4.852424505178774 2.317767401651746 0.0 0.0 0.0 0.0
27 2 6.703894525807669 3.2886657896195732 0.0 0.0 0.0 0.0
28 2 7.369306396845188 2.213603004997038 0.0 0.0 0.0 0.0
29 2 8.674365763946739 2.313894362101406 0.0 0.0 0.0 0.0
30 2 0.12403337095973654 2.2580895986529663 0.0 0.0 0.0 0.0
31 1 0.5987784485202813 3.233125753739517 0.0 0.0 0.0 0.0
32 2 1.6367557534394228 3.635761970943141 0.0 0.0 0.0 0.0
33 1 2.6629095304790944 3.3385016224373647 0.0 0.0 0.0 0.0
34 1 3.2233930090047305 3.6481505525041036 0.0 0.0 0.0 0.0
35 1 3.8714560029704908 3.658574305782344 0.0 0.0 0.0 0.0
36 2 5.4861791136269495 3.3864095652914235 0.0 0.0 0.0 0.0
37 1 7.263945609132832 4.259710150307619 0.0 0.0 0.0 0.0
38 2 7.93520336837824 3.334066874615524 0.0 0.0 0.0 0.0
39 1 9.391407042418928 3.130805367622618 0.0 0.0 0.0 0.0
40 1 0.015651410063696858 3.5786232889548146 0.0 0.0 0.0 0.0
41 1 0.6119614549776076 3.8927029057584406 0.0 0.0 0.0 0.0
42 2 1.274310278661957 4.833114318373546 0.0 0.0 0.0 0.0
43 1 2.641055505057868 4.010779592833134 0.0 0.0 0.0 0.0
44 1 2.3520146922736456 4.630523540356862 0.0 0.0 0.0 0.0
45 2 3.470755486768393 4.686257539748786 0.0 0.0 0.0 0.0
46 2 4.713119800038123 4.3644066415279115 0.0 0.0 0.0 0.0
47 2 6.182014825201384 4.479118663388664 0.0 0.0 0.0 0.0
48 1 7.906227278917918 4.439792133461704 0.0 0.0 0.0 0.0
49 2 8.8996682630026 4.067656034941222 0.0 0.0 0.0 0.0
50 2 9.875515155197242 4.740773951558846 0.0 0.0 0.0 0.0
51 1 0.529747857457654 5.665848993474174 0.0 0.0 0.0 0.0
52 2 1.5411866430162575 6.064000678308639 0.0 0.0 0.0 0.0
53 1 2.433871576815832 5.3360495283243745 0.0 0.0 0.0 0.0
54 1 3.064040807660357 5.657573181735384 0.0 0.0 0.0 0.0
55 1 4.278683665283312 5.380486677016225 0.0 0.0 0.0 0.0
56 2 5.361516062020052 5.442960170862275 0.0 0.0 0.0 0.0
57 1 6.415729993857735 5.570711700821796 0.0 0.0 0.0 0.0
58 2 7.474130946746232 5.411889557579546 0.0 0.0 0.0 0.0
59 2 8.724622854617897 5.3094782430903225 0.0 0.0 0.0 0.0
60 1 9.735640209665814 5.801851772599675 0.0 0.0 0.0 0.0
61 2 0.4044061540419453 6.7390683879684214 0.0 0.0 0.0 0.0
62 1 1.4115780976310115 7.142721948212434 0.0 0.0 0.0 0.0
63 1 2.60511244712083 6.1014003259389815 0.0 0.0 0.0 0.0
64 1 3.2804054671331584 6.312561895143478 0.0 0.0 0.0 0.0
65 1 3.7221918779886667 5.77612738789978 0.0 0.0 0.0 0.0
66 2 4.61314113901666 6.401350547740156 0.0 0.0 0.0 0.0
67 1 5.784122149699759 6.50333836029886 0.0 0.0 0.0 0.0
68 2 6.919909821698634 6.53753754431674 0.0 0.0 0.0 0.0
69 2 8.19705758391572 6.486197822985353 0.0 0.0 0.0 0.0
70 1 9.271184632357368 6.276653510028208 0.0 0.0 0.0 0.0
71 1 0.9633450139822738 7.6553173499640055 0.0 0.0 0.0 0.0
72 1 1.591666587662388 7.778012944725335 0.0 0.0 0.0 0.0
73 2 2.507462079041936 7.167276115218452 0.0 0.0 0.0 0.0
74 1 3.602725242905162 6.913235504515183 0.0 0.0 0.0 0.0
75 2 4.493275235275616 7.5747291836817965 0.0 0.0 0.0 0.0
76 1 5.475867026030393 7.109205479531978 0.0 0.0 0.0 0.0
77 2 6.418969739596932 7.640001123456149 0.0 0.0 0.0 0.0
78 2 7.704281381193992 7.655110318773715 0.0 0.0 0.0 0.0
79 1 8.781925030424674 7.439028047469266 0.0 0.0 0.0 0.0
80 1 9.217275684947522 6.945294889748608 0.0 0.0 0.0 0.0
81 1 0.5928627842232639 8.859738326828825 0.0 0.0 0.0 0.0
82 1 1.091225195182574 8.32245845007932 0.0 0.0 0.0 0.0
83 2 2.307981107628276 8.535477322416996 0.0 0.0 0.0 0.0
84 2 3.3992713288767327 8.020858315144064 0.0 0.0 0.0 0.0
85 1 4.346058482522159 8.656341903407355 0.0 0.0 0.0 0.0
86 2 5.40161762542889 8.341707774042504 0.0 0.0 0.0 0.0
87 1 6.418340953372349 8.738448155910923 0.0 0.0 0.0 0.0
88 1 7.04938774926322 8.534823064636358 0.0 0.0 0.0 0.0
89 1 8.744601923579447 8.098379984011217 0.0 0.0 0.0 0.0
90 2 9.815940961624452 7.910419633871805 0.0 0.0 0.0 0.0
91 1 1.2725060323084199 8.982258652854387 0.0 0.0 0.0 0.0
92 1 1.7695786695897242 9.459558769076263 0.0 0.0 0.0 0.0
93 1 2.431049248263844 9.59750200994457 0.0 0.0 0.0 0.0
94 2 3.4449497462843257 9.255367426439918 0.0 0.0 0.0 0.0
95 1 4.618720998240596 9.281994915248658 0.0 0.0 0.0 0.0
96 1 5.323942945059692 9.423297963361183 0.0 0.0 0.0 0.0
97 1 5.990345469654878 9.25123755371407 0.0 0.0 0.0 0.0
98 2 7.032356321312076 9.641804203395102 0.0 0.0 0.0 0.0
99 2 8.062678790483876 8.920668531241006 0.0 0.0 0.0 0.0
100 2 9.346978280660716 9.049065136632299 0.0 0.0 0.0 0.0
