ITEM: TIMESTEP
1
ITEM: NUMBER OF ATOMS
100
ITEM: BOX BOUNDS xy xz yz pp pp pp
0.0 9.88045 0.0
0.0 9.88045 0.0
0.0 10.0 0.0
ITEM: ATOMS id type x y z vx vy vz
1 1 1.8672501660177774 0.5742929738469256 0.0 0.0 0.0 0.0
2 1 1.5814047493063077 0.002658947027443339 0.0 0.0 0.0 0.0
3 1 2.498993426646541 0.6556484841310568 0.0 0.0 0.0 0.0
4 2 3.4623890117491443 0.20958649349071526 0.0 0.0 0.0 0.0
5 2 4.707856660874636 0.10427579301071009 0.0 0.0 0.0 0.0
6 1 5.713642843506255 9.587298915103007 0.0 0.0 0.0 0.0
7 1 5.794241932450029 0.3548615517672059 0.0 0.0 0.0 0.0
8 2 6.8311052679286055 9.818435854176446 0.0 0.0 0.0 0.0
9 2 8.370328793393671 0.865398865983189 0.0 0.0 0.0 0.0
10 2 0.8550197387874334 0.8936323712292322 0.0 0.0 0.0 0.0
11 2 0.8309757420402707 2.162503189924063 0.0 0.0 0.0 0.0
12 2 1.9323613483022128 1.647843463254341 0.0 0.0 0.0 0.0
13 1 2.9184585128392784 1.1545845604487472 0.0 0.0 0.0 0.0
14 1 3.5609522522080237 1.319085669901304 0.0 0.0 0.0 0.0
15 1 4.148169648699791 1.0594530649719276 0.0 0.0 0.0 0.0
16 2 5.179208044557939 1.2497353100706377 0.0 0.0 0.0 0.0
17 1 6.20110141501186 0.871132702642223 0.0 0.0 0.0 0.0
18 2 7.199993846861566 1.2473544276098822 0.0 0.0 0.0 0.0
19 1 8.049114007493982 1.9265838585433248 0.0 0.0 0.0 0.0
20 2 9.583277082577931 1.3075312038452593 0.0 0.0 0.0 0.0
21 1 0.565841247039541 3.2213263415851214 0.0 0.0 0.0 0.0
22 1 1.2688817898261322 3.1809431945440347 0.0 0.0 0.0 0.0
23 1 1.858613192841928 2.789067251021002 0.0 0.0 0.0 0.0
24 2 3.002470723391291 2.2208927597111043 0.0 0.0 0.0 0.0
25 1 4.093555556008047 1.774563767836467 0.0 0.0 0.0 0.0
26 2 5.00373665773242 2.451031039239787 0.0 0.0 0.0 0.0
27 2 6.150677687334041 1.9820112779546872 0.0 0.0 0.0 0.0
28 2 7.192436532050178 2.576073594496935 0.0 0.0 0.0 0.0
29 1 8.700332526111877 1.9309696661277274 0.0 0.0 0.0 0.0
30 2 9.553905502696681 2.59748357720004 0.0 0.0 0.0 0.0
31 2 0.8885054850143315 4.241641427478876 0.0 0.0 0.0 0.0
32 2 2.070706572776157 3.967848743955012 0.0 0.0 0.0 0.0
33 1 2.8435130538419155 3.25161408498587 0.0 0.0 0.0 0.0
34 2 3.368287998691104 4.182236324853095 0.0 0.0 0.0 0.0
35 2 3.9276070058978196 3.028886156580149 0.0 0.0 0.0 0.0
36 1 4.933581567401789 3.523279049935522 0.0 0.0 0.0 0.0
37 2 6.064127397414795 3.36014683415873 0.0 0.0 0.0 0.0
38 2 7.317120034922208 3.783188448869362 0.0 0.0 0.0 0.0
39 2 8.37676998431491 2.9983494961817327 0.0 0.0 0.0 0.0
40 2 9.479144233844247 3.8647809368119073 0.0 0.0 0.0 0.0
41 1 0.04615147936736979 4.876511746959523 0.0 0.0 0.0 0.0
42 2 2.758053935949263 5.238839556538864 0.0 0.0 0.0 0.0
43 1 3.8644476363377933 5.182257023656848 0.0 0.0 0.0 0.0
44 1 4.33517953507601 4.66429981215218 0.0 0.0 0.0 0.0
45 1 4.453016211384172 3.9966603187515455 0.0 0.0 0.0 0.0
46 2 5.435999346749344 4.4799707612694695 0.0 0.0 0.0 0.0
47 1 6.524767893768158 4.5117887280477085 0.0 0.0 0.0 0.0
48 2 7.545772895178229 5.028586070777967 0.0 0.0 0.0 0.0
49 1 8.356218822055563 4.086889021442862 0.0 0.0 0.0 0.0
50 2 8.858357221179988 5.0272554593144285 0.0 0.0 0.0 0.0
51 1 0.5940236048100284 5.321337912866411 0.0 0.0 0.0 0.0
52 1 1.6861472026285194 4.987503765952808 0.0 0.0 0.0 0.0
53 1 2.564105817269054 6.2880490311480175 0.0 0.0 0.0 0.0
54 1 3.80954367566829 5.886896284697027 0.0 0.0 0.0 0.0
55 2 4.879520311200253 5.5970512180218135 0.0 0.0 0.0 0.0
56 2 6.100589539163815 5.531833681717214 0.0 0.0 0.0 0.0
57 1 7.019426547328359 6.039737039261936 0.0 0.0 0.0 0.0
58 1 7.660796283409613 6.109697133016976 0.0 0.0 0.0 0.0
59 1 8.281262115223916 5.912873905410935 0.0 0.0 0.0 0.0
60 1 9.820551069722493 5.518284627802426 0.0 0.0 0.0 0.0
61 1 0.3944253598036494 5.983120058443968 0.0 0.0 0.0 0.0
62 2 1.4721357691823593 6.0453828691200675 0.0 0.0 0.0 0.0
63 1 3.2323337765307465 6.234172209386236 0.0 0.0 0.0 0.0
64 1 3.663605653862256 6.743375027194755 0.0 0.0 0.0 0.0
65 1 4.273651722606653 6.476574706813892 0.0 0.0 0.0 0.0
66 2 5.474602940285468 6.704095030440251 0.0 0.0 0.0 0.0
67 1 6.581546826194487 6.554704757424759 0.0 0.0 0.0 0.0
68 1 7.279299324275041 6.659247762276722 0.0 0.0 0.0 0.0
69 1 8.13011147831446 6.564708311057409 0.0 0.0 0.0 0.0
70 2 9.247232467135287 6.431539152931597 0.0 0.0 0.0 0.0
71 2 0.5154698317416672 7.054257084059976 0.0 0.0 0.0 0.0
72 1 1.61247535479774 7.138901615127642 0.0 0.0 0.0 0.0
73 1 2.21578942759282 6.835697768956055 0.0 0.0 0.0 0.0
74 1 2.9399077936496916 6.8574368037937 0.0 0.0 0.0 0.0
75 1 3.4104257638112383 7.356556508054924 0.0 0.0 0.0 0.0
76 2 4.510441995833177 7.547543604801298 0.0 0.0 0.0 0.0
77 2 6.809150968313771 7.642741849085068 0.0 0.0 0.0 0.0
78 1 7.76359020347339 7.134265193626562 0.0 0.0 0.0 0.0
79 1 8.423457684588957 7.14565454165391 0.0 0.0 0.0 0.0
80 2 9.315918101840996 7.717138349046104 0.0 0.0 0.0 0.0
81 2 0.45104941080040284 8.359243300006746 0.0 0.0 0.0 0.0
82 1 1.357103423512836 7.758645649195475 0.0 0.0 0.0 0.0
83 2 2.4422250049467555 7.868456928582576 0.0 0.0 0.0 0.0
84 1 3.505607826886143 8.017514928484546 0.0 0.0 0.0 0.0
85 1 3.934885866549618 8.506772392457812 0.0 0.0 0.0 0.0
86 1 5.638865797269051 7.7965259178096655 0.0 0.0 0.0 0.0
87 1 6.015187647203322 8.362767381130991 0.0 0.0 0.0 0.0
88 1 7.256331800694309 8.779250133742575 0.0 0.0 0.0 0.0
89 2 8.154809123739245 8.191374414536597 0.0 0.0 0.0 0.0
90 1 9.12240127416245 8.819013198217823 0.0 0.0 0.0 0.0
91 2 0.5636345897332158 9.562667603338753 0.0 0.0 0.0 0.0
92 2 1.6495669589692923 8.822201457489017 0.0 0.0 0.0 0.0
93 1 2.2669202620448083 0.004265313558093453 0.0 0.0 0.0 0.0
94 2 2.917165985123397 8.99011693646556 0.0 0.0 0.0 0.0
95 1 4.001685537366192 9.15903566920577 0.0 0.0 0.0 0.0
96 2 5.000230091645202 8.727293752316164 0.0 0.0 0.0 0.0
97 1 6.045617883321642 9.030869739705196 0.0 0.0 0.0 0.0
98 1 6.608579973421714 8.707837290864669 0.0 0.0 0.0 0.0
99 2 8.11728824875217 9.465158868179984 0.0 0.0 0.0 0.0
100 2 9.287730466149396 0.04182114810510029 0.0 0.0 0.0 0.0
