ITEM: TIMESTEP
1
ITEM: NUMBER OF ATOMS
100
ITEM: BOX BOUNDS xy xz yz pp pp pp
0.0 9.88045 0.0
0.0 9.88045 0.0
0.0 10.0 0.0
ITEM: ATOMS id type x y z vx vy vz
1 2 1.2786450653619439 0.43248563631766374 0.0 0.0 0.0 0.0
2 2 2.571135777187616 0.828066568558229 0.0 0.0 0.0 0.0
3 1 3.6946008208184704 0.9158433177547628 0.0 0.0 0.0 0.0
4 1 4.290927347812563 0.5704698638256848 0.0 0.0 0.0 0.0
5 1 4.488745121725311 9.78843596498815 0.0 0.0 0.0 0.0
6 1 4.991314338365879 0.35402566198216995 0.0 0.0 0.0 0.0
7 2 5.852492276137315 1.0825673322595382 0.0 0.0 0.0 0.0
8 2 7.121776003201866 0.7566182121249526 0.0 0.0 0.0 0.0
9 2 8.428190712808062 0.7756563134870279 0.0 0.0 0.0 0.0
10 2 9.737634155936151 0.38535666454190504 0.0 0.0 0.0 0.0
11 2 0.6030307265131377 1.4697634626364873 0.0 0.0 0.0 0.0
12 2 1.8150238452533156 1.921606757345227 0.0 0.0 0.0 0.0
13 1 2.892115085002632 1.8324468655351913 0.0 0.0 0.0 0.0
14 1 3.4964630320643337 1.5430577603177273 0.0 0.0 0.0 0.0
15 1 4.201378489943893 1.3400177015514552 0.0 0.0 0.0 0.0
16 1 4.782228050946845 1.0106632923140313 0.0 0.0 0.0 0.0
17 1 6.676186567051558 1.769076581558864 0.0 0.0 0.0 0.0
18 2 7.7492690184656485 1.8192153624719973 0.0 0.0 0.0 0.0
19 1 8.832148226439664 1.7973322476509626 0.0 0.0 0.0 0.0
20 1 9.361631125881505 1.393506009132441 0.0 0.0 0.0 0.0
21 1 0.9262186172630293 2.551574152491185 0.0 0.0 0.0 0.0
22 1 1.440925460557273 3.0025634478669847 0.0 0.0 0.0 0.0
23 1 2.7862686156178107 2.4808807089722387 0.0 0.0 0.0 0.0
24 1 3.413321758624807 2.223460011439198 0.0 0.0 0.0 0.0
25 1 4.0090403403504276 1.982816910649334 0.0 0.0 0.0 0.0
26 2 5.054935171469639 2.08433710295753 0.0 0.0 0.0 0.0
27 1 6.1331867564348155 2.1556903665022555 0.0 0.0 0.0 0.0
28 2 6.998491650580032 2.8127797715529606 0.0 0.0 0.0 0.0
29 1 8.642377736446422 2.445709103365326 0.0 0.0 0.0 0.0
30 2 9.717382092164794 2.424559918102196 0.0 0.0 0.0 0.0
31 2 0.35955196591701927 3.497650342795049 0.0 0.0 0.0 0.0
32 1 1.4148707489891408 3.6858398964413808 0.0 0.0 0.0 0.0
33 2 2.4931098702699916 3.5073660021811808 0.0 0.0 0.0 0.0
34 1 3.3652020589800538 2.8644388844025923 0.0 0.0 0.0 0.0
35 1 4.0367425214439 2.6794140392378076 0.0 0.0 0.0 0.0
36 2 4.963669317947933 3.3632078155660423 0.0 0.0 0.0 0.0
37 1 5.901857895524667 2.7924126772302675 0.0 0.0 0.0 0.0
38 1 7.3364260932997505 3.825218310728183 0.0 0.0 0.0 0.0
39 1 8.113512342722585 2.8416220268399273 0.0 0.0 0.0 0.0
40 2 9.00696315540662 3.4992805035755072 0.0 0.0 0.0 0.0
41 1 1.0646664443844955 4.307473513957779 0.0 0.0 0.0 0.0
42 1 1.7250626193677483 4.271244725040442 0.0 0.0 0.0 0.0
43 1 2.306724634356061 4.5811588903317855 0.0 0.0 0.0 0.0
44 1 2.9765010296173124 4.517431303944907 0.0 0.0 0.0 0.0
45 2 3.816653324275142 3.8248170017379612 0.0 0.0 0.0 0.0
46 2 4.646647865254657 4.796611818208774 0.0 0.0 0.0 0.0
47 2 6.196460881670119 3.8633621910721376 0.0 0.0 0.0 0.0
48 1 7.888404438814472 3.45512835704668 0.0 0.0 0.0 0.0
49 2 8.245448934026683 4.466555056127104 0.0 0.0 0.0 0.0
50 1 9.617808129672438 4.4867738962736174 0.0 0.0 0.0 0.0
51 1 0.4391123251364345 4.566960248538509 0.0 0.0 0.0 0.0
52 2 1.464177811806593 5.319642040940045 0.0 0.0 0.0 0.0
53 2 2.696260276755008 5.578186216079898 0.0 0.0 0.0 0.0
54 1 3.54815526741953 4.889597389335006 0.0 0.0 0.0 0.0
55 2 3.870646174901113 5.952420502822009 0.0 0.0 0.0 0.0
56 1 4.948979309644865 5.876179329059214 0.0 0.0 0.0 0.0
57 2 5.8402511630734875 5.212547466225163 0.0 0.0 0.0 0.0
58 2 7.023021073573458 4.836556907033293 0.0 0.0 0.0 0.0
59 1 7.900209957227431 5.501156218366013 0.0 0.0 0.0 0.0
60 2 8.980988982498117 5.42851383696492 0.0 0.0 0.0 0.0
61 2 0.2822694644033551 5.615021644432379 0.0 0.0 0.0 0.0
62 2 1.8802823474118244 6.493670853459598 0.0 0.0 0.0 0.0
63 1 2.9923316650033858 6.615185894864308 0.0 0.0 0.0 0.0
64 1 3.536580270910003 7.0106349417085365 0.0 0.0 0.0 0.0
65 1 4.2549587781663645 7.057114861942713 0.0 0.0 0.0 0.0
66 1 4.756447399545974 6.5719023419621765 0.0 0.0 0.0 0.0
67 2 5.837691115492243 6.4959732121492495 0.0 0.0 0.0 0.0
68 2 6.97335687372715 6.04847376340071 0.0 0.0 0.0 0.0
69 2 8.285678925551005 6.530550614585219 0.0 0.0 0.0 0.0
70 1 9.409562376758783 6.439064059308612 0.0 0.0 0.0 0.0
71 2 0.5850383417081092 6.785192613127326 0.0 0.0 0.0 0.0
72 1 1.4383219323316363 7.4627024033283575 0.0 0.0 0.0 0.0
73 2 2.55432480482342 7.599859177280686 0.0 0.0 0.0 0.0
74 1 3.827802957936188 7.608560837402877 0.0 0.0 0.0 0.0
75 1 4.4961719510331974 7.729740092872146 0.0 0.0 0.0 0.0
76 1 4.953574481453443 7.223306261300873 0.0 0.0 0.0 0.0
77 2 5.970983984101286 7.696298411478309 0.0 0.0 0.0 0.0
78 2 7.121547800399634 7.2488682538754095 0.0 0.0 0.0 0.0
79 1 8.130616011012071 7.6128042487183 0.0 0.0 0.0 0.0
80 2 9.211986207251416 7.5168329956634095 0.0 0.0 0.0 0.0
81 2 0.48125286102742765 8.00502935925246 0.0 0.0 0.0 0.0
82 2 1.6194534904610045 8.509297128677172 0.0 0.0 0.0 0.0
83 2 3.3096453179789247 8.565761437484836 0.0 0.0 0.0 0.0
84 1 4.3847168068952955 8.415555547060947 0.0 0.0 0.0 0.0
85 1 4.913313012014997 8.843601108968661 0.0 0.0 0.0 0.0
86 1 5.0142228245627996 8.180139570183789 0.0 0.0 0.0 0.0
87 2 6.003264534212815 8.899489681662402 0.0 0.0 0.0 0.0
88 1 6.956095954600887 8.328386143422438 0.0 0.0 0.0 0.0
89 2 8.334991619872016 8.669342220657327 0.0 0.0 0.0 0.0
90 1 9.454786353515244 8.597926293585482 0.0 0.0 0.0 0.0
91 2 0.5552092531998475 9.23862331966618 0.0 0.0 0.0 0.0
92 2 2.2441892923094287 9.518619467165383 0.0 0.0 0.0 0.0
93 2 3.4237540299755573 9.771943255854435 0.0 0.0 0.0 0.0
94 1 4.304489223360683 9.115140293587379 0.0 0.0 0.0 0.0
95 1 5.077450584752585 9.499771551969106 0.0 0.0 0.0 0.0
96 1 5.602051417965751 0.03416345068253612 0.0 0.0 0.0 0.0
97 1 6.284518490172394 0.06537373308213645 0.0 0.0 0.0 0.0
98 2 7.266194548819447 9.387912484074226 0.0 0.0 0.0 0.0
99 1 8.796086694531134 9.650762271637026 0.0 0.0 0.0 0.0
100 1 9.322115400347482 9.244103720107983 0.0 0.0 0.0 0.0
