ITEM: TIMESTEP
1
ITEM: NUMBER OF ATOMS
100
ITEM: BOX BOUNDS xy xz yz pp pp pp
0.0 9.88045 0.0
0.0 9.88045 0.0
0.0 10.0 0.0
ITEM: ATOMS id type x y z vx vy vz
1 1 1.2497041230699528 0.6850172401218463 0.0 0.0 0.0 0.0
2 1 1.8303685763411366 1.0265615067277452 0.0 0.0 0.0 0.0
3 1 2.4852929458242166 0.9830935116499656 0.0 0.0 0.0 0.0
4 2 3.3305863316734468 0.28547195789791496 0.0 0.0 0.0 0.0
5 1 4.4308944305239395 0.35342553231180285 0.0 0.0 0.0 0.0
6 1 5.05462124251358 0.17117325637677 0.0 0.0 0.0 0.0
7 1 5.737642741061631 0.22360523570070379 0.0 0.0 0.0 0.0
8 1 7.314477060348297 0.045999014975140445 0.0 0.0 0.0 0.0
9 1 9.01970131508808 0.6526609933909687 0.0 0.0 0.0 0.0
10 1 9.447343660618758 0.14007639307182806 0.0 0.0 0.0 0.0
11 2 0.1985231060359622 1.0362356984113221 0.0 0.0 0.0 0.0
12 1 1.25887822917642 1.347127216912573 0.0 0.0 0.0 0.0
13 1 3.004538440926349 1.387604439580984 0.0 0.0 0.0 0.0
14 1 3.6504124209905098 1.3220679078919897 0.0 0.0 0.0 0.0
15 1 4.20347095054205 0.9564179516726582 0.0 0.0 0.0 0.0
16 2 5.274852389281507 1.2289200413864854 0.0 0.0 0.0 0.0
17 2 6.609797076478502 0.8891014755139556 0.0 0.0 0.0 0.0
18 2 7.920972882626407 0.9530574343116378 0.0 0.0 0.0 0.0
19 1 8.561216346886598 1.816397193711338 0.0 0.0 0.0 0.0
20 1 8.988947346791441 1.3082486979200532 0.0 0.0 0.0 0.0
21 2 0.9707277984282328 2.363025933516274 0.0 0.0 0.0 0.0
22 2 2.1756797976402438 2.082180992518912 0.0 0.0 0.0 0.0
23 1 2.631385951416291 3.08854030063269 0.0 0.0 0.0 0.0
24 2 3.494235318547509 2.4046254261909916 0.0 0.0 0.0 0.0
25 1 4.2385559972517886 1.6047445417923634 0.0 0.0 0.0 0.0
26 2 4.851854696685404 2.452344572673257 0.0 0.0 0.0 0.0
27 2 6.20411101034336 2.0831104612906204 0.0 0.0 0.0 0.0
28 2 7.458682775591474 2.1412065020610993 0.0 0.0 0.0 0.0
29 1 8.502445510012187 2.4617268784709223 0.0 0.0 0.0 0.0
30 2 9.608243311280049 2.2062337718236105 0.0 0.0 0.0 0.0
31 2 0.4087201652614862 3.4265611554230477 0.0 0.0 0.0 0.0
32 2 1.6059841181904155 3.4870094563549734 0.0 0.0 0.0 0.0
33 1 2.636691532798129 3.7677080650568033 0.0 0.0 0.0 0.0
34 1 3.203489071089308 3.4533228476934332 0.0 0.0 0.0 0.0
35 2 4.264791267359654 3.5399137334727193 0.0 0.0 0.0 0.0
36 1 5.72371815998891 3.043208656835316 0.0 0.0 0.0 0.0
37 2 6.688250530707258 3.487152152716682 0.0 0.0 0.0 0.0
38 1 7.394216040486776 4.331169625524513 0.0 0.0 0.0 0.0
39 2 7.903749558166102 3.3743751588183675 0.0 0.0 0.0 0.0
40 2 9.116071233424842 3.330892668225254 0.0 0.0 0.0 0.0
41 1 0.890946608608887 4.401072216452832 0.0 0.0 0.0 0.0
42 2 1.6421114755010116 5.168960117321243 0.0 0.0 0.0 0.0
43 1 2.3048089222571813 4.338451511057842 0.0 0.0 0.0 0.0
44 2 3.3632439615171497 4.58147671762719 0.0 0.0 0.0 0.0
45 1 4.459250216962137 4.61264814925146 0.0 0.0 0.0 0.0
46 2 5.399829329522882 4.053926273609974 0.0 0.0 0.0 0.0
47 2 6.4215391314980925 4.745817217222636 0.0 0.0 0.0 0.0
48 1 8.017912853195037 4.510673391087171 0.0 0.0 0.0 0.0
49 1 8.610618420318398 4.2544595865710315 0.0 0.0 0.0 0.0
50 2 9.676875298654098 4.498991701990899 0.0 0.0 0.0 0.0
51 2 0.49125780999605223 5.538802388691122 0.0 0.0 0.0 0.0
52 1 1.554060927056682 6.2590639221479965 0.0 0.0 0.0 0.0
53 2 2.6437381069712407 5.8349368870327325 0.0 0.0 0.0 0.0
54 1 3.708964825475566 5.649211414534678 0.0 0.0 0.0 0.0
55 1 4.232409768768094 5.238753557818055 0.0 0.0 0.0 0.0
56 2 5.3217306541458615 5.285505164229368 0.0 0.0 0.0 0.0
57 2 6.322506786201677 5.98752964445652 0.0 0.0 0.0 0.0
58 2 7.4831662023608905 5.455841933177164 0.0 0.0 0.0 0.0
59 2 8.766545573867132 5.3243210915441 0.0 0.0 0.0 0.0
60 1 9.474501750218609 6.1496620592620586 0.0 0.0 0.0 0.0
61 2 0.5682701298183467 6.798678142578441 0.0 0.0 0.0 0.0
62 1 1.664371749191091 6.932609889721664 0.0 0.0 0.0 0.0
63 1 2.3243288266541344 6.865907648213119 0.0 0.0 0.0 0.0
64 2 3.5124446226379704 6.750596041990432 0.0 0.0 0.0 0.0
65 2 4.620890823694139 6.2593400566540485 0.0 0.0 0.0 0.0
66 1 5.548158430603892 6.788768765980488 0.0 0.0 0.0 0.0
67 1 6.8170576108299725 6.9904353922939055 0.0 0.0 0.0 0.0
68 1 7.261534315606806 6.5247203267873495 0.0 0.0 0.0 0.0
69 2 8.309537738217717 6.4432265129785815 0.0 0.0 0.0 0.0
70 1 9.325671796313761 6.7864165821832625 0.0 0.0 0.0 0.0
71 2 9.690357891118154 7.779127135111626 0.0 0.0 0.0 0.0
72 1 1.3846521578784137 7.5487563900735735 0.0 0.0 0.0 0.0
73 1 2.0465340915932044 7.531032730092994 0.0 0.0 0.0 0.0
74 1 2.6976071877007057 7.405187768854018 0.0 0.0 0.0 0.0
75 2 4.575542624425224 7.4864226941355385 0.0 0.0 0.0 0.0
76 1 5.658655841352257 7.444552199962783 0.0 0.0 0.0 0.0
77 1 6.167430459697858 7.04793398979909 0.0 0.0 0.0 0.0
78 1 7.456372376517424 7.204091151253318 0.0 0.0 0.0 0.0
79 1 8.022658722372372 7.58190137406939 0.0 0.0 0.0 0.0
80 1 8.67904903476494 7.435328810742847 0.0 0.0 0.0 0.0
81 1 0.5714765255667178 8.565987957564444 0.0 0.0 0.0 0.0
82 1 0.8556940194704539 7.937815776654016 0.0 0.0 0.0 0.0
83 1 2.535341100719612 8.02531943039422 0.0 0.0 0.0 0.0
84 1 3.210774212246404 7.84909717140906 0.0 0.0 0.0 0.0
85 1 3.778753943018256 8.206708501982888 0.0 0.0 0.0 0.0
86 2 5.387476898060478 8.464473894508476 0.0 0.0 0.0 0.0
87 2 6.624336701418883 8.046343279098512 0.0 0.0 0.0 0.0
88 1 7.69143666890306 8.176372544379934 0.0 0.0 0.0 0.0
89 2 8.714491853213302 8.51701864175812 0.0 0.0 0.0 0.0
90 1 9.822643742732373 8.837086433584833 0.0 0.0 0.0 0.0
91 2 0.6450198934404179 9.670065056494447 0.0 0.0 0.0 0.0
92 2 1.6686932237838878 8.651311255827476 0.0 0.0 0.0 0.0
93 2 2.06650592259379 9.835700807231838 0.0 0.0 0.0 0.0
94 2 3.0109228660304783 8.979459588438162 0.0 0.0 0.0 0.0
95 2 4.328198210376744 9.161354184914082 0.0 0.0 0.0 0.0
96 1 5.4138017424273075 9.517587635732749 0.0 0.0 0.0 0.0
97 2 6.470460981194661 9.265708947483457 0.0 0.0 0.0 0.0
98 1 7.546704195281626 8.85000382733503 0.0 0.0 0.0 0.0
99 2 8.362693925672671 9.666525778137538 0.0 0.0 0.0 0.0
100 1 9.426532858295433 9.362105137878782 0.0 0.0 0.0 0.0
