ITEM: TIMESTEP
1
ITEM: NUMBER OF ATOMS
100
ITEM: BOX BOUNDS xy xz yz pp pp pp
0.0 9.88045 0.0
0.0 9.88045 0.0
0.0 10.0 0.0
ITEM: ATOMS id type x y z vx vy vz
1 2 0.2623083905670923 0.18168998902328545 0.0 0.0 0.0 0.0
2 1 1.4088950830477815 0.38642867162396466 0.0 0.0 0.0 0.0
3 1 1.974446677465029 0.7908389503154679 0.0 0.0 0.0 0.0
4 2 3.0533145745093684 0.7031529147187534 0.0 0.0 0.0 0.0
5 2 4.288068237057536 0.7264742343062208 0.0 0.0 0.0 0.0
6 1 5.1755324979748485 0.053559817966995216 0.0 0.0 0.0 0.0
7 2 6.888388424396596 0.6857516109146337 0.0 0.0 0.0 0.0
8 2 8.03823028339279 0.23714339213159058 0.0 0.0 0.0 0.0
9 1 9.053742800308564 9.703816086782929 0.0 0.0 0.0 0.0
10 1 9.446894492008154 9.166458496380887 0.0 0.0 0.0 0.0
11 2 9.792276341713377 1.3507853374473149 0.0 0.0 0.0 0.0
12 2 1.1161218098582706 1.4367719602352016 0.0 0.0 0.0 0.0
13 2 2.4616319157227986 1.848841969301396 0.0 0.0 0.0 0.0
14 1 3.543575521675543 1.6474566245509086 0.0 0.0 0.0 0.0
15 2 4.5722666480745255 1.9217876325699135 0.0 0.0 0.0 0.0
16 2 5.574055643220616 1.073379076621301 0.0 0.0 0.0 0.0
17 2 6.565563584881663 1.864073971752057 0.0 0.0 0.0 0.0
18 2 7.783596506150334 1.6988706913209262 0.0 0.0 0.0 0.0
19 1 8.721681584378805 1.0955946485811519 0.0 0.0 0.0 0.0
20 1 9.089537912364202 0.5118394798806221 0.0 0.0 0.0 0.0
21 2 0.22427599723992636 2.5986847439468783 0.0 0.0 0.0 0.0
22 2 1.4780949325259496 2.593730272757747 0.0 0.0 0.0 0.0
23 1 2.4670711299410253 3.0424825149246475 0.0 0.0 0.0 0.0
24 2 3.5235132672900464 2.7447131535294726 0.0 0.0 0.0 0.0
25 1 4.581594902782413 3.0118877317704937 0.0 0.0 0.0 0.0
26 2 5.588153330585279 2.5500298380302513 0.0 0.0 0.0 0.0
27 1 6.574576357087544 3.0011103968720256 0.0 0.0 0.0 0.0
28 1 7.209415124014154 2.728529561603524 0.0 0.0 0.0 0.0
29 2 8.208685014606298 3.145788982756672 0.0 0.0 0.0 0.0
30 2 8.926123387697588 2.1870176495148597 0.0 0.0 0.0 0.0
31 2 0.9070913617409893 3.6723903887958995 0.0 0.0 0.0 0.0
32 1 1.9891068046705807 3.5554275557670723 0.0 0.0 0.0 0.0
33 1 2.6277072813413107 3.70727659417009 0.0 0.0 0.0 0.0
34 1 3.2830080410426135 3.7923336995546806 0.0 0.0 0.0 0.0
35 1 4.371738829800293 3.650496541541858 0.0 0.0 0.0 0.0
36 1 5.047914884526066 3.486361629695624 0.0 0.0 0.0 0.0
37 1 5.743195307595049 3.6211979522675546 0.0 0.0 0.0 0.0
38 1 7.096324988092478 3.4091641101257526 0.0 0.0 0.0 0.0
39 1 8.470372993117195 4.1903301065609 0.0 0.0 0.0 0.0
40 2 9.48381987677534 3.7729069621335833 0.0 0.0 0.0 0.0
41 2 0.4447388587909299 4.781148818055157 0.0 0.0 0.0 0.0
42 2 1.826965090439774 4.663425274178371 0.0 0.0 0.0 0.0
43 1 2.877051793539253 5.0333361118719955 0.0 0.0 0.0 0.0
44 1 2.8693943126560786 4.3400031871991915 0.0 0.0 0.0 0.0
45 2 3.9132106887125637 4.654759728445852 0.0 0.0 0.0 0.0
46 2 5.156770311073049 4.547281131145131 0.0 0.0 0.0 0.0
47 2 6.497321791972597 4.425936293967291 0.0 0.0 0.0 0.0
48 1 7.486482522929127 3.9409828123760993 0.0 0.0 0.0 0.0
49 1 8.880931057066205 4.720848019273091 0.0 0.0 0.0 0.0
50 1 9.344748216404605 5.213599097850548 0.0 0.0 0.0 0.0
51 1 0.5790913834673866 5.875579686788454 0.0 0.0 0.0 0.0
52 1 1.1939237232502133 5.575231705685257 0.0 0.0 0.0 0.0
53 1 2.546701088063934 5.627462358779136 0.0 0.0 0.0 0.0
54 1 3.256160097227154 5.61795109248809 0.0 0.0 0.0 0.0
55 1 4.59690826685288 5.4906888780134215 0.0 0.0 0.0 0.0
56 1 5.253768201761941 5.640572913978807 0.0 0.0 0.0 0.0
57 1 5.869745015584188 5.376442316310042 0.0 0.0 0.0 0.0
58 2 7.731199648688015 4.973985224671829 0.0 0.0 0.0 0.0
59 1 8.710593705125435 5.377686208749747 0.0 0.0 0.0 0.0
60 1 9.789178105642506 5.725392076790074 0.0 0.0 0.0 0.0
61 1 0.7125268496987925 6.526066829261846 0.0 0.0 0.0 0.0
62 2 1.8083556160492422 6.472493940167729 0.0 0.0 0.0 0.0
63 1 2.920927640883952 6.505087725864171 0.0 0.0 0.0 0.0
64 1 3.542691090652753 6.250300886951269 0.0 0.0 0.0 0.0
65 1 3.951509540607583 5.728744825237763 0.0 0.0 0.0 0.0
66 2 4.655102031965451 6.5636304483423356 0.0 0.0 0.0 0.0
67 2 6.860958947986829 5.793707911346295 0.0 0.0 0.0 0.0
68 2 8.036633957009316 6.2347377229968695 0.0 0.0 0.0 0.0
69 1 9.139781995671413 5.8768114739699655 0.0 0.0 0.0 0.0
70 1 0.06476014247014561 6.366507488451492 0.0 0.0 0.0 0.0
71 1 0.8313819484266989 7.835233678661405 0.0 0.0 0.0 0.0
72 1 0.8822213178424468 7.164468146806827 0.0 0.0 0.0 0.0
73 1 1.4372901144590426 7.509308397013881 0.0 0.0 0.0 0.0
74 2 2.5222864331929986 7.552498991004265 0.0 0.0 0.0 0.0
75 2 3.7318859812949503 7.328286749890983 0.0 0.0 0.0 0.0
76 2 5.322012143033944 7.62025529938159 0.0 0.0 0.0 0.0
77 2 5.898194366371857 6.528159887149314 0.0 0.0 0.0 0.0
78 2 7.070056248300455 7.051925971143546 0.0 0.0 0.0 0.0
79 2 9.016327210547214 6.946081647298384 0.0 0.0 0.0 0.0
80 1 0.23209727776486133 7.026143506231367 0.0 0.0 0.0 0.0
81 1 0.6555109104587891 8.484778976721143 0.0 0.0 0.0 0.0
82 2 1.7222161983051136 8.546164298581372 0.0 0.0 0.0 0.0
83 1 2.7836215409089164 8.640494661137879 0.0 0.0 0.0 0.0
84 1 3.3476722016843232 8.327792174120926 0.0 0.0 0.0 0.0
85 2 4.416462085606008 8.471568885121052 0.0 0.0 0.0 0.0
86 1 5.516860845768678 8.685047274103853 0.0 0.0 0.0 0.0
87 2 6.484749647247216 8.175655294802485 0.0 0.0 0.0 0.0
88 1 7.593210792943923 8.015234256077852 0.0 0.0 0.0 0.0
89 1 8.088683941435209 7.546373572788584 0.0 0.0 0.0 0.0
90 2 9.584662486080754 8.00374603039417 0.0 0.0 0.0 0.0
91 1 0.8217261993952117 9.129332529576592 0.0 0.0 0.0 0.0
92 1 1.2593191775599373 9.613354479558515 0.0 0.0 0.0 0.0
93 2 2.3231713582363747 9.621862115586119 0.0 0.0 0.0 0.0
94 2 3.5539762549457135 9.42487201493552 0.0 0.0 0.0 0.0
95 1 4.610242172205514 9.572944815788802 0.0 0.0 0.0 0.0
96 1 5.17710897098357 9.252159825869295 0.0 0.0 0.0 0.0
97 2 6.207408157901006 9.544148090068393 0.0 0.0 0.0 0.0
98 2 7.349127075221775 9.091412900185402 0.0 0.0 0.0 0.0
99 2 8.50341219834301 8.640266862527671 0.0 0.0 0.0 0.0
100 1 0.18866031005103778 8.96685053552039 0.0 0.0 0.0 0.0
