ITEM: TIMESTEP
1
ITEM: NUMBER OF ATOMS
100
ITEM: BOX BOUNDS xy xz yz pp pp pp
0.0 9.88045 0.0
0.0 9.88045 0.0
0.0 10.0 0.0
ITEM: ATOMS id type x y z vx vy vz
1 2 0.007254541347193565 1.0865292482074316 0.0 0.0 0.0 0.0
2 1 1.2006884268437663 0.7206958261519368 0.0 0.0 0.0 0.0
3 2 2.399391214993266 0.5006319175124587 0.0 0.0 0.0 0.0
4 1 3.4657342792921058 0.41314622807459167 0.0 0.0 0.0 0.0
5 1 3.9749390320720157 0.9005504767998735 0.0 0.0 0.0 0.0
6 2 5.538039766514765 0.23058695192312884 0.0 0.0 0.0 0.0
7 1 6.551486610442768 0.7664265532956738 0.0 0.0 0.0 0.0
8 2 7.368570656942197 9.805120674018317 0.0 0.0 0.0 0.0
9 1 8.432373554809134 0.36554096228193017 0.0 0.0 0.0 0.0
10 1 9.097726580576918 0.35600864019254963 0.0 0.0 0.0 0.0
11 1 1.0200919856900212 1.390147004248027 0.0 0.0 0.0 0.0
12 1 1.6581286055728277 1.2643136367173873 0.0 0.0 0.0 0.0
13 1 3.3400111324086943 1.0574303165974706 0.0 0.0 0.0 0.0
14 1 3.779041416211152 1.5634426963485228 0.0 0.0 0.0 0.0
15 1 4.631234139857876 0.9579088749817835 0.0 0.0 0.0 0.0
16 2 5.598582886089882 1.404746944969615 0.0 0.0 0.0 0.0
17 1 6.657714059819482 1.509266400046065 0.0 0.0 0.0 0.0
18 2 7.6332432500639396 1.0936269288034033 0.0 0.0 0.0 0.0
19 1 8.480163893666038 2.599145378526849 0.0 0.0 0.0 0.0
20 2 8.761201017897347 1.5204577559068184 0.0 0.0 0.0 0.0
21 2 0.3108538760956215 2.258254106205199 0.0 0.0 0.0 0.0
22 2 1.5276049473373794 2.3537645579123803 0.0 0.0 0.0 0.0
23 2 2.6169645194516087 1.8260341972749068 0.0 0.0 0.0 0.0
24 2 3.5467527837658483 2.6409303935238126 0.0 0.0 0.0 0.0
25 2 4.692395418455072 2.2060900143058517 0.0 0.0 0.0 0.0
26 1 5.786921609680034 2.4593902250306696 0.0 0.0 0.0 0.0
27 1 6.385487367020263 2.1314789330199764 0.0 0.0 0.0 0.0
28 2 7.45432901985414 2.3055201104364262 0.0 0.0 0.0 0.0
29 1 8.816973256395892 3.1689099953891633 0.0 0.0 0.0 0.0
30 1 9.146476937069762 2.5667639104898408 0.0 0.0 0.0 0.0
31 2 9.853814420411556 3.429413755771026 0.0 0.0 0.0 0.0
32 2 1.2019545630640858 3.527271903234289 0.0 0.0 0.0 0.0
33 2 2.418345443448944 3.2360514028034157 0.0 0.0 0.0 0.0
34 1 3.391421716729724 3.706859306073937 0.0 0.0 0.0 0.0
35 2 4.496670856263603 3.5437230391090724 0.0 0.0 0.0 0.0
36 1 5.462409027827341 3.035195633850634 0.0 0.0 0.0 0.0
37 2 6.584134278496962 3.197111308723442 0.0 0.0 0.0 0.0
38 2 7.802360703776568 3.5418482803396234 0.0 0.0 0.0 0.0
39 1 8.843969157635167 3.857370568612873 0.0 0.0 0.0 0.0
40 1 9.283151111547117 4.366913337110602 0.0 0.0 0.0 0.0
41 2 0.47475745166954525 4.546071807030889 0.0 0.0 0.0 0.0
42 1 1.561013603704308 4.548058648116381 0.0 0.0 0.0 0.0
43 2 2.6305223259094808 4.5268421154652785 0.0 0.0 0.0 0.0
44 1 3.6722691066206186 4.295043891564595 0.0 0.0 0.0 0.0
45 1 4.232954281529864 4.608813498245189 0.0 0.0 0.0 0.0
46 1 5.615399044502931 3.690822906407299 0.0 0.0 0.0 0.0
47 2 6.838936091438666 4.386669596546642 0.0 0.0 0.0 0.0
48 1 7.963134602159646 4.624587181866013 0.0 0.0 0.0 0.0
49 1 8.62097381228668 4.50523206857605 0.0 0.0 0.0 0.0
50 1 9.112195391765788 5.009899051307233 0.0 0.0 0.0 0.0
51 2 0.13236518101259473 5.684903416966633 0.0 0.0 0.0 0.0
52 2 1.3991141093954602 5.620665959524676 0.0 0.0 0.0 0.0
53 2 2.6823014972116352 5.782183396311455 0.0 0.0 0.0 0.0
54 1 3.650932035967911 4.986655080583064 0.0 0.0 0.0 0.0
55 1 4.307254924422041 5.25631005036471 0.0 0.0 0.0 0.0
56 2 5.294133253361202 4.721327146731369 0.0 0.0 0.0 0.0
57 1 6.22528561283496 5.275687816055034 0.0 0.0 0.0 0.0
58 2 7.352257456840691 5.511064253707595 0.0 0.0 0.0 0.0
59 1 8.42239028713649 5.1750173382188205 0.0 0.0 0.0 0.0
60 1 8.918281895489248 5.650882815434272 0.0 0.0 0.0 0.0
61 2 0.8085099367389634 6.777391104739141 0.0 0.0 0.0 0.0
62 1 1.9039578558694459 6.5942175502317095 0.0 0.0 0.0 0.0
63 1 2.497229622146583 6.90138641808195 0.0 0.0 0.0 0.0
64 1 3.769858498946758 5.648034588934552 0.0 0.0 0.0 0.0
65 2 4.710630192891649 6.255204033659616 0.0 0.0 0.0 0.0
66 1 5.6837646163916675 5.740099861844273 0.0 0.0 0.0 0.0
67 1 6.318801679350598 5.917331215308493 0.0 0.0 0.0 0.0
68 2 7.040147745718608 6.689576713695791 0.0 0.0 0.0 0.0
69 2 8.205909623253893 6.457946144245756 0.0 0.0 0.0 0.0
70 2 9.372673724205924 6.698435380298136 0.0 0.0 0.0 0.0
71 1 0.05844371030248295 7.6100440310800375 0.0 0.0 0.0 0.0
72 1 0.6762172672300607 7.8682759892614635 0.0 0.0 0.0 0.0
73 2 1.7561192112602837 7.700073237481999 0.0 0.0 0.0 0.0
74 2 3.556413050725919 6.713001718751692 0.0 0.0 0.0 0.0
75 2 4.45860303484205 7.578403973521843 0.0 0.0 0.0 0.0
76 2 5.77513897446541 6.864668870066381 0.0 0.0 0.0 0.0
77 1 6.558787471471509 7.626569058749458 0.0 0.0 0.0 0.0
78 1 7.87350013392477 7.514840064360852 0.0 0.0 0.0 0.0
79 1 8.572306066505467 7.575810615880628 0.0 0.0 0.0 0.0
80 1 9.24650563726819 7.762322362545454 0.0 0.0 0.0 0.0
81 2 9.825107931028873 8.685707951257077 0.0 0.0 0.0 0.0
82 2 1.1812996795291275 8.846767328504042 0.0 0.0 0.0 0.0
83 1 2.2841027380778818 8.664066548404042 0.0 0.0 0.0 0.0
84 2 3.076306940721876 7.887623808709507 0.0 0.0 0.0 0.0
85 1 4.62680328193891 8.67584234915157 0.0 0.0 0.0 0.0
86 2 5.606039462201045 8.097752021135618 0.0 0.0 0.0 0.0
87 1 6.775098681752453 8.237238885633717 0.0 0.0 0.0 0.0
88 1 7.225470256060365 7.737102818293512 0.0 0.0 0.0 0.0
89 1 8.79939869255033 8.26023088584787 0.0 0.0 0.0 0.0
90 1 8.798552585609801 8.981259346483393 0.0 0.0 0.0 0.0
91 2 0.3395348926810439 9.82693670823207 0.0 0.0 0.0 0.0
92 1 1.4189881368740094 0.05036328239108023 0.0 0.0 0.0 0.0
93 1 2.1562074528469344 9.325027459035354 0.0 0.0 0.0 0.0
94 2 3.2577091524873745 9.192679303367123 0.0 0.0 0.0 0.0
95 2 4.370495430430382 9.751465172753766 0.0 0.0 0.0 0.0
96 1 5.193714966581163 9.073592606289493 0.0 0.0 0.0 0.0
97 2 6.301062687008871 9.182261278551735 0.0 0.0 0.0 0.0
98 2 7.785504934145884 8.646121540724439 0.0 0.0 0.0 0.0
99 1 8.455190289915649 9.568244075547355 0.0 0.0 0.0 0.0
100 1 9.138213723350008 9.567227263103922 0.0 0.0 0.0 0.0
