ITEM: TIMESTEP
1
ITEM: NUMBER OF ATOMS
100
ITEM: BOX BOUNDS xy xz yz pp pp pp
0.0 9.88045 0.0
0.0 9.88045 0.0
0.0 10.0 0.0
ITEM: ATOMS id type x y z vx vy vz
1 2 0.9117709661009319 0.8339635783724434 0.0 0.0 0.0 0.0
2 2 2.208527249307213 0.8560824704174888 0.0 0.0 0.0 0.0
3 2 3.5057764019824758 0.7021954622527561 0.0 0.0 0.0 0.0
4 1 4.208526483268125 9.651272573943292 0.0 0.0 0.0 0.0
5 1 4.540647058497065 0.33466187830812194 0.0 0.0 0.0 0.0
6 1 6.092586043248275 9.629801532552479 0.0 0.0 0.0 0.0
7 1 6.6691586532124445 0.12261066031826662 0.0 0.0 0.0 0.0
8 1 7.2671913324808255 0.4592498687740355 0.0 0.0 0.0 0.0
9 2 8.346692310181375 0.2593477463878622 0.0 0.0 0.0 0.0
10 2 9.644900832864513 0.41253897585923055 0.0 0.0 0.0 0.0
11 1 0.27988046469312144 1.6881918874144313 0.0 0.0 0.0 0.0
12 1 1.5744341497049978 1.7443195972508039 0.0 0.0 0.0 0.0
13 1 2.881114587241573 1.6745063591271345 0.0 0.0 0.0 0.0
14 1 3.5201100742962073 1.8155232571349462 0.0 0.0 0.0 0.0
15 2 4.540589593149454 1.4187495124688747 0.0 0.0 0.0 0.0
16 2 5.563936750340378 0.6801338058814611 0.0 0.0 0.0 0.0
17 2 6.601968092707329 1.2864690516528434 0.0 0.0 0.0 0.0
18 2 7.81735754284911 1.3916623712643854 0.0 0.0 0.0 0.0
19 1 8.899898160437893 1.2050520838649306 0.0 0.0 0.0 0.0
20 1 9.502044400000335 1.5076019783668921 0.0 0.0 0.0 0.0
21 1 0.44415452594699145 2.404449766288375 0.0 0.0 0.0 0.0
22 1 0.912679891511326 1.9141950821595188 0.0 0.0 0.0 0.0
23 2 2.8541510733298407 2.7610435186590676 0.0 0.0 0.0 0.0
24 1 3.904072392746801 2.3506316584014133 0.0 0.0 0.0 0.0
25 1 3.9267641462957763 3.0166008533986703 0.0 0.0 0.0 0.0
26 2 4.979089338785274 2.5512957252041226 0.0 0.0 0.0 0.0
27 1 5.9972010130783735 2.1637903470128226 0.0 0.0 0.0 0.0
28 2 7.127842865672019 2.4771774912188196 0.0 0.0 0.0 0.0
29 2 8.650532706509855 2.2631836938157646 0.0 0.0 0.0 0.0
30 1 9.707839558413388 2.148031307217874 0.0 0.0 0.0 0.0
31 1 0.6823758709251748 3.608271256781405 0.0 0.0 0.0 0.0
32 2 1.4711052237120639 2.8365348243047115 0.0 0.0 0.0 0.0
33 2 2.174412630546715 3.8277694290530677 0.0 0.0 0.0 0.0
34 2 3.4080753701367965 4.011398625293561 0.0 0.0 0.0 0.0
35 1 4.387487266456256 3.489573994326339 0.0 0.0 0.0 0.0
36 1 5.040074620149353 3.6157044540373424 0.0 0.0 0.0 0.0
37 2 6.090661468839765 3.2454362318837213 0.0 0.0 0.0 0.0
38 1 7.147870304681438 3.5826477599161173 0.0 0.0 0.0 0.0
39 2 8.207640281291393 3.3796414889096194 0.0 0.0 0.0 0.0
40 2 9.515556860391667 3.198902138356473 0.0 0.0 0.0 0.0
41 1 0.22031038793399726 4.107049138855137 0.0 0.0 0.0 0.0
42 2 1.2029111956028677 4.59187196576314 0.0 0.0 0.0 0.0
43 2 2.551414462365317 5.006274229856773 0.0 0.0 0.0 0.0
44 1 3.618505190330666 5.145397510029512 0.0 0.0 0.0 0.0
45 2 4.514644996109412 4.571398486022295 0.0 0.0 0.0 0.0
46 2 5.729031809941624 4.427913913196125 0.0 0.0 0.0 0.0
47 1 6.743217276417885 4.794526404917022 0.0 0.0 0.0 0.0
48 1 6.773254996583138 4.1251207038550755 0.0 0.0 0.0 0.0
49 2 7.79191789280815 4.539316665089841 0.0 0.0 0.0 0.0
50 2 9.002558448055002 4.356235699763263 0.0 0.0 0.0 0.0
51 2 0.0037664594531914694 5.172033844880921 0.0 0.0 0.0 0.0
52 1 0.9698198741314698 5.656310900231296 0.0 0.0 0.0 0.0
53 1 1.6388669753644747 5.606327230013742 0.0 0.0 0.0 0.0
54 1 3.5155373228277034 5.799062774554315 0.0 0.0 0.0 0.0
55 1 4.148740229644608 5.613907267144621 0.0 0.0 0.0 0.0
56 2 5.243299234396992 5.56518671298695 0.0 0.0 0.0 0.0
57 1 6.33297116667263 5.3183609491890715 0.0 0.0 0.0 0.0
58 2 7.367682150122238 5.691419261423734 0.0 0.0 0.0 0.0
59 1 8.520346262694694 5.393034923735321 0.0 0.0 0.0 0.0
60 1 9.022563720388801 5.866505248464575 0.0 0.0 0.0 0.0
61 2 0.11902793980253817 6.378338925360059 0.0 0.0 0.0 0.0
62 2 1.3453986866373377 6.663371319451166 0.0 0.0 0.0 0.0
63 2 2.548086936196723 6.243176905996727 0.0 0.0 0.0 0.0
64 1 3.706366559259949 6.453498105906538 0.0 0.0 0.0 0.0
65 1 4.380893088027397 6.262000319212871 0.0 0.0 0.0 0.0
66 2 5.486110364508618 6.757600645274839 0.0 0.0 0.0 0.0
67 1 6.260608483216484 5.967810227444955 0.0 0.0 0.0 0.0
68 2 7.628792564713754 6.875736396757765 0.0 0.0 0.0 0.0
69 1 8.393770407665542 6.077511201691713 0.0 0.0 0.0 0.0
70 1 8.837141783347521 6.607836700730382 0.0 0.0 0.0 0.0
71 1 9.879552986514943 7.45287783181473 0.0 0.0 0.0 0.0
72 2 1.0121414176021823 7.8300601334047855 0.0 0.0 0.0 0.0
73 2 2.3150899039665167 7.438308828289841 0.0 0.0 0.0 0.0
74 1 3.335335359224485 7.031663835769622 0.0 0.0 0.0 0.0
75 2 4.380127841709396 7.36654272800628 0.0 0.0 0.0 0.0
76 1 5.400252150376576 7.840551891946415 0.0 0.0 0.0 0.0
77 1 6.602430339871047 6.520410806309319 0.0 0.0 0.0 0.0
78 1 7.50456193743698 7.969582508332159 0.0 0.0 0.0 0.0
79 1 8.617615773415153 7.296082587146363 0.0 0.0 0.0 0.0
80 1 9.263262078414826 7.162643567354045 0.0 0.0 0.0 0.0
81 1 0.28351002027568345 8.68410583457453 0.0 0.0 0.0 0.0
82 1 0.9051606698791512 8.892652266423298 0.0 0.0 0.0 0.0
83 2 2.007875213302114 8.601099222507381 0.0 0.0 0.0 0.0
84 2 3.353119424588115 8.164846433646854 0.0 0.0 0.0 0.0
85 2 4.634643427597427 8.607255273471374 0.0 0.0 0.0 0.0
86 1 5.722551266008434 8.436081640020188 0.0 0.0 0.0 0.0
87 2 6.470282466514256 7.58860235689165 0.0 0.0 0.0 0.0
88 2 8.067788631611755 8.91118771194945 0.0 0.0 0.0 0.0
89 1 8.164109680416072 7.816542508635274 0.0 0.0 0.0 0.0
90 2 9.157187550914308 8.26135313248015 0.0 0.0 0.0 0.0
91 1 0.48945859786448426 9.434991214311744 0.0 0.0 0.0 0.0
92 2 1.5532580230745934 9.720524225994563 0.0 0.0 0.0 0.0
93 2 2.7639971788444275 9.592014760935683 0.0 0.0 0.0 0.0
94 1 3.738115662377329 9.19045130112238 0.0 0.0 0.0 0.0
95 1 4.928670480002481 9.657963033777916 0.0 0.0 0.0 0.0
96 1 5.632093897697034 9.128656296532874 0.0 0.0 0.0 0.0
97 2 6.75883498716133 8.78694615933833 0.0 0.0 0.0 0.0
98 1 7.315637926169229 9.697688486909797 0.0 0.0 0.0 0.0
99 1 9.084218401386527 9.346496719329789 0.0 0.0 0.0 0.0
100 1 9.737811284578552 9.200867827121842 0.0 0.0 0.0 0.0
