ITEM: TIMESTEP
1
ITEM: NUMBER OF ATOMS
100
ITEM: BOX BOUNDS xy xz yz pp pp pp
0.0 9.88045 0.0
0.0 9.88045 0.0
0.0 10.0 0.0
ITEM: ATOMS id type x y z vx vy vz
1 1 0.13875321115891368 0.3456086680225592 0.0 0.0 0.0 0.0
2 1 0.7272059327249294 0.05072842542463475 0.0 0.0 0.0 0.0
3 1 1.3788732934899965 0.19945507695289286 0.0 0.0 0.0 0.0
4 2 3.005788014539371 0.37176740338095837 0.0 0.0 0.0 0.0
5 2 4.300025867848257 0.2723364410309681 0.0 0.0 0.0 0.0
6 2 6.457060322722655 0.4294653946743274 0.0 0.0 0.0 0.0
7 1 7.129637820438021 1.3279819335690577 0.0 0.0 0.0 0.0
8 2 7.726032383794488 0.4116951184967341 0.0 0.0 0.0 0.0
9 1 8.757504090714708 0.7063042257538823 0.0 0.0 0.0 0.0
10 1 9.366718521449888 0.4434677488813307 0.0 0.0 0.0 0.0
11 1 9.756534733120947 0.9822058254858904 0.0 0.0 0.0 0.0
12 2 0.9277918964925658 1.1646256386975447 0.0 0.0 0.0 0.0
13 1 1.9080942083668397 0.6474685428159138 0.0 0.0 0.0 0.0
14 1 3.631684656013831 1.2461657846791896 0.0 0.0 0.0 0.0
15 1 4.283459983466606 1.3695595107276448 0.0 0.0 0.0 0.0
16 2 5.398632857667687 1.145624499632808 0.0 0.0 0.0 0.0
17 1 6.4899372747811 1.5086311499283624 0.0 0.0 0.0 0.0
18 1 7.78931828285289 1.4930015808172732 0.0 0.0 0.0 0.0
19 1 8.43222795169338 1.2982011847448454 0.0 0.0 0.0 0.0
20 1 9.147795934348455 1.2336722566559664 0.0 0.0 0.0 0.0
21 2 9.869407467613694 2.1037700128635963 0.0 0.0 0.0 0.0
22 2 1.2326774356753738 2.3429811347158136 0.0 0.0 0.0 0.0
23 2 2.5321582780400966 1.5581859175545671 0.0 0.0 0.0 0.0
24 2 3.6025590214382928 2.3423270311333635 0.0 0.0 0.0 0.0
25 2 4.842820090865301 2.287378280184971 0.0 0.0 0.0 0.0
26 2 6.031616727642276 2.46639824204265 0.0 0.0 0.0 0.0
27 2 7.242126950097715 2.42614152184768 0.0 0.0 0.0 0.0
28 1 8.225103914653541 2.0111567215046207 0.0 0.0 0.0 0.0
29 1 8.845931941557987 1.8202315492215813 0.0 0.0 0.0 0.0
30 1 8.726215108978169 2.478382173131139 0.0 0.0 0.0 0.0
31 2 0.3196292269200601 3.351488073548609 0.0 0.0 0.0 0.0
32 1 1.418312274909358 3.405407753322549 0.0 0.0 0.0 0.0
33 2 2.383600017309221 2.820529241264326 0.0 0.0 0.0 0.0
34 2 3.3718141946535303 3.5851341665410876 0.0 0.0 0.0 0.0
35 1 4.382011317699983 3.2563069229306634 0.0 0.0 0.0 0.0
36 2 5.437077173020501 3.5281624905427713 0.0 0.0 0.0 0.0
37 1 5.524015064493895 4.585808962517012 0.0 0.0 0.0 0.0
38 2 6.712845337323566 3.548172313719912 0.0 0.0 0.0 0.0
39 2 8.07564814040829 3.3782713487350673 0.0 0.0 0.0 0.0
40 1 9.1561794399258 2.989139896382878 0.0 0.0 0.0 0.0
41 2 0.006857674417606859 5.092125867817338 0.0 0.0 0.0 0.0
42 2 1.0348169713813882 4.440226283786995 0.0 0.0 0.0 0.0
43 2 2.2496897918329144 4.09135110607768 0.0 0.0 0.0 0.0
44 2 3.275611550063011 4.813234886660995 0.0 0.0 0.0 0.0
45 2 4.451807516951296 4.3782896399507285 0.0 0.0 0.0 0.0
46 1 6.182442479494091 4.524013532373379 0.0 0.0 0.0 0.0
47 1 6.856701724691174 4.619776507837495 0.0 0.0 0.0 0.0
48 1 7.47927604694802 4.34143817066357 0.0 0.0 0.0 0.0
49 1 8.124661928687582 4.511187324644583 0.0 0.0 0.0 0.0
50 2 9.138623353730488 4.0914376302279045 0.0 0.0 0.0 0.0
51 1 0.4505456068502829 6.089115891641944 0.0 0.0 0.0 0.0
52 1 0.9384041516498351 5.614913086872301 0.0 0.0 0.0 0.0
53 2 1.9586084555862606 5.290755943890285 0.0 0.0 0.0 0.0
54 2 2.9448250072176227 5.974090408518012 0.0 0.0 0.0 0.0
55 2 4.2002772220298645 5.7258583680891 0.0 0.0 0.0 0.0
56 2 5.468923363111703 5.6408994055196775 0.0 0.0 0.0 0.0
57 1 6.453247619452769 5.154940525915209 0.0 0.0 0.0 0.0
58 2 7.530567885277331 5.4710516013849695 0.0 0.0 0.0 0.0
59 2 8.751854203166667 5.42130558826134 0.0 0.0 0.0 0.0
60 1 9.633092205931558 6.268010465804458 0.0 0.0 0.0 0.0
61 1 0.4095840358778805 6.749841587427412 0.0 0.0 0.0 0.0
62 2 1.503536900884277 6.5578851718349815 0.0 0.0 0.0 0.0
63 2 2.6770588363786865 7.146032756718143 0.0 0.0 0.0 0.0
64 1 4.321381730018639 6.844636376805589 0.0 0.0 0.0 0.0
65 1 4.918385563632764 6.57360982594011 0.0 0.0 0.0 0.0
66 1 5.563452754731923 6.727603952540573 0.0 0.0 0.0 0.0
67 2 6.563482263091874 6.26157230945002 0.0 0.0 0.0 0.0
68 1 7.62666569755464 6.5642749508224405 0.0 0.0 0.0 0.0
69 1 8.266984602435015 6.375412557705038 0.0 0.0 0.0 0.0
70 1 8.95367995215683 6.5214896273991085 0.0 0.0 0.0 0.0
71 1 0.7058164333804197 7.3706252931916625 0.0 0.0 0.0 0.0
72 2 1.6798790915497461 7.8369138935734535 0.0 0.0 0.0 0.0
73 1 2.771417140377761 8.212022749001443 0.0 0.0 0.0 0.0
74 1 3.684447883201773 6.739789433273965 0.0 0.0 0.0 0.0
75 2 5.006290301131723 7.680099822473147 0.0 0.0 0.0 0.0
76 1 6.011578882732279 7.211936010040325 0.0 0.0 0.0 0.0
77 1 6.655040243916706 7.394416569288677 0.0 0.0 0.0 0.0
78 1 7.255005796938193 7.122557261346383 0.0 0.0 0.0 0.0
79 2 8.28172835629493 7.462992991141344 0.0 0.0 0.0 0.0
80 2 9.505353060494235 7.496091128792798 0.0 0.0 0.0 0.0
81 1 0.5841689238342312 8.088925631152266 0.0 0.0 0.0 0.0
82 2 1.282703159784483 8.993117420725229 0.0 0.0 0.0 0.0
83 1 2.347637552921294 8.70131634020818 0.0 0.0 0.0 0.0
84 2 3.789330363757437 7.8376367929867445 0.0 0.0 0.0 0.0
85 2 4.8083091836621685 8.94581485138345 0.0 0.0 0.0 0.0
86 2 6.042001025129656 8.29791555272658 0.0 0.0 0.0 0.0
87 1 7.03433061387645 8.753082507138688 0.0 0.0 0.0 0.0
88 1 7.543407586963825 8.306824396416415 0.0 0.0 0.0 0.0
89 1 8.191744304529255 8.535910682155288 0.0 0.0 0.0 0.0
90 1 8.891536491626168 8.419416196729822 0.0 0.0 0.0 0.0
91 2 9.865171419200191 9.084976333450525 0.0 0.0 0.0 0.0
92 1 1.9919477083215842 9.859687959861068 0.0 0.0 0.0 0.0
93 1 2.3966921376383454 9.346716746391543 0.0 0.0 0.0 0.0
94 2 3.4716675306916325 9.074588420641343 0.0 0.0 0.0 0.0
95 1 5.394854082915954 0.028458661825299103 0.0 0.0 0.0 0.0
96 1 5.8349759162591415 9.388613405803287 0.0 0.0 0.0 0.0
97 1 6.512327148311656 9.241940503011103 0.0 0.0 0.0 0.0
98 1 7.148249077515795 9.406234297916212 0.0 0.0 0.0 0.0
99 1 7.683049293348808 8.996043426522268 0.0 0.0 0.0 0.0
100 2 8.673315833547964 9.49766320417261 0.0 0.0 0.0 0.0
