ITEM: TIMESTEP
1
ITEM: NUMBER OF ATOMS
100
ITEM: BOX BOUNDS xy xz yz pp pp pp
0.0 9.88045 0.0
0.0 9.88045 0.0
0.0 10.0 0.0
ITEM: ATOMS id type x y z vx vy vz
1 1 1.0962787080018557 0.2613642773217362 0.0 0.0 0.0 0.0
2 1 1.7979006403786335 0.4037854405857794 0.0 0.0 0.0 0.0
3 1 2.2837946497368837 0.8785719875501322 0.0 0.0 0.0 0.0
4 2 3.891618842306901 0.5607987936600439 0.0 0.0 0.0 0.0
5 1 4.682405957997071 1.3029605767074093 0.0 0.0 0.0 0.0
6 1 5.380067014356165 1.2192797366903732 0.0 0.0 0.0 0.0
7 2 6.217536539264395 0.5464031677625766 0.0 0.0 0.0 0.0
8 2 7.400944939151086 0.2384242387436747 0.0 0.0 0.0 0.0
9 2 8.418921622820799 0.9844331404859976 0.0 0.0 0.0 0.0
10 1 0.54057819263633 0.7150861201096547 0.0 0.0 0.0 0.0
11 1 0.2236612363744185 1.3259276000149685 0.0 0.0 0.0 0.0
12 2 1.3473362960491013 1.403034903193558 0.0 0.0 0.0 0.0
13 1 2.9142646911687904 1.0591518517737317 0.0 0.0 0.0 0.0
14 1 3.3997643206014954 1.5101311650661744 0.0 0.0 0.0 0.0
15 1 4.07529123159068 1.6525291919795537 0.0 0.0 0.0 0.0
16 1 5.11413076522685 1.801416867754293 0.0 0.0 0.0 0.0
17 1 5.905023788668571 1.63681026029577 0.0 0.0 0.0 0.0
18 2 7.062887148330392 1.483347523504452 0.0 0.0 0.0 0.0
19 1 8.041527824051897 2.028818624031916 0.0 0.0 0.0 0.0
20 1 9.524939118666934 0.9886492871562615 0.0 0.0 0.0 0.0
21 1 0.2074088865921314 2.6301298771977755 0.0 0.0 0.0 0.0
22 1 0.39565868529304443 1.9794950853662652 0.0 0.0 0.0 0.0
23 2 2.4587296460830808 2.0799855830376486 0.0 0.0 0.0 0.0
24 1 3.5715050943566853 2.1357723768090815 0.0 0.0 0.0 0.0
25 2 4.507943882503538 2.668113031274391 0.0 0.0 0.0 0.0
26 1 5.57378271501669 2.2593849946724345 0.0 0.0 0.0 0.0
27 1 6.233429179985234 2.2196470729677618 0.0 0.0 0.0 0.0
28 2 7.171705426537166 2.738292230632804 0.0 0.0 0.0 0.0
29 1 8.27665191276724 2.668093437451329 0.0 0.0 0.0 0.0
30 2 9.169345144040413 2.0181219321764936 0.0 0.0 0.0 0.0
31 1 0.4299053482291932 3.2710106993032357 0.0 0.0 0.0 0.0
32 2 1.3037184074983093 2.6098076705362687 0.0 0.0 0.0 0.0
33 1 2.2250500721646405 3.199830765404695 0.0 0.0 0.0 0.0
34 2 3.330383706440424 3.1889319197394626 0.0 0.0 0.0 0.0
35 1 4.843435710903997 3.6648762877696917 0.0 0.0 0.0 0.0
36 2 5.884827687833814 3.2908600858984913 0.0 0.0 0.0 0.0
37 1 6.875058564963885 3.799376111268931 0.0 0.0 0.0 0.0
38 1 7.58181813867128 3.743399056009894 0.0 0.0 0.0 0.0
39 1 8.110387787968525 3.3276382864779595 0.0 0.0 0.0 0.0
40 2 9.205297021474651 3.2854272969769336 0.0 0.0 0.0 0.0
41 1 0.9880419090591558 3.6654041991745165 0.0 0.0 0.0 0.0
42 1 1.6734169023725123 3.628127350218206 0.0 0.0 0.0 0.0
43 2 2.558255479158829 4.259707687143371 0.0 0.0 0.0 0.0
44 1 3.641141577396795 4.217880370392579 0.0 0.0 0.0 0.0
45 1 4.279051768171331 4.018924629614219 0.0 0.0 0.0 0.0
46 2 5.297196049928682 4.6175222699414045 0.0 0.0 0.0 0.0
47 1 6.364903866556771 4.268264922026655 0.0 0.0 0.0 0.0
48 2 7.3334548805674125 4.788171245727065 0.0 0.0 0.0 0.0
49 2 8.530256931172532 4.360555801441309 0.0 0.0 0.0 0.0
50 2 0.08589807158892704 4.310800959464721 0.0 0.0 0.0 0.0
51 1 0.4799674483755927 5.34281513484949 0.0 0.0 0.0 0.0
52 2 1.3750726372461568 4.697148647711441 0.0 0.0 0.0 0.0
53 1 2.2885751135459995 5.368455252574187 0.0 0.0 0.0 0.0
54 1 2.9658106451471276 5.264198873940014 0.0 0.0 0.0 0.0
55 2 4.123158403848778 5.170264319416494 0.0 0.0 0.0 0.0
56 2 5.176129984628468 5.865709180213698 0.0 0.0 0.0 0.0
57 2 6.282319803128489 5.36844341407702 0.0 0.0 0.0 0.0
58 1 7.11963316826616 6.061878507524809 0.0 0.0 0.0 0.0
59 2 8.132563690888851 5.6646415580863305 0.0 0.0 0.0 0.0
60 2 9.301327988004193 5.3778996533554535 0.0 0.0 0.0 0.0
61 2 1.3403024552743357 5.961895059853015 0.0 0.0 0.0 0.0
62 2 2.414841584939191 6.504738262383821 0.0 0.0 0.0 0.0
63 2 3.3380243438250234 7.330735931775644 0.0 0.0 0.0 0.0
64 1 3.2595714432981597 5.84987077859373 0.0 0.0 0.0 0.0
65 2 4.13593876856861 6.4561735442307 0.0 0.0 0.0 0.0
66 1 5.07417279163249 6.979458760688268 0.0 0.0 0.0 0.0
67 2 6.156735019247012 6.620760518105969 0.0 0.0 0.0 0.0
68 2 7.886719945634347 6.870325352388665 0.0 0.0 0.0 0.0
69 1 8.91527322196152 6.400977740257776 0.0 0.0 0.0 0.0
70 2 0.1343000388228095 6.4913549309951994 0.0 0.0 0.0 0.0
71 1 0.23784899959552291 7.60068554251497 0.0 0.0 0.0 0.0
72 2 1.2683046702298055 7.205562575323217 0.0 0.0 0.0 0.0
73 1 2.301636997951813 7.596458058408771 0.0 0.0 0.0 0.0
74 1 4.073756887939365 8.093701043764092 0.0 0.0 0.0 0.0
75 1 4.7254431240321475 8.175179096750218 0.0 0.0 0.0 0.0
76 1 4.556392674477372 7.507847038452041 0.0 0.0 0.0 0.0
77 1 6.8795758251837915 7.4181383174491 0.0 0.0 0.0 0.0
78 1 7.403709778587519 7.825582120845145 0.0 0.0 0.0 0.0
79 1 8.98580948008363 7.050456996656471 0.0 0.0 0.0 0.0
80 1 9.464694945885855 7.500914562119229 0.0 0.0 0.0 0.0
81 1 0.6475226791183146 8.125159442703676 0.0 0.0 0.0 0.0
82 1 1.27413342303367 8.30531624195883 0.0 0.0 0.0 0.0
83 1 1.9196297139082434 8.124695865457342 0.0 0.0 0.0 0.0
84 2 2.9784436626908053 8.526058416249334 0.0 0.0 0.0 0.0
85 2 4.130172523717777 9.177851904540441 0.0 0.0 0.0 0.0
86 2 5.763591052927552 7.800777758900218 0.0 0.0 0.0 0.0
87 1 6.474179151158214 8.676624371955624 0.0 0.0 0.0 0.0
88 1 6.797389788522977 8.0887079865273 0.0 0.0 0.0 0.0
89 2 8.472130096838292 8.026127625787298 0.0 0.0 0.0 0.0
90 2 9.565281766384448 8.600608424228103 0.0 0.0 0.0 0.0
91 1 0.7872730775459676 8.807000424045071 0.0 0.0 0.0 0.0
92 1 0.8360131019241911 9.492920254958914 0.0 0.0 0.0 0.0
93 2 1.8535723807947324 9.203253113881548 0.0 0.0 0.0 0.0
94 2 2.869970989138598 9.823731184099968 0.0 0.0 0.0 0.0
95 2 5.030586372676051 0.22081501672855808 0.0 0.0 0.0 0.0
96 2 5.44730991895261 8.985692332410785 0.0 0.0 0.0 0.0
97 1 6.520062768244076 9.363663070738236 0.0 0.0 0.0 0.0
98 2 7.533739177649978 8.89253921075549 0.0 0.0 0.0 0.0
99 2 8.544185817713771 9.552662554831633 0.0 0.0 0.0 0.0
100 2 9.711816674133454 9.811096035432804 0.0 0.0 0.0 0.0
