ITEM: TIMESTEP
1
ITEM: NUMBER OF ATOMS
100
ITEM: BOX BOUNDS xy xz yz pp pp pp
0.0 9.88045 0.0
0.0 9.88045 0.0
0.0 10.0 0.0
ITEM: ATOMS id type x y z vx vy vz
1 2 0.37683344413994896 0.9383337098650955 0.0 0.0 0.0 0.0
2 2 1.4189824243340152 0.24705085494568946 0.0 0.0 0.0 0.0
3 2 2.555551554200692 0.6964222996717958 0.0 0.0 0.0 0.0
4 2 3.9290939684510717 0.3144146713425869 0.0 0.0 0.0 0.0
5 1 4.939813800672776 9.521420977225795 0.0 0.0 0.0 0.0
6 1 5.040483634970075 0.32496036518912497 0.0 0.0 0.0 0.0
7 2 6.1211828142311004 0.17258178183767847 0.0 0.0 0.0 0.0
8 1 7.206347885670018 9.848228877012666 0.0 0.0 0.0 0.0
9 2 8.247306709143881 0.34397146552148766 0.0 0.0 0.0 0.0
10 1 9.367903913104485 0.32905305226580456 0.0 0.0 0.0 0.0
11 2 9.556876596257034 2.059573940026927 0.0 0.0 0.0 0.0
12 2 1.3663794116824903 1.6047428560071935 0.0 0.0 0.0 0.0
13 1 2.4147214925855875 1.7862909436316061 0.0 0.0 0.0 0.0
14 2 3.4670754727195736 1.503499326040938 0.0 0.0 0.0 0.0
15 2 4.670643323951597 1.358918410894678 0.0 0.0 0.0 0.0
16 2 5.86673923125222 1.3363466815445326 0.0 0.0 0.0 0.0
17 1 6.417462988639463 2.238718686153116 0.0 0.0 0.0 0.0
18 2 7.128357532339281 1.091560461295368 0.0 0.0 0.0 0.0
19 2 8.364372854258402 1.6161913451727505 0.0 0.0 0.0 0.0
20 1 9.189811946042283 0.9625925455087396 0.0 0.0 0.0 0.0
21 1 0.23312091916415023 2.9937008742609326 0.0 0.0 0.0 0.0
22 1 0.7188758608892005 2.510496825364098 0.0 0.0 0.0 0.0
23 2 1.8260319745922378 2.76403133229561 0.0 0.0 0.0 0.0
24 2 3.0245836461165605 2.667592792569934 0.0 0.0 0.0 0.0
25 2 4.210656964446488 2.52017524904126 0.0 0.0 0.0 0.0
26 2 5.418074153968133 2.5618788528358323 0.0 0.0 0.0 0.0
27 1 6.490642070764678 2.92254796485553 0.0 0.0 0.0 0.0
28 2 7.442923813777588 2.355226862869644 0.0 0.0 0.0 0.0
29 2 8.469130538523054 2.9942877296273656 0.0 0.0 0.0 0.0
30 1 9.512724504029121 3.253982277144059 0.0 0.0 0.0 0.0
31 2 0.3136799357413756 4.145044463794159 0.0 0.0 0.0 0.0
32 1 0.8514008440906838 3.1897958460198934 0.0 0.0 0.0 0.0
33 1 2.5597399644139864 3.6433903889585175 0.0 0.0 0.0 0.0
34 2 3.658947598655711 3.714755450406814 0.0 0.0 0.0 0.0
35 1 4.78385243422482 3.4331579313512894 0.0 0.0 0.0 0.0
36 1 5.4232258583654405 3.7080794928359944 0.0 0.0 0.0 0.0
37 1 6.071701056728562 3.455903959948398 0.0 0.0 0.0 0.0
38 1 7.430980587190847 3.419542438273666 0.0 0.0 0.0 0.0
39 1 8.551495114318012 4.121928946445514 0.0 0.0 0.0 0.0
40 1 9.15723297528759 3.8345561007239644 0.0 0.0 0.0 0.0
41 1 0.4081531505233674 5.232252261433543 0.0 0.0 0.0 0.0
42 1 1.0454343531530341 5.018897861300687 0.0 0.0 0.0 0.0
43 2 1.5523580541888462 4.02572947710187 0.0 0.0 0.0 0.0
44 2 2.7765103432189293 4.730809244984702 0.0 0.0 0.0 0.0
45 2 4.591644791440583 4.471820392536044 0.0 0.0 0.0 0.0
46 2 6.216247075521392 4.540530353466627 0.0 0.0 0.0 0.0
47 1 6.76564711321079 3.5573545353881584 0.0 0.0 0.0 0.0
48 2 7.500612044938348 4.482227968364009 0.0 0.0 0.0 0.0
49 1 8.54460550420695 4.7979709265210495 0.0 0.0 0.0 0.0
50 1 9.147016318079391 4.511868943660067 0.0 0.0 0.0 0.0
51 1 1.3506371984801007 5.629183762062108 0.0 0.0 0.0 0.0
52 1 1.7279600299425428 5.084386242625712 0.0 0.0 0.0 0.0
53 1 2.110653832409683 5.626444441078524 0.0 0.0 0.0 0.0
54 2 3.8464568689989447 5.462336730558556 0.0 0.0 0.0 0.0
55 2 5.31248876679432 5.39506760705326 0.0 0.0 0.0 0.0
56 1 6.3507752893823115 5.719569925524027 0.0 0.0 0.0 0.0
57 1 6.938900745230623 6.047902219664169 0.0 0.0 0.0 0.0
58 1 6.92701139786017 5.386580980051569 0.0 0.0 0.0 0.0
59 2 7.987121280280091 5.7404359457464205 0.0 0.0 0.0 0.0
60 2 9.25865806116086 5.633158542505964 0.0 0.0 0.0 0.0
61 2 0.4807016447578495 6.319725627643159 0.0 0.0 0.0 0.0
62 2 1.7346600795658806 6.6494915706419055 0.0 0.0 0.0 0.0
63 2 2.9484983446932542 6.357649038005493 0.0 0.0 0.0 0.0
64 1 4.019420745917123 6.548537491538827 0.0 0.0 0.0 0.0
65 1 4.6288403876359965 6.2490708468616205 0.0 0.0 0.0 0.0
66 1 5.933926903458099 6.256485147487082 0.0 0.0 0.0 0.0
67 1 6.515397306791112 6.555784500045084 0.0 0.0 0.0 0.0
68 2 7.55417502510574 6.953105872239452 0.0 0.0 0.0 0.0
69 1 8.622414256273714 6.658807115267518 0.0 0.0 0.0 0.0
70 1 9.287511161134214 6.723472812885082 0.0 0.0 0.0 0.0
71 2 0.8990906508858884 7.547224015877304 0.0 0.0 0.0 0.0
72 1 1.9698130941383059 7.731461972866084 0.0 0.0 0.0 0.0
73 1 2.5615433629988997 7.396703630316648 0.0 0.0 0.0 0.0
74 2 3.661121440121381 7.599445873340842 0.0 0.0 0.0 0.0
75 1 4.5735152514573745 6.918292808899836 0.0 0.0 0.0 0.0
76 1 5.2835170425744575 6.465603128202418 0.0 0.0 0.0 0.0
77 1 5.862942054529243 6.915664986064905 0.0 0.0 0.0 0.0
78 1 6.4672825119682384 7.210357233686827 0.0 0.0 0.0 0.0
79 1 8.612433380971067 7.408113623076524 0.0 0.0 0.0 0.0
80 1 9.724921767476637 7.2156583162128465 0.0 0.0 0.0 0.0
81 2 9.819972757888513 8.288984611012337 0.0 0.0 0.0 0.0
82 2 1.4589461407315545 8.748112253846614 0.0 0.0 0.0 0.0
83 2 2.7432655011890974 8.489983375147464 0.0 0.0 0.0 0.0
84 1 4.742769919784663 7.567374618383681 0.0 0.0 0.0 0.0
85 1 4.65302011335515 8.217230438223085 0.0 0.0 0.0 0.0
86 1 5.214725240527818 7.107767582159388 0.0 0.0 0.0 0.0
87 2 5.742938931660191 8.032992062852804 0.0 0.0 0.0 0.0
88 2 6.9993957086833465 8.141845083278186 0.0 0.0 0.0 0.0
89 1 8.098938387327086 7.889219121907085 0.0 0.0 0.0 0.0
90 1 8.718895220217536 8.13138384603344 0.0 0.0 0.0 0.0
91 2 0.3613062458742541 9.499670137366374 0.0 0.0 0.0 0.0
92 1 2.308327755944374 9.491281647896756 0.0 0.0 0.0 0.0
93 1 2.983563761515773 9.5755772256698 0.0 0.0 0.0 0.0
94 2 3.891082196034284 8.966812072733278 0.0 0.0 0.0 0.0
95 1 4.965747655379929 8.825759435023834 0.0 0.0 0.0 0.0
96 1 5.557666985565946 9.129234871422517 0.0 0.0 0.0 0.0
97 1 6.246715692044219 8.977875188971677 0.0 0.0 0.0 0.0
98 1 6.854399192788825 9.255711058096342 0.0 0.0 0.0 0.0
99 2 7.885970999143976 8.965934202145963 0.0 0.0 0.0 0.0
100 2 9.040171148933412 9.20051816426667 0.0 0.0 0.0 0.0
