ITEM: TIMESTEP
0
ITEM: NUMBER OF ATOMS
1350
ITEM: BOX BOUNDS xy xz yz pp pp pp
0.0 78.6107071711 0
0.0 81.140150618 0
-10.0 10.0 0
ITEM: ATOMS id type x y z vx vy vz
1 1 1.7346113624 2.17244530901 0.0 0.0 0.0 0.0
2 1 6.8737413624 1.66128530901 0.0 0.0 0.0 0.0
3 1 11.9484913624 0.733735309014 0.0 0.0 0.0 0.0
4 1 17.3206913624 2.19367530901 0.0 0.0 0.0 0.0
5 1 22.6067913624 0.088142309014 0.0 0.0 0.0 0.0
6 1 27.9349913624 0.451935309014 0.0 0.0 0.0 0.0
7 1 33.2201913624 0.398525309014 0.0 0.0 0.0 0.0
8 1 37.7803913624 2.70154530901 0.0 0.0 0.0 0.0
9 1 44.7348913624 0.426135309014 0.0 0.0 0.0 0.0
10 1 48.3239913624 4.02311530901 0.0 0.0 0.0 0.0
11 1 54.3758913624 2.71991530901 0.0 0.0 0.0 0.0
12 1 59.7828913624 1.68576530901 0.0 0.0 0.0 0.0
13 1 67.4157913624 2.69084530901 0.0 0.0 0.0 0.0
14 1 70.3664913624 2.13923530901 0.0 0.0 0.0 0.0
15 1 75.5563913624 1.49257530901 0.0 0.0 0.0 0.0
16 1 78.3641913624 6.46939530901 0.0 0.0 0.0 0.0
17 1 4.6419013624 8.04569530901 0.0 0.0 0.0 0.0
18 1 9.9813913624 5.94191530901 0.0 0.0 0.0 0.0
19 1 17.7716913624 5.16695530901 0.0 0.0 0.0 0.0
20 1 20.7910913624 5.05326530901 0.0 0.0 0.0 0.0
21 1 25.7118913624 4.63076530901 0.0 0.0 0.0 0.0
22 1 29.9217913624 7.10172530901 0.0 0.0 0.0 0.0
23 1 37.0867913624 5.61220530901 0.0 0.0 0.0 0.0
24 1 40.5687913624 3.81005530901 0.0 0.0 0.0 0.0
25 1 45.2290913624 8.25030530901 0.0 0.0 0.0 0.0
26 1 49.9914913624 6.53907530901 0.0 0.0 0.0 0.0
27 1 57.3377913624 6.30676530901 0.0 0.0 0.0 0.0
28 1 61.6194913624 8.89239530901 0.0 0.0 0.0 0.0
29 1 66.8020913624 7.08853530901 0.0 0.0 0.0 0.0
30 1 73.1119913624 6.29809530901 0.0 0.0 0.0 0.0
31 1 3.5057313624 10.832075309 0.0 0.0 0.0 0.0
32 1 8.3454313624 13.171775309 0.0 0.0 0.0 0.0
33 1 12.9206913624 10.474075309 0.0 0.0 0.0 0.0
34 1 17.6640913624 9.67397530901 0.0 0.0 0.0 0.0
35 1 23.3356913624 9.65277530901 0.0 0.0 0.0 0.0
36 1 29.0596913624 9.96717530901 0.0 0.0 0.0 0.0
37 1 32.7672913624 8.02611530901 0.0 0.0 0.0 0.0
38 1 40.1342913624 9.71377530901 0.0 0.0 0.0 0.0
39 1 44.3845913624 13.044675309 0.0 0.0 0.0 0.0
40 1 49.6545913624 11.512475309 0.0 0.0 0.0 0.0
41 1 54.4194913624 13.691675309 0.0 0.0 0.0 0.0
42 1 62.0782913624 11.840275309 0.0 0.0 0.0 0.0
43 1 65.0712913624 12.019475309 0.0 0.0 0.0 0.0
44 1 68.6986913624 9.49187530901 0.0 0.0 0.0 0.0
45 1 76.2923913624 12.670975309 0.0 0.0 0.0 0.0
46 1 1.2102013624 15.152975309 0.0 0.0 0.0 0.0
47 1 6.8220013624 15.745375309 0.0 0.0 0.0 0.0
48 1 12.0033913624 15.947575309 0.0 0.0 0.0 0.0
49 1 16.2182913624 14.794475309 0.0 0.0 0.0 0.0
50 1 21.2537913624 13.652175309 0.0 0.0 0.0 0.0
51 1 24.9168913624 12.264775309 0.0 0.0 0.0 0.0
52 1 32.7780913624 13.731575309 0.0 0.0 0.0 0.0
53 1 36.8656913624 16.226575309 0.0 0.0 0.0 0.0
54 1 42.6268913624 15.488675309 0.0 0.0 0.0 0.0
55 1 47.9405913624 16.427775309 0.0 0.0 0.0 0.0
56 1 53.0094913624 16.390275309 0.0 0.0 0.0 0.0
57 1 57.6977913624 17.326375309 0.0 0.0 0.0 0.0
58 1 62.9920913624 16.071175309 0.0 0.0 0.0 0.0
59 1 68.7362913624 15.452275309 0.0 0.0 0.0 0.0
60 1 74.4479913624 15.116875309 0.0 0.0 0.0 0.0
61 1 3.8840513624 19.479475309 0.0 0.0 0.0 0.0
62 1 9.2775813624 20.327275309 0.0 0.0 0.0 0.0
63 1 15.8142913624 20.141275309 0.0 0.0 0.0 0.0
64 1 20.2385913624 18.447075309 0.0 0.0 0.0 0.0
65 1 24.7860913624 18.043175309 0.0 0.0 0.0 0.0
66 1 29.5845913624 17.876575309 0.0 0.0 0.0 0.0
67 1 34.8653913624 18.493775309 0.0 0.0 0.0 0.0
68 1 39.7178913624 19.680975309 0.0 0.0 0.0 0.0
69 1 44.7380913624 20.234875309 0.0 0.0 0.0 0.0
70 1 49.9637913624 21.052975309 0.0 0.0 0.0 0.0
71 1 54.9958913624 21.641575309 0.0 0.0 0.0 0.0
72 1 60.4393913624 20.885375309 0.0 0.0 0.0 0.0
73 1 66.3830913624 19.894175309 0.0 0.0 0.0 0.0
74 1 72.2385913624 19.465675309 0.0 0.0 0.0 0.0
75 1 77.4739913624 19.470975309 0.0 0.0 0.0 0.0
76 1 1.1097513624 24.093075309 0.0 0.0 0.0 0.0
77 1 6.1592013624 24.095875309 0.0 0.0 0.0 0.0
78 1 11.4616913624 25.097875309 0.0 0.0 0.0 0.0
79 1 14.5643913624 22.859275309 0.0 0.0 0.0 0.0
80 1 21.0956913624 25.801175309 0.0 0.0 0.0 0.0
81 1 27.7522913624 22.801375309 0.0 0.0 0.0 0.0
82 1 33.0223913624 24.304275309 0.0 0.0 0.0 0.0
83 1 37.8197913624 25.845875309 0.0 0.0 0.0 0.0
84 1 42.8009913624 24.452575309 0.0 0.0 0.0 0.0
85 1 47.3282913624 27.297275309 0.0 0.0 0.0 0.0
86 1 51.0932913624 23.859575309 0.0 0.0 0.0 0.0
87 1 59.5537913624 24.855275309 0.0 0.0 0.0 0.0
88 1 62.1091913624 23.341475309 0.0 0.0 0.0 0.0
89 1 68.3855913624 22.147075309 0.0 0.0 0.0 0.0
90 1 74.9317913624 23.930575309 0.0 0.0 0.0 0.0
91 1 3.8218513624 28.668975309 0.0 0.0 0.0 0.0
92 1 9.2100913624 28.746475309 0.0 0.0 0.0 0.0
93 1 14.7569913624 28.844875309 0.0 0.0 0.0 0.0
94 1 19.8665913624 28.555175309 0.0 0.0 0.0 0.0
95 1 23.7849913624 27.143175309 0.0 0.0 0.0 0.0
96 1 33.2279913624 27.299775309 0.0 0.0 0.0 0.0
97 1 36.0697913624 28.277675309 0.0 0.0 0.0 0.0
98 1 41.1987913624 29.557775309 0.0 0.0 0.0 0.0
99 1 46.5456913624 30.186575309 0.0 0.0 0.0 0.0
100 1 52.4133913624 28.885075309 0.0 0.0 0.0 0.0
101 1 54.9790913624 27.344375309 0.0 0.0 0.0 0.0
102 1 61.8110913624 30.042375309 0.0 0.0 0.0 0.0
103 1 66.9957913624 27.824975309 0.0 0.0 0.0 0.0
104 1 72.1085913624 28.328975309 0.0 0.0 0.0 0.0
105 1 77.0247913624 28.796875309 0.0 0.0 0.0 0.0
106 1 1.9183713624 32.914275309 0.0 0.0 0.0 0.0
107 1 7.3671213624 32.869075309 0.0 0.0 0.0 0.0
108 1 11.9620913624 35.034075309 0.0 0.0 0.0 0.0
109 1 17.6426913624 33.333275309 0.0 0.0 0.0 0.0
110 1 22.6639913624 32.976475309 0.0 0.0 0.0 0.0
111 1 26.9522913624 31.281075309 0.0 0.0 0.0 0.0
112 1 31.6121913624 34.031375309 0.0 0.0 0.0 0.0
113 1 37.5235913624 33.186175309 0.0 0.0 0.0 0.0
114 1 43.4950913624 34.219475309 0.0 0.0 0.0 0.0
115 1 48.5996913624 34.566875309 0.0 0.0 0.0 0.0
116 1 53.6174913624 34.560575309 0.0 0.0 0.0 0.0
117 1 60.0169913624 34.451475309 0.0 0.0 0.0 0.0
118 1 65.4945913624 32.850275309 0.0 0.0 0.0 0.0
119 1 70.2862913624 35.015575309 0.0 0.0 0.0 0.0
120 1 75.3139913624 33.214275309 0.0 0.0 0.0 0.0
121 1 4.2176913624 37.114475309 0.0 0.0 0.0 0.0
122 1 9.9512913624 37.301875309 0.0 0.0 0.0 0.0
123 1 15.1935913624 37.775475309 0.0 0.0 0.0 0.0
124 1 20.3627913624 37.941775309 0.0 0.0 0.0 0.0
125 1 26.9515913624 36.677575309 0.0 0.0 0.0 0.0
126 1 29.9710913624 36.555375309 0.0 0.0 0.0 0.0
127 1 34.8191913624 36.763675309 0.0 0.0 0.0 0.0
128 1 39.1073913624 35.734275309 0.0 0.0 0.0 0.0
129 1 45.8157913624 38.904375309 0.0 0.0 0.0 0.0
130 1 51.1108913624 39.160375309 0.0 0.0 0.0 0.0
131 1 55.2649913624 37.105275309 0.0 0.0 0.0 0.0
132 1 62.5714913624 37.627375309 0.0 0.0 0.0 0.0
133 1 68.1231913624 37.144275309 0.0 0.0 0.0 0.0
134 1 75.3097913624 37.783375309 0.0 0.0 0.0 0.0
135 1 1.1840513624 37.056475309 0.0 0.0 0.0 0.0
136 1 0.606389362403 42.155975309 0.0 0.0 0.0 0.0
137 1 6.8542613624 41.227375309 0.0 0.0 0.0 0.0
138 1 12.1386913624 41.959275309 0.0 0.0 0.0 0.0
139 1 16.3480913624 42.109675309 0.0 0.0 0.0 0.0
140 1 21.1113913624 43.180275309 0.0 0.0 0.0 0.0
141 1 24.7803913624 41.956075309 0.0 0.0 0.0 0.0
142 1 34.2043913624 40.776475309 0.0 0.0 0.0 0.0
143 1 37.1986913624 41.180975309 0.0 0.0 0.0 0.0
144 1 42.5829913624 42.621475309 0.0 0.0 0.0 0.0
145 1 48.2416913624 43.402175309 0.0 0.0 0.0 0.0
146 1 53.8403913624 42.901875309 0.0 0.0 0.0 0.0
147 1 58.9788913624 42.193775309 0.0 0.0 0.0 0.0
148 1 64.1610913624 41.297775309 0.0 0.0 0.0 0.0
149 1 69.1289913624 42.172475309 0.0 0.0 0.0 0.0
150 1 74.0102913624 42.601975309 0.0 0.0 0.0 0.0
151 1 2.7150613624 44.367975309 0.0 0.0 0.0 0.0
152 1 8.2057313624 45.680075309 0.0 0.0 0.0 0.0
153 1 13.3704913624 47.096575309 0.0 0.0 0.0 0.0
154 1 18.2855913624 47.276575309 0.0 0.0 0.0 0.0
155 1 22.2867913624 45.944275309 0.0 0.0 0.0 0.0
156 1 28.5934913624 45.048175309 0.0 0.0 0.0 0.0
157 1 32.6767913624 48.107775309 0.0 0.0 0.0 0.0
158 1 38.2819913624 45.780175309 0.0 0.0 0.0 0.0
159 1 45.8796913624 47.032375309 0.0 0.0 0.0 0.0
160 1 50.5796913624 47.296175309 0.0 0.0 0.0 0.0
161 1 56.2486913624 47.166675309 0.0 0.0 0.0 0.0
162 1 62.6368913624 46.096375309 0.0 0.0 0.0 0.0
163 1 65.6234913624 46.182475309 0.0 0.0 0.0 0.0
164 1 70.9747913624 47.019675309 0.0 0.0 0.0 0.0
165 1 76.2579913624 46.768875309 0.0 0.0 0.0 0.0
166 1 78.1079913624 51.282375309 0.0 0.0 0.0 0.0
167 1 4.4508913624 50.068475309 0.0 0.0 0.0 0.0
168 1 10.0001913624 50.746675309 0.0 0.0 0.0 0.0
169 1 17.6472913624 51.313075309 0.0 0.0 0.0 0.0
170 1 20.6864913624 51.622375309 0.0 0.0 0.0 0.0
171 1 27.6947913624 50.524875309 0.0 0.0 0.0 0.0
172 1 30.7734913624 50.496775309 0.0 0.0 0.0 0.0
173 1 35.3969913624 50.236975309 0.0 0.0 0.0 0.0
174 1 40.3187913624 49.996675309 0.0 0.0 0.0 0.0
175 1 43.4918913624 48.806575309 0.0 0.0 0.0 0.0
176 1 51.6878913624 50.076775309 0.0 0.0 0.0 0.0
177 1 58.0454913624 51.949175309 0.0 0.0 0.0 0.0
178 1 62.5788913624 51.756475309 0.0 0.0 0.0 0.0
179 1 68.0127913624 50.815175309 0.0 0.0 0.0 0.0
180 1 73.2739913624 51.246575309 0.0 0.0 0.0 0.0
181 1 1.6126313624 55.144375309 0.0 0.0 0.0 0.0
182 1 7.0654113624 54.590175309 0.0 0.0 0.0 0.0
183 1 11.8241913624 55.666175309 0.0 0.0 0.0 0.0
184 1 16.3677913624 56.004575309 0.0 0.0 0.0 0.0
185 1 21.8485913624 56.219975309 0.0 0.0 0.0 0.0
186 1 27.0697913624 56.236775309 0.0 0.0 0.0 0.0
187 1 35.5647913624 54.239775309 0.0 0.0 0.0 0.0
188 1 38.5970913624 54.590875309 0.0 0.0 0.0 0.0
189 1 43.3495913624 57.039575309 0.0 0.0 0.0 0.0
190 1 48.7936913624 54.872475309 0.0 0.0 0.0 0.0
191 1 54.2304913624 55.656675309 0.0 0.0 0.0 0.0
192 1 59.4028913624 56.656775309 0.0 0.0 0.0 0.0
193 1 67.1795913624 54.896375309 0.0 0.0 0.0 0.0
194 1 70.1349913624 55.401075309 0.0 0.0 0.0 0.0
195 1 75.0353913624 55.950275309 0.0 0.0 0.0 0.0
196 1 77.7030913624 59.992275309 0.0 0.0 0.0 0.0
197 1 4.4714513624 59.041875309 0.0 0.0 0.0 0.0
198 1 9.5010713624 59.833175309 0.0 0.0 0.0 0.0
199 1 14.1176913624 60.786775309 0.0 0.0 0.0 0.0
200 1 18.8188913624 60.356375309 0.0 0.0 0.0 0.0
201 1 23.0424913624 58.988775309 0.0 0.0 0.0 0.0
202 1 29.5536913624 57.958575309 0.0 0.0 0.0 0.0
203 1 36.6535913624 59.898475309 0.0 0.0 0.0 0.0
204 1 41.8003913624 59.664175309 0.0 0.0 0.0 0.0
205 1 46.8933913624 59.746575309 0.0 0.0 0.0 0.0
206 1 50.8461913624 59.576875309 0.0 0.0 0.0 0.0
207 1 55.9030913624 60.627075309 0.0 0.0 0.0 0.0
208 1 63.6747913624 60.292075309 0.0 0.0 0.0 0.0
209 1 66.6041913624 59.712575309 0.0 0.0 0.0 0.0
210 1 72.0139913624 60.364475309 0.0 0.0 0.0 0.0
211 1 2.1377213624 63.681075309 0.0 0.0 0.0 0.0
212 1 5.8455713624 66.340175309 0.0 0.0 0.0 0.0
213 1 11.4829913624 65.147675309 0.0 0.0 0.0 0.0
214 1 16.8926913624 65.435375309 0.0 0.0 0.0 0.0
215 1 21.9811913624 64.585175309 0.0 0.0 0.0 0.0
216 1 27.3639913624 61.857575309 0.0 0.0 0.0 0.0
217 1 32.3734913624 63.078475309 0.0 0.0 0.0 0.0
218 1 37.1669913624 62.847175309 0.0 0.0 0.0 0.0
219 1 44.0997913624 64.236575309 0.0 0.0 0.0 0.0
220 1 48.8577913624 65.025275309 0.0 0.0 0.0 0.0
221 1 53.1290913624 64.588675309 0.0 0.0 0.0 0.0
222 1 58.0521913624 65.796075309 0.0 0.0 0.0 0.0
223 1 65.4276913624 65.402675309 0.0 0.0 0.0 0.0
224 1 69.7824913624 64.234775309 0.0 0.0 0.0 0.0
225 1 73.6600913624 62.887975309 0.0 0.0 0.0 0.0
226 1 0.331375362403 68.277075309 0.0 0.0 0.0 0.0
227 1 3.3299513624 68.007375309 0.0 0.0 0.0 0.0
228 1 7.8907613624 69.428275309 0.0 0.0 0.0 0.0
229 1 13.6773913624 69.614675309 0.0 0.0 0.0 0.0
230 1 19.9962913624 69.617675309 0.0 0.0 0.0 0.0
231 1 25.2182913624 68.186975309 0.0 0.0 0.0 0.0
232 1 30.1631913624 67.026075309 0.0 0.0 0.0 0.0
233 1 35.3762913624 67.836475309 0.0 0.0 0.0 0.0
234 1 40.8047913624 67.968875309 0.0 0.0 0.0 0.0
235 1 44.8873913624 71.182575309 0.0 0.0 0.0 0.0
236 1 51.5846913624 70.026475309 0.0 0.0 0.0 0.0
237 1 58.9987913624 68.640775309 0.0 0.0 0.0 0.0
238 1 61.8396913624 69.620775309 0.0 0.0 0.0 0.0
239 1 69.4939913624 69.365575309 0.0 0.0 0.0 0.0
240 1 72.4355913624 68.647475309 0.0 0.0 0.0 0.0
241 1 0.334764362403 73.858775309 0.0 0.0 0.0 0.0
242 1 4.9844513624 73.423175309 0.0 0.0 0.0 0.0
243 1 8.9549013624 72.196575309 0.0 0.0 0.0 0.0
244 1 15.2928913624 72.126075309 0.0 0.0 0.0 0.0
245 1 21.5869913624 72.188575309 0.0 0.0 0.0 0.0
246 1 27.4384913624 74.896075309 0.0 0.0 0.0 0.0
247 1 32.6138913624 72.079375309 0.0 0.0 0.0 0.0
248 1 38.0670913624 72.380375309 0.0 0.0 0.0 0.0
249 1 43.1547913624 73.635375309 0.0 0.0 0.0 0.0
250 1 47.4992913624 72.669575309 0.0 0.0 0.0 0.0
251 1 54.5689913624 74.539275309 0.0 0.0 0.0 0.0
252 1 58.9806913624 73.251275309 0.0 0.0 0.0 0.0
253 1 63.2265913624 75.924075309 0.0 0.0 0.0 0.0
254 1 68.3416913624 74.311075309 0.0 0.0 0.0 0.0
255 1 73.7325913624 73.446375309 0.0 0.0 0.0 0.0
256 1 77.7038913624 3.56460530901 0.0 0.0 0.0 0.0
257 1 4.4460713624 3.42701530901 0.0 0.0 0.0 0.0
258 1 9.7108913624 2.85631530901 0.0 0.0 0.0 0.0
259 1 14.9918913624 0.259949309014 0.0 0.0 0.0 0.0
260 1 20.3322913624 2.06991530901 0.0 0.0 0.0 0.0
261 1 25.1769913624 1.67056530901 0.0 0.0 0.0 0.0
262 1 30.5634913624 1.92124530901 0.0 0.0 0.0 0.0
263 1 36.2446913624 0.114237309014 0.0 0.0 0.0 0.0
264 1 43.4783913624 3.13872530901 0.0 0.0 0.0 0.0
265 1 47.6958913624 1.06272530901 0.0 0.0 0.0 0.0
266 1 54.3873913624 5.76527530901 0.0 0.0 0.0 0.0
267 1 57.3044913624 3.33422530901 0.0 0.0 0.0 0.0
268 1 62.0897913624 3.71765530901 0.0 0.0 0.0 0.0
269 1 65.0597913624 4.56965530901 0.0 0.0 0.0 0.0
270 1 73.1314913624 3.28639530901 0.0 0.0 0.0 0.0
271 1 2.6763613624 5.83807530901 0.0 0.0 0.0 0.0
272 1 7.6503013624 7.95861530901 0.0 0.0 0.0 0.0
273 1 12.6499913624 7.46454530901 0.0 0.0 0.0 0.0
274 1 15.7013913624 7.35507530901 0.0 0.0 0.0 0.0
275 1 23.4057913624 6.61017530901 0.0 0.0 0.0 0.0
276 1 28.7371913624 4.35024530901 0.0 0.0 0.0 0.0
277 1 35.7412913624 8.27749530901 0.0 0.0 0.0 0.0
278 1 39.8687913624 6.71790530901 0.0 0.0 0.0 0.0
279 1 45.5830913624 5.27039530901 0.0 0.0 0.0 0.0
280 1 48.1548913624 8.90968530901 0.0 0.0 0.0 0.0
281 1 52.5471913624 8.15201530901 0.0 0.0 0.0 0.0
282 1 60.3339913624 6.19132530901 0.0 0.0 0.0 0.0
283 1 64.5919913624 9.07186530901 0.0 0.0 0.0 0.0
284 1 71.6658913624 8.93936530901 0.0 0.0 0.0 0.0
285 1 75.6997913624 7.80136530901 0.0 0.0 0.0 0.0
286 1 0.734741362403 12.192075309 0.0 0.0 0.0 0.0
287 1 6.5493113624 10.794175309 0.0 0.0 0.0 0.0
288 1 11.3356913624 13.021575309 0.0 0.0 0.0 0.0
289 1 15.6001913624 11.848475309 0.0 0.0 0.0 0.0
290 1 20.5146913624 10.719875309 0.0 0.0 0.0 0.0
291 1 27.8847913624 12.716875309 0.0 0.0 0.0 0.0
292 1 31.9033913624 10.876375309 0.0 0.0 0.0 0.0
293 1 37.3343913624 10.838575309 0.0 0.0 0.0 0.0
294 1 43.0738913624 10.343375309 0.0 0.0 0.0 0.0
295 1 47.3773913624 13.479875309 0.0 0.0 0.0 0.0
296 1 52.6586913624 11.197575309 0.0 0.0 0.0 0.0
297 1 57.4017913624 14.347475309 0.0 0.0 0.0 0.0
298 1 60.4561913624 14.326975309 0.0 0.0 0.0 0.0
299 1 68.0376913624 12.482075309 0.0 0.0 0.0 0.0
300 1 74.2840913624 10.429375309 0.0 0.0 0.0 0.0
301 1 3.9094113624 16.481575309 0.0 0.0 0.0 0.0
302 1 9.3533513624 17.344575309 0.0 0.0 0.0 0.0
303 1 14.6510913624 17.355375309 0.0 0.0 0.0 0.0
304 1 19.0731913624 15.688275309 0.0 0.0 0.0 0.0
305 1 23.8951913624 15.112775309 0.0 0.0 0.0 0.0
306 1 29.9903913624 14.890175309 0.0 0.0 0.0 0.0
307 1 35.7779913624 13.432675309 0.0 0.0 0.0 0.0
308 1 39.8498913624 16.680075309 0.0 0.0 0.0 0.0
309 1 45.0534913624 17.264675309 0.0 0.0 0.0 0.0
310 1 50.4782913624 18.057575309 0.0 0.0 0.0 0.0
311 1 55.0019913624 18.642375309 0.0 0.0 0.0 0.0
312 1 60.6509913624 17.930975309 0.0 0.0 0.0 0.0
313 1 65.9887913624 16.866675309 0.0 0.0 0.0 0.0
314 1 71.6638913624 16.459075309 0.0 0.0 0.0 0.0
315 1 77.1237913624 16.501975309 0.0 0.0 0.0 0.0
316 1 1.3675813624 21.105375309 0.0 0.0 0.0 0.0
317 1 6.3912713624 21.117175309 0.0 0.0 0.0 0.0
318 1 11.6670913624 22.127375309 0.0 0.0 0.0 0.0
319 1 18.6832913624 20.989975309 0.0 0.0 0.0 0.0
320 1 22.6694913624 20.189375309 0.0 0.0 0.0 0.0
321 1 27.2526913624 19.793575309 0.0 0.0 0.0 0.0
322 1 32.0453913624 19.593375309 0.0 0.0 0.0 0.0
323 1 36.8962913624 20.696075309 0.0 0.0 0.0 0.0
324 1 42.0532913624 21.555775309 0.0 0.0 0.0 0.0
325 1 47.1234913624 22.043275309 0.0 0.0 0.0 0.0
326 1 54.0253913624 24.480275309 0.0 0.0 0.0 0.0
327 1 57.8767913624 22.397575309 0.0 0.0 0.0 0.0
328 1 64.9642913624 22.548975309 0.0 0.0 0.0 0.0
329 1 71.3472913624 22.372775309 0.0 0.0 0.0 0.0
330 1 74.8628913624 20.917775309 0.0 0.0 0.0 0.0
331 1 3.6354113624 25.686675309 0.0 0.0 0.0 0.0
332 1 8.5810313624 25.840675309 0.0 0.0 0.0 0.0
333 1 14.3554913624 25.858375309 0.0 0.0 0.0 0.0
334 1 21.0954913624 22.773575309 0.0 0.0 0.0 0.0
335 1 26.3690913624 25.546575309 0.0 0.0 0.0 0.0
336 1 30.7490913624 22.331275309 0.0 0.0 0.0 0.0
337 1 35.9237913624 23.525775309 0.0 0.0 0.0 0.0
338 1 40.7234913624 26.600475309 0.0 0.0 0.0 0.0
339 1 45.7866913624 24.731075309 0.0 0.0 0.0 0.0
340 1 50.2763913624 26.757675309 0.0 0.0 0.0 0.0
341 1 57.2697913624 29.298275309 0.0 0.0 0.0 0.0
342 1 59.8545913624 27.805675309 0.0 0.0 0.0 0.0
343 1 66.9513913624 24.791375309 0.0 0.0 0.0 0.0
344 1 72.2584913624 25.276475309 0.0 0.0 0.0 0.0
345 1 77.2633913624 25.803975309 0.0 0.0 0.0 0.0
346 1 1.1536313624 30.024575309 0.0 0.0 0.0 0.0
347 1 6.5004213624 30.014475309 0.0 0.0 0.0 0.0
348 1 11.9496913624 29.966675309 0.0 0.0 0.0 0.0
349 1 17.4026913624 30.307975309 0.0 0.0 0.0 0.0
350 1 22.5526913624 29.923375309 0.0 0.0 0.0 0.0
351 1 27.5798913624 28.313275309 0.0 0.0 0.0 0.0
352 1 30.5580913624 28.658075309 0.0 0.0 0.0 0.0
353 1 38.2889913624 30.301575309 0.0 0.0 0.0 0.0
354 1 43.7108913624 31.218275309 0.0 0.0 0.0 0.0
355 1 49.1831913624 31.645775309 0.0 0.0 0.0 0.0
356 1 52.1959913624 31.881075309 0.0 0.0 0.0 0.0
357 1 59.2175913624 31.575475309 0.0 0.0 0.0 0.0
358 1 64.8141913624 29.915075309 0.0 0.0 0.0 0.0
359 1 69.3918913624 29.661675309 0.0 0.0 0.0 0.0
360 1 74.4233913624 30.307475309 0.0 0.0 0.0 0.0
361 1 4.6582413624 34.155575309 0.0 0.0 0.0 0.0
362 1 10.3597913624 32.519175309 0.0 0.0 0.0 0.0
363 1 14.9818913624 34.790175309 0.0 0.0 0.0 0.0
364 1 20.2761913624 34.875575309 0.0 0.0 0.0 0.0
365 1 25.5282913624 33.965275309 0.0 0.0 0.0 0.0
366 1 29.9303913624 31.570375309 0.0 0.0 0.0 0.0
367 1 34.5959913624 33.790775309 0.0 0.0 0.0 0.0
368 1 41.9073913624 36.771075309 0.0 0.0 0.0 0.0
369 1 45.9497913624 35.916175309 0.0 0.0 0.0 0.0
370 1 51.1041913624 36.176775309 0.0 0.0 0.0 0.0
371 1 58.2677913624 36.906675309 0.0 0.0 0.0 0.0
372 1 63.0257913624 34.644375309 0.0 0.0 0.0 0.0
373 1 68.5151913624 32.563875309 0.0 0.0 0.0 0.0
374 1 73.3198913624 35.468075309 0.0 0.0 0.0 0.0
375 1 78.0385913624 34.581575309 0.0 0.0 0.0 0.0
376 1 77.9148913624 39.390275309 0.0 0.0 0.0 0.0
377 1 7.0407513624 38.222675309 0.0 0.0 0.0 0.0
378 1 12.4396913624 38.987075309 0.0 0.0 0.0 0.0
379 1 17.7069913624 39.407975309 0.0 0.0 0.0 0.0
380 1 22.1865913624 40.381675309 0.0 0.0 0.0 0.0
381 1 26.8123913624 39.723475309 0.0 0.0 0.0 0.0
382 1 32.3364913624 38.409075309 0.0 0.0 0.0 0.0
383 1 37.4354913624 38.204275309 0.0 0.0 0.0 0.0
384 1 42.9094913624 39.620475309 0.0 0.0 0.0 0.0
385 1 48.3969913624 40.418775309 0.0 0.0 0.0 0.0
386 1 54.0170913624 39.878375309 0.0 0.0 0.0 0.0
387 1 60.0411913624 39.333375309 0.0 0.0 0.0 0.0
388 1 65.4267913624 38.556975309 0.0 0.0 0.0 0.0
389 1 70.1251913624 39.362675309 0.0 0.0 0.0 0.0
390 1 73.0859913624 39.766275309 0.0 0.0 0.0 0.0
391 1 5.6948113624 43.998375309 0.0 0.0 0.0 0.0
392 1 9.3203413624 42.904875309 0.0 0.0 0.0 0.0
393 1 14.1425913624 44.167675309 0.0 0.0 0.0 0.0
394 1 18.3608913624 44.294275309 0.0 0.0 0.0 0.0
395 1 25.1133913624 45.019975309 0.0 0.0 0.0 0.0
396 1 28.7491913624 42.032075309 0.0 0.0 0.0 0.0
397 1 31.7212913624 42.410375309 0.0 0.0 0.0 0.0
398 1 39.5664913624 43.054975309 0.0 0.0 0.0 0.0
399 1 45.2802913624 44.075875309 0.0 0.0 0.0 0.0
400 1 51.1367913624 44.328175309 0.0 0.0 0.0 0.0
401 1 56.6055913624 44.133975309 0.0 0.0 0.0 0.0
402 1 61.8140913624 43.199175309 0.0 0.0 0.0 0.0
403 1 66.3715913624 43.297075309 0.0 0.0 0.0 0.0
404 1 71.4227913624 44.077575309 0.0 0.0 0.0 0.0
405 1 76.7316913624 43.820775309 0.0 0.0 0.0 0.0
406 1 0.164046362403 48.372275309 0.0 0.0 0.0 0.0
407 1 2.9988913624 47.396575309 0.0 0.0 0.0 0.0
408 1 10.4111913624 47.758075309 0.0 0.0 0.0 0.0
409 1 15.7948913624 48.911775309 0.0 0.0 0.0 0.0
410 1 20.9595913624 48.631575309 0.0 0.0 0.0 0.0
411 1 26.8833913624 47.521975309 0.0 0.0 0.0 0.0
412 1 31.5435913624 45.367675309 0.0 0.0 0.0 0.0
413 1 35.6104913624 47.266375309 0.0 0.0 0.0 0.0
414 1 40.9873913624 47.118075309 0.0 0.0 0.0 0.0
415 1 48.1253913624 49.027875309 0.0 0.0 0.0 0.0
416 1 54.6632913624 49.773075309 0.0 0.0 0.0 0.0
417 1 58.6148913624 49.001075309 0.0 0.0 0.0 0.0
418 1 61.6011913624 48.909775309 0.0 0.0 0.0 0.0
419 1 68.1036913624 47.840875309 0.0 0.0 0.0 0.0
420 1 73.6789913624 48.289475309 0.0 0.0 0.0 0.0
421 1 2.3311413624 52.224175309 0.0 0.0 0.0 0.0
422 1 7.0900813624 51.568175309 0.0 0.0 0.0 0.0
423 1 12.3241913624 52.700275309 0.0 0.0 0.0 0.0
424 1 15.3067913624 53.191775309 0.0 0.0 0.0 0.0
425 1 23.1212913624 53.466275309 0.0 0.0 0.0 0.0
426 1 26.1850913624 53.261875309 0.0 0.0 0.0 0.0
427 1 33.2218913624 52.283975309 0.0 0.0 0.0 0.0
428 1 37.9520913624 51.712575309 0.0 0.0 0.0 0.0
429 1 42.7407913624 51.732475309 0.0 0.0 0.0 0.0
430 1 49.2418913624 51.845675309 0.0 0.0 0.0 0.0
431 1 55.1727913624 52.763475309 0.0 0.0 0.0 0.0
432 1 60.3837913624 53.809475309 0.0 0.0 0.0 0.0
433 1 65.5027913624 52.415575309 0.0 0.0 0.0 0.0
434 1 70.5338913624 52.435275309 0.0 0.0 0.0 0.0
435 1 75.6695913624 53.024575309 0.0 0.0 0.0 0.0
436 1 77.8384913624 56.996175309 0.0 0.0 0.0 0.0
437 1 4.4567913624 56.060275309 0.0 0.0 0.0 0.0
438 1 9.0759913624 56.843675309 0.0 0.0 0.0 0.0
439 1 13.9604913624 57.782675309 0.0 0.0 0.0 0.0
440 1 19.0538913624 57.345875309 0.0 0.0 0.0 0.0
441 1 26.0314913624 59.111675309 0.0 0.0 0.0 0.0
442 1 32.5005913624 57.731575309 0.0 0.0 0.0 0.0
443 1 35.4273913624 57.195775309 0.0 0.0 0.0 0.0
444 1 41.6294913624 54.557775309 0.0 0.0 0.0 0.0
445 1 46.3930913624 56.768175309 0.0 0.0 0.0 0.0
446 1 51.3189913624 56.572275309 0.0 0.0 0.0 0.0
447 1 56.5335913624 57.654975309 0.0 0.0 0.0 0.0
448 1 62.2287913624 57.690275309 0.0 0.0 0.0 0.0
449 1 65.1701913624 57.083375309 0.0 0.0 0.0 0.0
450 1 72.3956913624 57.383375309 0.0 0.0 0.0 0.0
451 1 1.9835113624 60.698175309 0.0 0.0 0.0 0.0
452 1 6.7447113624 60.969975309 0.0 0.0 0.0 0.0
453 1 11.4430913624 62.133875309 0.0 0.0 0.0 0.0
454 1 16.6363913624 62.425675309 0.0 0.0 0.0 0.0
455 1 21.5439913624 61.600075309 0.0 0.0 0.0 0.0
456 1 30.1953913624 60.944475309 0.0 0.0 0.0 0.0
457 1 33.7313913624 60.442175309 0.0 0.0 0.0 0.0
458 1 40.0986913624 62.187075309 0.0 0.0 0.0 0.0
459 1 44.3223913624 61.261275309 0.0 0.0 0.0 0.0
460 1 48.9504913624 61.946475309 0.0 0.0 0.0 0.0
461 1 53.0570913624 61.576275309 0.0 0.0 0.0 0.0
462 1 60.7984913624 64.660975309 0.0 0.0 0.0 0.0
463 1 63.3904913624 63.228175309 0.0 0.0 0.0 0.0
464 1 69.1636913624 61.295275309 0.0 0.0 0.0 0.0
465 1 76.6427913624 62.805675309 0.0 0.0 0.0 0.0
466 1 78.2569913624 65.347575309 0.0 0.0 0.0 0.0
467 1 5.1154413624 63.467975309 0.0 0.0 0.0 0.0
468 1 8.8428513624 66.605675309 0.0 0.0 0.0 0.0
469 1 14.1134913624 66.635575309 0.0 0.0 0.0 0.0
470 1 19.6977913624 66.595175309 0.0 0.0 0.0 0.0
471 1 24.9329913624 65.234375309 0.0 0.0 0.0 0.0
472 1 27.9438913624 64.844475309 0.0 0.0 0.0 0.0
473 1 34.8612913624 64.832575309 0.0 0.0 0.0 0.0
474 1 41.2042913624 64.986375309 0.0 0.0 0.0 0.0
475 1 46.1490913624 66.403275309 0.0 0.0 0.0 0.0
476 1 51.2192913624 66.957375309 0.0 0.0 0.0 0.0
477 1 55.9858913624 63.639575309 0.0 0.0 0.0 0.0
478 1 62.8344913624 66.840275309 0.0 0.0 0.0 0.0
479 1 68.1092913624 66.703675309 0.0 0.0 0.0 0.0
480 1 72.4401913624 65.626875309 0.0 0.0 0.0 0.0
481 1 77.7338913624 71.051275309 0.0 0.0 0.0 0.0
482 1 5.0654313624 70.427875309 0.0 0.0 0.0 0.0
483 1 11.8987913624 72.015975309 0.0 0.0 0.0 0.0
484 1 18.2338913624 72.025375309 0.0 0.0 0.0 0.0
485 1 24.2852913624 70.996875309 0.0 0.0 0.0 0.0
486 1 28.0552913624 69.136875309 0.0 0.0 0.0 0.0
487 1 32.5528913624 68.991275309 0.0 0.0 0.0 0.0
488 1 38.0647913624 69.326575309 0.0 0.0 0.0 0.0
489 1 43.8308913624 68.371475309 0.0 0.0 0.0 0.0
490 1 50.5032913624 72.898075309 0.0 0.0 0.0 0.0
491 1 54.1808913624 71.544575309 0.0 0.0 0.0 0.0
492 1 57.0965913624 70.925975309 0.0 0.0 0.0 0.0
493 1 64.2965913624 71.346675309 0.0 0.0 0.0 0.0
494 1 67.3260913624 71.474475309 0.0 0.0 0.0 0.0
495 1 74.7289913624 70.618975309 0.0 0.0 0.0 0.0
496 1 76.2198913624 75.131975309 0.0 0.0 0.0 0.0
497 1 2.8894013624 75.545275309 0.0 0.0 0.0 0.0
498 1 7.6257513624 74.844375309 0.0 0.0 0.0 0.0
499 1 13.5252913624 74.527175309 0.0 0.0 0.0 0.0
500 1 19.7875913624 74.586575309 0.0 0.0 0.0 0.0
501 1 27.0951913624 71.947675309 0.0 0.0 0.0 0.0
502 1 30.4155913624 74.221475309 0.0 0.0 0.0 0.0
503 1 35.2799913624 73.583175309 0.0 0.0 0.0 0.0
504 1 40.2667913624 74.504875309 0.0 0.0 0.0 0.0
505 1 45.7686913624 75.111875309 0.0 0.0 0.0 0.0
506 1 51.8020913624 75.694775309 0.0 0.0 0.0 0.0
507 1 57.3308913624 75.751175309 0.0 0.0 0.0 0.0
508 1 61.9771913624 73.242375309 0.0 0.0 0.0 0.0
509 1 66.1685913624 76.391375309 0.0 0.0 0.0 0.0
510 1 71.2390913624 75.123275309 0.0 0.0 0.0 0.0
511 1 5.1485113624 77.634275309 0.0 0.0 0.0 0.0
512 1 8.2045513624 77.766075309 0.0 0.0 0.0 0.0
513 1 13.6907913624 77.530675309 0.0 0.0 0.0 0.0
514 1 19.3812913624 77.588475309 0.0 0.0 0.0 0.0
515 1 25.2639913624 77.043275309 0.0 0.0 0.0 0.0
516 1 30.5292913624 77.213475309 0.0 0.0 0.0 0.0
517 1 35.5565913624 76.611575309 0.0 0.0 0.0 0.0
518 1 40.6392913624 77.532875309 0.0 0.0 0.0 0.0
519 1 46.3449913624 78.047175309 0.0 0.0 0.0 0.0
520 1 51.9890913624 78.766675309 0.0 0.0 0.0 0.0
521 1 58.9603913624 78.285975309 0.0 0.0 0.0 0.0
522 1 61.9586913624 78.624175309 0.0 0.0 0.0 0.0
523 1 67.3498913624 80.843375309 0.0 0.0 0.0 0.0
524 1 72.2174913624 77.969475309 0.0 0.0 0.0 0.0
525 1 77.2859913624 80.149975309 0.0 0.0 0.0 0.0
526 1 1.6975613624 80.345775309 0.0 0.0 0.0 0.0
527 1 4.7302213624 80.600675309 0.0 0.0 0.0 0.0
528 1 11.0133913624 78.985875309 0.0 0.0 0.0 0.0
529 1 16.4857913624 78.731575309 0.0 0.0 0.0 0.0
530 1 22.4027913624 78.209375309 0.0 0.0 0.0 0.0
531 1 27.8437913624 78.602075309 0.0 0.0 0.0 0.0
532 1 33.2199913624 78.524775309 0.0 0.0 0.0 0.0
533 1 37.8018913624 78.636775309 0.0 0.0 0.0 0.0
534 1 43.4128913624 78.857575309 0.0 0.0 0.0 0.0
535 1 49.0245913624 79.499475309 0.0 0.0 0.0 0.0
536 1 54.3336913624 80.819475309 0.0 0.0 0.0 0.0
537 1 57.4215913624 80.852575309 0.0 0.0 0.0 0.0
538 1 64.9175913624 79.125675309 0.0 0.0 0.0 0.0
539 1 70.2892913624 80.280475309 0.0 0.0 0.0 0.0
540 1 75.2294913624 77.961075309 0.0 0.0 0.0 0.0
541 2 3.1305813624 2.68703530901 0.0 0.0 0.0 0.0
542 2 1.6255013624 0.699785309014 0.0 0.0 0.0 0.0
543 2 0.441135362403 2.90674530901 0.0 0.0 0.0 0.0
544 2 5.8893213624 0.468655309014 0.0 0.0 0.0 0.0
545 2 8.3026013624 2.20827530901 0.0 0.0 0.0 0.0
546 2 5.7440913624 2.68678530901 0.0 0.0 0.0 0.0
547 2 11.3890913624 80.456775309 0.0 0.0 0.0 0.0
548 2 13.4883913624 0.575605309014 0.0 0.0 0.0 0.0
549 2 10.8849913624 1.85086530901 0.0 0.0 0.0 0.0
550 2 16.1144913624 1.29378530901 0.0 0.0 0.0 0.0
551 2 18.8230913624 1.92839530901 0.0 0.0 0.0 0.0
552 2 17.3875913624 3.70476530901 0.0 0.0 0.0 0.0
553 2 22.5231913624 79.725575309 0.0 0.0 0.0 0.0
554 2 23.9069913624 0.862025309014 0.0 0.0 0.0 0.0
555 2 21.4147913624 1.02107530901 0.0 0.0 0.0 0.0
556 2 27.8998913624 80.095175309 0.0 0.0 0.0 0.0
557 2 29.2836913624 1.10735530901 0.0 0.0 0.0 0.0
558 2 26.5601913624 1.06347530901 0.0 0.0 0.0 0.0
559 2 33.1591913624 80.025475309 0.0 0.0 0.0 0.0
560 2 34.7501913624 0.389622309014 0.0 0.0 0.0 0.0
561 2 31.9463913624 1.25769530901 0.0 0.0 0.0 0.0
562 2 37.0406913624 1.40397530901 0.0 0.0 0.0 0.0
563 2 39.2512913624 3.07248530901 0.0 0.0 0.0 0.0
564 2 37.2073913624 4.11120530901 0.0 0.0 0.0 0.0
565 2 43.9296913624 80.296175309 0.0 0.0 0.0 0.0
566 2 46.2230913624 0.705025309014 0.0 0.0 0.0 0.0
567 2 44.0361913624 1.75448530901 0.0 0.0 0.0 0.0
568 2 48.1458913624 2.51437530901 0.0 0.0 0.0 0.0
569 2 49.3246913624 5.17073530901 0.0 0.0 0.0 0.0
570 2 46.9572913624 4.66559530901 0.0 0.0 0.0 0.0
571 2 54.1384913624 4.24876530901 0.0 0.0 0.0 0.0
572 2 55.8807913624 2.87695530901 0.0 0.0 0.0 0.0
573 2 54.1326913624 1.21385530901 0.0 0.0 0.0 0.0
574 2 58.6911913624 0.592185309014 0.0 0.0 0.0 0.0
575 2 61.0808913624 2.52769530901 0.0 0.0 0.0 0.0
576 2 58.5922913624 2.60419530901 0.0 0.0 0.0 0.0
577 2 66.2191913624 3.58280530901 0.0 0.0 0.0 0.0
578 2 67.2486913624 1.19691530901 0.0 0.0 0.0 0.0
579 2 68.9408913624 2.64501530901 0.0 0.0 0.0 0.0
580 2 70.4775913624 0.633595309014 0.0 0.0 0.0 0.0
581 2 71.7247913624 2.76224530901 0.0 0.0 0.0 0.0
582 2 76.5860913624 2.58990530901 0.0 0.0 0.0 0.0
583 2 76.3631913624 0.221636309014 0.0 0.0 0.0 0.0
584 2 74.2760913624 2.30276530901 0.0 0.0 0.0 0.0
585 2 77.1091913624 7.28540530901 0.0 0.0 0.0 0.0
586 2 1.2349413624 6.25179530901 0.0 0.0 0.0 0.0
587 2 77.9128913624 5.03449530901 0.0 0.0 0.0 0.0
588 2 3.6376613624 6.96669530901 0.0 0.0 0.0 0.0
589 2 6.1289213624 7.79118530901 0.0 0.0 0.0 0.0
590 2 3.9267713624 9.37427530901 0.0 0.0 0.0 0.0
591 2 9.8565913624 4.40131530901 0.0 0.0 0.0 0.0
592 2 11.3538913624 6.65582530901 0.0 0.0 0.0 0.0
593 2 8.7998413624 6.94822530901 0.0 0.0 0.0 0.0
594 2 16.6856913624 6.20478530901 0.0 0.0 0.0 0.0
595 2 19.2871913624 5.31741530901 0.0 0.0 0.0 0.0
596 2 20.7068913624 3.53748530901 0.0 0.0 0.0 0.0
597 2 22.0665913624 5.87356530901 0.0 0.0 0.0 0.0
598 2 25.3234913624 3.16896530901 0.0 0.0 0.0 0.0
599 2 27.2294913624 4.53928530901 0.0 0.0 0.0 0.0
600 2 24.6181913624 5.68616530901 0.0 0.0 0.0 0.0
601 2 29.3408913624 5.73167530901 0.0 0.0 0.0 0.0
602 2 31.4164913624 7.36153530901 0.0 0.0 0.0 0.0
603 2 29.2575913624 8.46702530901 0.0 0.0 0.0 0.0
604 2 38.4528913624 6.23020530901 0.0 0.0 0.0 0.0
605 2 36.3030913624 6.88519530901 0.0 0.0 0.0 0.0
606 2 42.0063913624 3.40029530901 0.0 0.0 0.0 0.0
607 2 40.4242913624 5.31451530901 0.0 0.0 0.0 0.0
608 2 45.3009913624 6.74678530901 0.0 0.0 0.0 0.0
609 2 46.6718913624 8.68301530901 0.0 0.0 0.0 0.0