ITEM: TIMESTEP
0
ITEM: NUMBER OF ATOMS
1350
ITEM: BOX BOUNDS xy xz yz pp pp pp
0.0 79.0242957748 0
0.0 80.9419457116 0
-10.0 10.0 0
ITEM: ATOMS id type x y z vx vy vz
1 1 5.12734566423 1.2489628558 0.0 0.0 0.0 0.0
2 1 8.13308566423 1.6662528558 0.0 0.0 0.0 0.0
3 1 12.8382856642 1.8396728558 0.0 0.0 0.0 0.0
4 1 18.2494856642 2.1818428558 0.0 0.0 0.0 0.0
5 1 23.5025856642 4.0998928558 0.0 0.0 0.0 0.0
6 1 28.3971856642 3.4326228558 0.0 0.0 0.0 0.0
7 1 35.7632856642 1.5323828558 0.0 0.0 0.0 0.0
8 1 38.5865856642 0.449232855796 0.0 0.0 0.0 0.0
9 1 43.7703856642 80.8496728558 0.0 0.0 0.0 0.0
10 1 48.9272856642 80.7602728558 0.0 0.0 0.0 0.0
11 1 56.6832856642 0.281676855796 0.0 0.0 0.0 0.0
12 1 59.6537856642 0.856662855796 0.0 0.0 0.0 0.0
13 1 64.6363856642 1.4453528558 0.0 0.0 0.0 0.0
14 1 70.2802856642 0.893062855796 0.0 0.0 0.0 0.0
15 1 76.0897856642 0.938472855796 0.0 0.0 0.0 0.0
16 1 77.0994856642 3.8197428558 0.0 0.0 0.0 0.0
17 1 4.80321566423 6.8010728558 0.0 0.0 0.0 0.0
18 1 10.5932856642 6.7406228558 0.0 0.0 0.0 0.0
19 1 15.8035856642 6.2851328558 0.0 0.0 0.0 0.0
20 1 20.3908856642 9.1657328558 0.0 0.0 0.0 0.0
21 1 25.9913856642 8.5290728558 0.0 0.0 0.0 0.0
22 1 31.8222856642 7.6486328558 0.0 0.0 0.0 0.0
23 1 37.4769856642 8.1251728558 0.0 0.0 0.0 0.0
24 1 41.8677856642 4.6513628558 0.0 0.0 0.0 0.0
25 1 46.7918856642 4.3709728558 0.0 0.0 0.0 0.0
26 1 51.2286856642 4.6567228558 0.0 0.0 0.0 0.0
27 1 55.5074856642 7.6053328558 0.0 0.0 0.0 0.0
28 1 61.1579856642 5.7102028558 0.0 0.0 0.0 0.0
29 1 67.7213856642 5.2342528558 0.0 0.0 0.0 0.0
30 1 73.0563856642 4.7808328558 0.0 0.0 0.0 0.0
31 1 1.61532566423 10.5544728558 0.0 0.0 0.0 0.0
32 1 6.36533566423 9.3711728558 0.0 0.0 0.0 0.0
33 1 13.3706856642 10.9975728558 0.0 0.0 0.0 0.0
34 1 18.6801856642 11.6177728558 0.0 0.0 0.0 0.0
35 1 23.5535856642 12.8677728558 0.0 0.0 0.0 0.0
36 1 27.5009856642 11.1585728558 0.0 0.0 0.0 0.0
37 1 38.0956856642 11.0606728558 0.0 0.0 0.0 0.0
38 1 42.2133856642 9.5529728558 0.0 0.0 0.0 0.0
39 1 45.1764856642 9.1298628558 0.0 0.0 0.0 0.0
40 1 49.8874856642 9.3274728558 0.0 0.0 0.0 0.0
41 1 54.2365856642 11.7864728558 0.0 0.0 0.0 0.0
42 1 59.5493856642 9.8327728558 0.0 0.0 0.0 0.0
43 1 63.2134856642 7.9111928558 0.0 0.0 0.0 0.0
44 1 70.3096856642 9.3334728558 0.0 0.0 0.0 0.0
45 1 75.1941856642 9.4820728558 0.0 0.0 0.0 0.0
46 1 78.0282856642 14.1629728558 0.0 0.0 0.0 0.0
47 1 4.81019566423 14.6762728558 0.0 0.0 0.0 0.0
48 1 10.8127856642 15.3714728558 0.0 0.0 0.0 0.0
49 1 16.0485856642 15.6598728558 0.0 0.0 0.0 0.0
50 1 20.9269856642 18.5697728558 0.0 0.0 0.0 0.0
51 1 26.3856856642 17.0195728558 0.0 0.0 0.0 0.0
52 1 32.5773856642 15.4484728558 0.0 0.0 0.0 0.0
53 1 37.7916856642 17.4093728558 0.0 0.0 0.0 0.0
54 1 42.5049856642 14.7469728558 0.0 0.0 0.0 0.0
55 1 47.5965856642 14.1245728558 0.0 0.0 0.0 0.0
56 1 54.6864856642 14.7281728558 0.0 0.0 0.0 0.0
57 1 57.6566856642 14.6250728558 0.0 0.0 0.0 0.0
58 1 62.7505856642 13.7765728558 0.0 0.0 0.0 0.0
59 1 67.6229856642 13.5318728558 0.0 0.0 0.0 0.0
60 1 71.2215856642 16.4460728558 0.0 0.0 0.0 0.0
61 1 1.80419566423 18.1190728558 0.0 0.0 0.0 0.0
62 1 6.19057566423 17.3859728558 0.0 0.0 0.0 0.0
63 1 13.1899856642 20.0340728558 0.0 0.0 0.0 0.0
64 1 18.9927856642 20.8812728558 0.0 0.0 0.0 0.0
65 1 24.5533856642 21.7831728558 0.0 0.0 0.0 0.0
66 1 28.6118856642 19.0802728558 0.0 0.0 0.0 0.0
67 1 36.4618856642 20.0874728558 0.0 0.0 0.0 0.0
68 1 42.7399856642 19.4521728558 0.0 0.0 0.0 0.0
69 1 45.6991856642 18.9932728558 0.0 0.0 0.0 0.0
70 1 49.9273856642 19.4022728558 0.0 0.0 0.0 0.0
71 1 55.3503856642 21.4524728558 0.0 0.0 0.0 0.0
72 1 60.6775856642 18.6948728558 0.0 0.0 0.0 0.0
73 1 65.0873856642 20.6883728558 0.0 0.0 0.0 0.0
74 1 70.2247856642 19.2667728558 0.0 0.0 0.0 0.0
75 1 73.8411856642 17.8854728558 0.0 0.0 0.0 0.0
76 1 78.7878856642 22.3164728558 0.0 0.0 0.0 0.0
77 1 3.43113566423 25.3090728558 0.0 0.0 0.0 0.0
78 1 10.6267856642 25.9551728558 0.0 0.0 0.0 0.0
79 1 15.6664856642 24.2882728558 0.0 0.0 0.0 0.0
80 1 21.1055856642 25.3382728558 0.0 0.0 0.0 0.0
81 1 26.9909856642 23.6032728558 0.0 0.0 0.0 0.0
82 1 32.2822856642 23.2167728558 0.0 0.0 0.0 0.0
83 1 37.3616856642 25.0030728558 0.0 0.0 0.0 0.0
84 1 42.9566856642 24.8139728558 0.0 0.0 0.0 0.0
85 1 48.5016856642 24.2320728558 0.0 0.0 0.0 0.0
86 1 54.0334856642 24.1976728558 0.0 0.0 0.0 0.0
87 1 58.8659856642 23.5448728558 0.0 0.0 0.0 0.0
88 1 64.1421856642 23.5288728558 0.0 0.0 0.0 0.0
89 1 69.0266856642 24.1116728558 0.0 0.0 0.0 0.0
90 1 73.7081856642 23.6037728558 0.0 0.0 0.0 0.0
91 1 6.45562566423 25.4777728558 0.0 0.0 0.0 0.0
92 1 9.62662566423 28.7979728558 0.0 0.0 0.0 0.0
93 1 14.0277856642 29.4302728558 0.0 0.0 0.0 0.0
94 1 18.5834856642 28.8831728558 0.0 0.0 0.0 0.0
95 1 22.9239856642 27.7063728558 0.0 0.0 0.0 0.0
96 1 29.7245856642 28.9558728558 0.0 0.0 0.0 0.0
97 1 34.4107856642 28.4541728558 0.0 0.0 0.0 0.0
98 1 40.2941856642 29.0246728558 0.0 0.0 0.0 0.0
99 1 45.8490856642 28.7108728558 0.0 0.0 0.0 0.0
100 1 51.4612856642 28.5603728558 0.0 0.0 0.0 0.0
101 1 58.2168856642 28.2171728558 0.0 0.0 0.0 0.0
102 1 61.2090856642 27.9296728558 0.0 0.0 0.0 0.0
103 1 66.3545856642 28.5084728558 0.0 0.0 0.0 0.0
104 1 71.6787856642 28.7456728558 0.0 0.0 0.0 0.0
105 1 77.1934856642 27.3460728558 0.0 0.0 0.0 0.0
106 1 2.08443566423 30.2986728558 0.0 0.0 0.0 0.0
107 1 5.81612566423 33.9772728558 0.0 0.0 0.0 0.0
108 1 11.7366856642 34.1144728558 0.0 0.0 0.0 0.0
109 1 18.4910856642 33.3431728558 0.0 0.0 0.0 0.0
110 1 21.4970856642 33.1631728558 0.0 0.0 0.0 0.0
111 1 26.9515856642 33.8794728558 0.0 0.0 0.0 0.0
112 1 32.0915856642 33.6404728558 0.0 0.0 0.0 0.0
113 1 37.2217856642 32.3136728558 0.0 0.0 0.0 0.0
114 1 42.7325856642 33.0577728558 0.0 0.0 0.0 0.0
115 1 48.0635856642 32.7807728558 0.0 0.0 0.0 0.0
116 1 53.5222856642 33.1246728558 0.0 0.0 0.0 0.0
117 1 58.7285856642 33.5359728558 0.0 0.0 0.0 0.0
118 1 63.9395856642 32.7301728558 0.0 0.0 0.0 0.0
119 1 67.9203856642 35.2753728558 0.0 0.0 0.0 0.0
120 1 75.8687856642 31.9051728558 0.0 0.0 0.0 0.0
121 1 3.90110566423 36.3477728558 0.0 0.0 0.0 0.0
122 1 8.53306566423 37.7276728558 0.0 0.0 0.0 0.0
123 1 13.7445856642 38.6209728558 0.0 0.0 0.0 0.0
124 1 20.0237856642 37.6359728558 0.0 0.0 0.0 0.0
125 1 23.0663856642 37.5864728558 0.0 0.0 0.0 0.0
126 1 28.4124856642 38.2051728558 0.0 0.0 0.0 0.0
127 1 37.6330856642 35.9064728558 0.0 0.0 0.0 0.0
128 1 38.2807856642 38.8193728558 0.0 0.0 0.0 0.0
129 1 45.6642856642 37.3422728558 0.0 0.0 0.0 0.0
130 1 51.3335856642 37.1321728558 0.0 0.0 0.0 0.0
131 1 56.0839856642 39.8285728558 0.0 0.0 0.0 0.0
132 1 63.0268856642 37.4526728558 0.0 0.0 0.0 0.0
133 1 66.0749856642 37.6584728558 0.0 0.0 0.0 0.0
134 1 70.5282856642 36.7403728558 0.0 0.0 0.0 0.0
135 1 78.4121856642 35.2664728558 0.0 0.0 0.0 0.0
136 1 0.0604856642297 40.5231728558 0.0 0.0 0.0 0.0
137 1 4.92877566423 41.6288728558 0.0 0.0 0.0 0.0
138 1 10.1203856642 42.4507728558 0.0 0.0 0.0 0.0
139 1 15.3404856642 43.3521728558 0.0 0.0 0.0 0.0
140 1 20.3973856642 43.2011728558 0.0 0.0 0.0 0.0
141 1 25.4139856642 42.3304728558 0.0 0.0 0.0 0.0
142 1 29.9009856642 40.8307728558 0.0 0.0 0.0 0.0
143 1 36.8931856642 42.7521728558 0.0 0.0 0.0 0.0
144 1 40.8261856642 40.4412728558 0.0 0.0 0.0 0.0
145 1 48.2528856642 41.2419728558 0.0 0.0 0.0 0.0
146 1 53.9007856642 41.9062728558 0.0 0.0 0.0 0.0
147 1 58.3103856642 43.6069728558 0.0 0.0 0.0 0.0
148 1 63.0929856642 43.1913728558 0.0 0.0 0.0 0.0
149 1 71.1479856642 40.9304728558 0.0 0.0 0.0 0.0
150 1 74.0686856642 40.1632728558 0.0 0.0 0.0 0.0
151 1 2.21054566423 45.7272728558 0.0 0.0 0.0 0.0
152 1 6.90526566423 46.4340728558 0.0 0.0 0.0 0.0
153 1 11.8210856642 47.1990728558 0.0 0.0 0.0 0.0
154 1 17.0771856642 47.7553728558 0.0 0.0 0.0 0.0
155 1 23.0138856642 47.3807728558 0.0 0.0 0.0 0.0
156 1 29.2198856642 46.2162728558 0.0 0.0 0.0 0.0
157 1 34.7523856642 47.0031728558 0.0 0.0 0.0 0.0
158 1 39.7928856642 46.2907728558 0.0 0.0 0.0 0.0
159 1 44.8578856642 45.1454728558 0.0 0.0 0.0 0.0
160 1 50.2902856642 45.4422728558 0.0 0.0 0.0 0.0
161 1 55.1930856642 47.4539728558 0.0 0.0 0.0 0.0
162 1 59.2561856642 46.4477728558 0.0 0.0 0.0 0.0
163 1 65.4486856642 45.0584728558 0.0 0.0 0.0 0.0
164 1 72.0223856642 46.7005728558 0.0 0.0 0.0 0.0
165 1 76.5975856642 45.1044728558 0.0 0.0 0.0 0.0
166 1 78.4435856642 50.3207728558 0.0 0.0 0.0 0.0
167 1 4.71009566423 50.8688728558 0.0 0.0 0.0 0.0
168 1 8.85452566423 53.8330728558 0.0 0.0 0.0 0.0
169 1 14.4495856642 51.8410728558 0.0 0.0 0.0 0.0
170 1 18.3913856642 50.4404728558 0.0 0.0 0.0 0.0
171 1 24.8805856642 49.7358728558 0.0 0.0 0.0 0.0
172 1 31.6607856642 50.6850728558 0.0 0.0 0.0 0.0
173 1 38.1558856642 51.2178728558 0.0 0.0 0.0 0.0
174 1 42.7765856642 50.2025728558 0.0 0.0 0.0 0.0
175 1 47.8354856642 49.5342728558 0.0 0.0 0.0 0.0
176 1 52.3163856642 52.8292728558 0.0 0.0 0.0 0.0
177 1 58.3435856642 51.9686728558 0.0 0.0 0.0 0.0
178 1 65.5295856642 50.8611728558 0.0 0.0 0.0 0.0
179 1 68.5539856642 51.0858728558 0.0 0.0 0.0 0.0
180 1 75.4523856642 50.5330728558 0.0 0.0 0.0 0.0
181 1 0.62872666423 56.0975728558 0.0 0.0 0.0 0.0
182 1 3.61485566423 53.6681728558 0.0 0.0 0.0 0.0
183 1 12.1756856642 56.0775728558 0.0 0.0 0.0 0.0
184 1 17.7105856642 56.1030728558 0.0 0.0 0.0 0.0
185 1 22.7998856642 55.2263728558 0.0 0.0 0.0 0.0
186 1 28.1121856642 54.5385728558 0.0 0.0 0.0 0.0
187 1 32.7571856642 55.8712728558 0.0 0.0 0.0 0.0
188 1 36.4505856642 53.6890728558 0.0 0.0 0.0 0.0
189 1 44.7544856642 54.2931728558 0.0 0.0 0.0 0.0
190 1 50.4101856642 55.1901728558 0.0 0.0 0.0 0.0
191 1 55.4030856642 55.4648728558 0.0 0.0 0.0 0.0
192 1 60.7104856642 56.4957728558 0.0 0.0 0.0 0.0
193 1 65.1435856642 56.3718728558 0.0 0.0 0.0 0.0
194 1 70.5747856642 55.8337728558 0.0 0.0 0.0 0.0
195 1 75.2402856642 55.9861728558 0.0 0.0 0.0 0.0
196 1 78.1358856642 61.0732728558 0.0 0.0 0.0 0.0
197 1 4.60026566423 59.5580728558 0.0 0.0 0.0 0.0
198 1 9.40676566423 59.7869728558 0.0 0.0 0.0 0.0
199 1 14.5802856642 60.1404728558 0.0 0.0 0.0 0.0
200 1 18.9514856642 58.8427728558 0.0 0.0 0.0 0.0
201 1 25.8361856642 59.1951728558 0.0 0.0 0.0 0.0
202 1 30.1220856642 62.3368728558 0.0 0.0 0.0 0.0
203 1 35.3333856642 59.5529728558 0.0 0.0 0.0 0.0
204 1 42.8998856642 58.2061728558 0.0 0.0 0.0 0.0
205 1 45.6848856642 57.1146728558 0.0 0.0 0.0 0.0
206 1 51.8397856642 59.7361728558 0.0 0.0 0.0 0.0
207 1 56.9045856642 60.0109728558 0.0 0.0 0.0 0.0
208 1 61.2428856642 59.4664728558 0.0 0.0 0.0 0.0
209 1 69.5504856642 59.9207728558 0.0 0.0 0.0 0.0
210 1 72.4472856642 60.7720728558 0.0 0.0 0.0 0.0
211 1 3.23521566423 64.0634728558 0.0 0.0 0.0 0.0
212 1 8.37630566423 64.1991728558 0.0 0.0 0.0 0.0
213 1 13.0836856642 64.2264728558 0.0 0.0 0.0 0.0
214 1 17.9417856642 66.4856728558 0.0 0.0 0.0 0.0
215 1 23.1371856642 63.8111728558 0.0 0.0 0.0 0.0
216 1 28.6180856642 64.9519728558 0.0 0.0 0.0 0.0
217 1 35.0187856642 63.6490728558 0.0 0.0 0.0 0.0
218 1 37.3350856642 61.7721728558 0.0 0.0 0.0 0.0
219 1 44.1903856642 64.0013728558 0.0 0.0 0.0 0.0
220 1 49.2942856642 63.6593728558 0.0 0.0 0.0 0.0
221 1 54.7164856642 65.3509728558 0.0 0.0 0.0 0.0
222 1 58.9266856642 66.8638728558 0.0 0.0 0.0 0.0
223 1 64.3650856642 65.1133728558 0.0 0.0 0.0 0.0
224 1 69.5448856642 65.0365728558 0.0 0.0 0.0 0.0
225 1 73.9038856642 63.4420728558 0.0 0.0 0.0 0.0
226 1 77.9339856642 66.7471728558 0.0 0.0 0.0 0.0
227 1 5.91254566423 70.9484728558 0.0 0.0 0.0 0.0
228 1 11.4354856642 69.0685728558 0.0 0.0 0.0 0.0
229 1 16.9609856642 69.3416728558 0.0 0.0 0.0 0.0
230 1 21.6884856642 68.7387728558 0.0 0.0 0.0 0.0
231 1 26.0981856642 71.0114728558 0.0 0.0 0.0 0.0
232 1 31.2866856642 69.8781728558 0.0 0.0 0.0 0.0
233 1 35.9598856642 68.5727728558 0.0 0.0 0.0 0.0
234 1 41.3145856642 68.1650728558 0.0 0.0 0.0 0.0
235 1 45.7364856642 66.6024728558 0.0 0.0 0.0 0.0
236 1 53.4433856642 68.0785728558 0.0 0.0 0.0 0.0
237 1 56.7908856642 71.4409728558 0.0 0.0 0.0 0.0
238 1 62.9001856642 69.7181728558 0.0 0.0 0.0 0.0
239 1 68.2273856642 69.3420728558 0.0 0.0 0.0 0.0
240 1 75.0094856642 71.0084728558 0.0 0.0 0.0 0.0
241 1 4.34469566423 73.5339728558 0.0 0.0 0.0 0.0
242 1 9.40816566423 73.7533728558 0.0 0.0 0.0 0.0
243 1 14.5884856642 73.4855728558 0.0 0.0 0.0 0.0
244 1 19.8447856642 73.9041728558 0.0 0.0 0.0 0.0
245 1 25.5148856642 73.9552728558 0.0 0.0 0.0 0.0
246 1 28.4436856642 74.7268728558 0.0 0.0 0.0 0.0
247 1 35.8063856642 73.3811728558 0.0 0.0 0.0 0.0
248 1 38.7539856642 72.6939728558 0.0 0.0 0.0 0.0
249 1 44.2475856642 72.1939728558 0.0 0.0 0.0 0.0
250 1 49.7592856642 72.0281728558 0.0 0.0 0.0 0.0
251 1 54.7753856642 73.6287728558 0.0 0.0 0.0 0.0
252 1 59.3486856642 72.9424728558 0.0 0.0 0.0 0.0
253 1 67.5671856642 75.3778728558 0.0 0.0 0.0 0.0
254 1 70.5871856642 71.1990728558 0.0 0.0 0.0 0.0
255 1 78.6480856642 72.6859728558 0.0 0.0 0.0 0.0
256 1 0.93704566423 4.7376928558 0.0 0.0 0.0 0.0
257 1 3.83795566423 3.9607028558 0.0 0.0 0.0 0.0
258 1 10.4052856642 3.6805228558 0.0 0.0 0.0 0.0
259 1 15.4613856642 3.3080128558 0.0 0.0 0.0 0.0
260 1 20.4919856642 4.1904628558 0.0 0.0 0.0 0.0
261 1 26.1745856642 5.5018228558 0.0 0.0 0.0 0.0
262 1 31.1176856642 4.7285428558 0.0 0.0 0.0 0.0
263 1 34.0334856642 3.9918128558 0.0 0.0 0.0 0.0
264 1 41.3324856642 1.6860528558 0.0 0.0 0.0 0.0
265 1 46.3797856642 1.3969028558 0.0 0.0 0.0 0.0
266 1 51.2742856642 1.6707428558 0.0 0.0 0.0 0.0
267 1 54.2432856642 1.9726928558 0.0 0.0 0.0 0.0
268 1 61.9424856642 2.8098228558 0.0 0.0 0.0 0.0
269 1 67.5578856642 2.2344128558 0.0 0.0 0.0 0.0
270 1 73.1775856642 1.7724628558 0.0 0.0 0.0 0.0
271 1 1.90604566423 7.5717128558 0.0 0.0 0.0 0.0
272 1 9.36948566423 9.5388728558 0.0 0.0 0.0 0.0
273 1 13.3333856642 7.9869428558 0.0 0.0 0.0 0.0
274 1 18.7812856642 6.6489728558 0.0 0.0 0.0 0.0
275 1 23.3062856642 9.8695728558 0.0 0.0 0.0 0.0
276 1 30.3821856642 10.2914728558 0.0 0.0 0.0 0.0
277 1 34.7315856642 6.9059128558 0.0 0.0 0.0 0.0
278 1 40.3219856642 7.2083328558 0.0 0.0 0.0 0.0
279 1 44.4437856642 6.2051128558 0.0 0.0 0.0 0.0
280 1 48.8960856642 6.5034428558 0.0 0.0 0.0 0.0
281 1 54.1909856642 4.9427128558 0.0 0.0 0.0 0.0
282 1 58.4714856642 7.0489928558 0.0 0.0 0.0 0.0
283 1 66.1991856642 7.8259928558 0.0 0.0 0.0 0.0
284 1 70.5008856642 6.3413328558 0.0 0.0 0.0 0.0
285 1 75.5520856642 6.4443728558 0.0 0.0 0.0 0.0
286 1 77.6909856642 11.1859728558 0.0 0.0 0.0 0.0
287 1 4.42714566423 11.6839728558 0.0 0.0 0.0 0.0
288 1 10.6640856642 12.3081728558 0.0 0.0 0.0 0.0
289 1 15.8700856642 12.6584728558 0.0 0.0 0.0 0.0
290 1 20.7107856642 13.8168728558 0.0 0.0 0.0 0.0
291 1 26.3462856642 13.9745728558 0.0 0.0 0.0 0.0
292 1 32.4501856642 12.4600728558 0.0 0.0 0.0 0.0
293 1 35.4430856642 12.4345728558 0.0 0.0 0.0 0.0
294 1 40.8683856642 12.2227728558 0.0 0.0 0.0 0.0
295 1 47.4668856642 11.1072728558 0.0 0.0 0.0 0.0
296 1 52.8959856642 9.1332328558 0.0 0.0 0.0 0.0
297 1 57.2148856642 11.6764728558 0.0 0.0 0.0 0.0
298 1 62.3771856642 10.7927728558 0.0 0.0 0.0 0.0
299 1 67.5480856642 10.5166728558 0.0 0.0 0.0 0.0
300 1 72.6596856642 11.1882728558 0.0 0.0 0.0 0.0
301 1 1.84374566423 15.1318728558 0.0 0.0 0.0 0.0
302 1 9.16108566423 17.9268728558 0.0 0.0 0.0 0.0
303 1 13.3558856642 17.0131728558 0.0 0.0 0.0 0.0
304 1 18.9995856642 16.2728728558 0.0 0.0 0.0 0.0
305 1 23.9556856642 18.8224728558 0.0 0.0 0.0 0.0
306 1 31.4781856642 18.2252728558 0.0 0.0 0.0 0.0
307 1 35.5679856642 15.4138728558 0.0 0.0 0.0 0.0
308 1 40.7779856642 17.1871728558 0.0 0.0 0.0 0.0
309 1 45.2512856642 15.9960728558 0.0 0.0 0.0 0.0
310 1 49.5490856642 16.4155728558 0.0 0.0 0.0 0.0
311 1 52.5126856642 16.7436728558 0.0 0.0 0.0 0.0
312 1 60.4359856642 15.7045728558 0.0 0.0 0.0 0.0
313 1 65.2453856642 15.4464728558 0.0 0.0 0.0 0.0
314 1 70.6651856642 13.4934728558 0.0 0.0 0.0 0.0
315 1 76.6179856642 16.8099728558 0.0 0.0 0.0 0.0
316 1 78.1318856642 19.3960728558 0.0 0.0 0.0 0.0
317 1 4.30675566423 19.7533728558 0.0 0.0 0.0 0.0
318 1 10.2329856642 20.7866728558 0.0 0.0 0.0 0.0
319 1 15.9651856642 21.2947728558 0.0 0.0 0.0 0.0
320 1 21.6011856642 22.4046728558 0.0 0.0 0.0 0.0
321 1 29.5104856642 21.9755728558 0.0 0.0 0.0 0.0
322 1 33.4858856642 20.4660728558 0.0 0.0 0.0 0.0
323 1 38.5291856642 22.2504728558 0.0 0.0 0.0 0.0
324 1 41.5340856642 22.1817728558 0.0 0.0 0.0 0.0
325 1 47.6403856642 21.3222728558 0.0 0.0 0.0 0.0
326 1 52.9092856642 19.7001728558 0.0 0.0 0.0 0.0
327 1 58.2805856642 20.6014728558 0.0 0.0 0.0 0.0
328 1 63.6563856642 18.0529728558 0.0 0.0 0.0 0.0
329 1 68.0237856642 21.2796728558 0.0 0.0 0.0 0.0
330 1 72.8575856642 20.7117728558 0.0 0.0 0.0 0.0
331 1 2.78379566423 22.3675728558 0.0 0.0 0.0 0.0
332 1 8.83204566423 23.5328728558 0.0 0.0 0.0 0.0
333 1 13.5826856642 26.4492728558 0.0 0.0 0.0 0.0
334 1 18.1757856642 25.9232728558 0.0 0.0 0.0 0.0
335 1 25.8108856642 28.4235728558 0.0 0.0 0.0 0.0
336 1 28.0464856642 26.4422728558 0.0 0.0 0.0 0.0
337 1 34.3607856642 25.4375728558 0.0 0.0 0.0 0.0
338 1 40.2009856642 26.0453728558 0.0 0.0 0.0 0.0
339 1 45.8503856642 25.6982728558 0.0 0.0 0.0 0.0
340 1 51.2798856642 25.5160728558 0.0 0.0 0.0 0.0
341 1 56.6880856642 25.6198728558 0.0 0.0 0.0 0.0
342 1 61.5108856642 24.9463728558 0.0 0.0 0.0 0.0
343 1 66.3866856642 25.5157728558 0.0 0.0 0.0 0.0
344 1 71.5648856642 25.7227728558 0.0 0.0 0.0 0.0
345 1 76.6100856642 24.3949728558 0.0 0.0 0.0 0.0
346 1 1.21533566423 27.4084728558 0.0 0.0 0.0 0.0
347 1 6.64859566423 28.5103728558 0.0 0.0 0.0 0.0
348 1 11.5470856642 31.1082728558 0.0 0.0 0.0 0.0
349 1 16.5450856642 31.0558728558 0.0 0.0 0.0 0.0
350 1 21.2774856642 30.1865728558 0.0 0.0 0.0 0.0
351 1 27.4458856642 30.9153728558 0.0 0.0 0.0 0.0
352 1 32.2599856642 30.5904728558 0.0 0.0 0.0 0.0
353 1 37.2925856642 29.3374728558 0.0 0.0 0.0 0.0
354 1 43.1303856642 30.0731728558 0.0 0.0 0.0 0.0
355 1 48.6734856642 29.8196728558 0.0 0.0 0.0 0.0
356 1 54.0635856642 30.1847728558 0.0 0.0 0.0 0.0
357 1 57.0253856642 30.9720728558 0.0 0.0 0.0 0.0
358 1 63.6057856642 29.7471728558 0.0 0.0 0.0 0.0
359 1 68.9198856642 30.0880728558 0.0 0.0 0.0 0.0
360 1 74.7092856642 29.1243728558 0.0 0.0 0.0 0.0
361 1 5.00235566423 31.0540728558 0.0 0.0 0.0 0.0
362 1 8.76037566423 34.7397728558 0.0 0.0 0.0 0.0
363 1 14.3565856642 35.6913728558 0.0 0.0 0.0 0.0
364 1 17.3797856642 36.1114728558 0.0 0.0 0.0 0.0
365 1 24.0578856642 34.7496728558 0.0 0.0 0.0 0.0
366 1 29.5708856642 35.3856728558 0.0 0.0 0.0 0.0
367 1 35.0380856642 34.3710728558 0.0 0.0 0.0 0.0
368 1 39.8086856642 33.8359728558 0.0 0.0 0.0 0.0
369 1 45.4636856642 34.3352728558 0.0 0.0 0.0 0.0
370 1 50.7190856642 34.1972728558 0.0 0.0 0.0 0.0
371 1 55.9984856642 34.8461728558 0.0 0.0 0.0 0.0
372 1 61.6107856642 34.7055728558 0.0 0.0 0.0 0.0
373 1 66.9736856642 32.4316728558 0.0 0.0 0.0 0.0
374 1 75.4365856642 34.8798728558 0.0 0.0 0.0 0.0
375 1 78.8518856642 32.2961728558 0.0 0.0 0.0 0.0
376 1 1.17322566423 37.6852728558 0.0 0.0 0.0 0.0
377 1 5.71369566423 38.7356728558 0.0 0.0 0.0 0.0
378 1 10.8994856642 39.5608728558 0.0 0.0 0.0 0.0
379 1 16.1121856642 40.4639728558 0.0 0.0 0.0 0.0
380 1 19.1145856642 40.4862728558 0.0 0.0 0.0 0.0
381 1 25.5702856642 39.3017728558 0.0 0.0 0.0 0.0
382 1 32.8591856642 41.3694728558 0.0 0.0 0.0 0.0
383 1 35.5641856642 40.0779728558 0.0 0.0 0.0 0.0
384 1 43.7389856642 39.6711728558 0.0 0.0 0.0 0.0
385 1 48.5361856642 38.2608728558 0.0 0.0 0.0 0.0
386 1 54.3558856642 37.3688728558 0.0 0.0 0.0 0.0
387 1 58.9865856642 40.6821728558 0.0 0.0 0.0 0.0
388 1 61.9921856642 40.3308728558 0.0 0.0 0.0 0.0
389 1 68.7197856642 39.1406728558 0.0 0.0 0.0 0.0
390 1 73.5101856642 37.1943728558 0.0 0.0 0.0 0.0
391 1 2.13256566423 42.7135728558 0.0 0.0 0.0 0.0
392 1 7.29809566423 43.4638728558 0.0 0.0 0.0 0.0
393 1 12.4898856642 44.2816728558 0.0 0.0 0.0 0.0
394 1 17.9163856642 44.8866728558 0.0 0.0 0.0 0.0
395 1 23.1718856642 44.3590728558 0.0 0.0 0.0 0.0
396 1 28.2469856642 43.3528728558 0.0 0.0 0.0 0.0
397 1 34.2154856642 44.0527728558 0.0 0.0 0.0 0.0
398 1 39.8351856642 43.2822728558 0.0 0.0 0.0 0.0
399 1 45.3965856642 42.1831728558 0.0 0.0 0.0 0.0
400 1 50.9633856642 42.5240728558 0.0 0.0 0.0 0.0
401 1 55.4478856642 44.4632728558 0.0 0.0 0.0 0.0
402 1 62.2012856642 46.0892728558 0.0 0.0 0.0 0.0
403 1 68.3869856642 45.4295728558 0.0 0.0 0.0 0.0
404 1 70.9502856642 43.9135728558 0.0 0.0 0.0 0.0
405 1 76.4581856642 42.0454728558 0.0 0.0 0.0 0.0
406 1 78.6871856642 47.2915728558 0.0 0.0 0.0 0.0
407 1 4.28857566423 47.8922728558 0.0 0.0 0.0 0.0
408 1 9.10884566423 48.4544728558 0.0 0.0 0.0 0.0
409 1 14.3047856642 48.8511728558 0.0 0.0 0.0 0.0
410 1 21.3017856642 49.8392728558 0.0 0.0 0.0 0.0
411 1 27.7256856642 48.8312728558 0.0 0.0 0.0 0.0
412 1 31.8390856642 47.6973728558 0.0 0.0 0.0 0.0
413 1 37.5001856642 48.2619728558 0.0 0.0 0.0 0.0
414 1 42.6501856642 47.1965728558 0.0 0.0 0.0 0.0
415 1 47.5061856642 46.5551728558 0.0 0.0 0.0 0.0
416 1 52.2214856642 47.7289728558 0.0 0.0 0.0 0.0
417 1 57.7438856642 49.0278728558 0.0 0.0 0.0 0.0
418 1 64.5549856642 47.9559728558 0.0 0.0 0.0 0.0
419 1 69.4543856642 48.2240728558 0.0 0.0 0.0 0.0
420 1 74.8661856642 47.5729728558 0.0 0.0 0.0 0.0
421 1 0.66941066423 53.0841728558 0.0 0.0 0.0 0.0
422 1 7.68908566423 51.0877728558 0.0 0.0 0.0 0.0
423 1 11.7611856642 53.1331728558 0.0 0.0 0.0 0.0
424 1 17.1445856642 53.1587728558 0.0 0.0 0.0 0.0
425 1 23.1459856642 52.2060728558 0.0 0.0 0.0 0.0
426 1 28.8295856642 51.6217728558 0.0 0.0 0.0 0.0
427 1 33.5446856642 52.9952728558 0.0 0.0 0.0 0.0
428 1 40.8577856642 52.5274728558 0.0 0.0 0.0 0.0
429 1 45.5122856642 51.4077728558 0.0 0.0 0.0 0.0
430 1 50.7199856642 50.3069728558 0.0 0.0 0.0 0.0
431 1 55.3421856642 52.4947728558 0.0 0.0 0.0 0.0
432 1 60.9991856642 53.4941728558 0.0 0.0 0.0 0.0
433 1 64.0330856642 53.5165728558 0.0 0.0 0.0 0.0
434 1 71.0079856642 52.8690728558 0.0 0.0 0.0 0.0
435 1 74.0216856642 53.1915728558 0.0 0.0 0.0 0.0
436 1 77.4151856642 58.1064728558 0.0 0.0 0.0 0.0
437 1 3.58852566423 56.6865728558 0.0 0.0 0.0 0.0
438 1 9.27857566423 56.7955728558 0.0 0.0 0.0 0.0
439 1 14.9334856642 57.1842728558 0.0 0.0 0.0 0.0
440 1 21.8556856642 58.1187728558 0.0 0.0 0.0 0.0
441 1 25.6238856642 56.1983728558 0.0 0.0 0.0 0.0
442 1 29.9576856642 56.9059728558 0.0 0.0 0.0 0.0
443 1 35.6633856642 56.5808728558 0.0 0.0 0.0 0.0
444 1 41.9431856642 55.3386728558 0.0 0.0 0.0 0.0
445 1 48.6171856642 57.6444728558 0.0 0.0 0.0 0.0
446 1 52.8173856642 56.9326728558 0.0 0.0 0.0 0.0
447 1 57.8180856642 57.1752728558 0.0 0.0 0.0 0.0
448 1 64.2212856642 59.2666728558 0.0 0.0 0.0 0.0
449 1 67.9977856642 57.3345728558 0.0 0.0 0.0 0.0
450 1 72.8575856642 57.7957728558 0.0 0.0 0.0 0.0
451 1 2.12516566423 61.2729728558 0.0 0.0 0.0 0.0
452 1 6.95870566423 61.4963728558 0.0 0.0 0.0 0.0
453 1 11.9032856642 61.4650728558 0.0 0.0 0.0 0.0
454 1 17.3051856642 61.3693728558 0.0 0.0 0.0 0.0
455 1 23.2985856642 60.7820728558 0.0 0.0 0.0 0.0
456 1 28.7821856642 59.6639728558 0.0 0.0 0.0 0.0
457 1 32.9982856642 61.4470728558 0.0 0.0 0.0 0.0
458 1 40.2444856642 62.4431728558 0.0 0.0 0.0 0.0
459 1 42.9820856642 61.2283728558 0.0 0.0 0.0 0.0
460 1 48.9998856642 60.6505728558 0.0 0.0 0.0 0.0
461 1 54.2754856642 61.4127728558 0.0 0.0 0.0 0.0
462 1 59.3014856642 61.7765728558 0.0 0.0 0.0 0.0
463 1 65.0315856642 62.1760728558 0.0 0.0 0.0 0.0
464 1 68.0119856642 62.4702728558 0.0 0.0 0.0 0.0
465 1 76.8966856642 63.8654728558 0.0 0.0 0.0 0.0
466 1 1.90646566423 66.7429728558 0.0 0.0 0.0 0.0
467 1 5.77220566423 65.6511728558 0.0 0.0 0.0 0.0
468 1 10.7480856642 66.1082728558 0.0 0.0 0.0 0.0
469 1 16.0992856642 64.1217728558 0.0 0.0 0.0 0.0
470 1 20.8843856642 65.8387728558 0.0 0.0 0.0 0.0
471 1 25.6406856642 65.5139728558 0.0 0.0 0.0 0.0
472 1 30.9209856642 66.9004728558 0.0 0.0 0.0 0.0
473 1 33.8899856642 66.4086728558 0.0 0.0 0.0 0.0
474 1 41.4311856642 65.1760728558 0.0 0.0 0.0 0.0
475 1 48.7443856642 66.6394728558 0.0 0.0 0.0 0.0
476 1 52.2923856642 63.6390728558 0.0 0.0 0.0 0.0
477 1 57.5377856642 64.2250728558 0.0 0.0 0.0 0.0
478 1 61.9308856642 66.8850728558 0.0 0.0 0.0 0.0
479 1 66.9949856642 66.6035728558 0.0 0.0 0.0 0.0
480 1 72.3763856642 66.0521728558 0.0 0.0 0.0 0.0
481 1 4.44565566423 68.3318728558 0.0 0.0 0.0 0.0
482 1 8.93842566423 70.7879728558 0.0 0.0 0.0 0.0
483 1 14.1477856642 70.4789728558 0.0 0.0 0.0 0.0
484 1 19.5599856642 70.8869728558 0.0 0.0 0.0 0.0
485 1 24.6702856642 68.3718728558 0.0 0.0 0.0 0.0
486 1 28.9835856642 71.7801728558 0.0 0.0 0.0 0.0
487 1 34.1024856642 70.9140728558 0.0 0.0 0.0 0.0
488 1 38.7375856642 69.6892728558 0.0 0.0 0.0 0.0
489 1 44.1419856642 69.1725728558 0.0 0.0 0.0 0.0
490 1 50.5684856642 69.0796728558 0.0 0.0 0.0 0.0
491 1 56.4120856642 68.5128728558 0.0 0.0 0.0 0.0
492 1 62.2997856642 72.6489728558 0.0 0.0 0.0 0.0
493 1 65.6596856642 70.8341728558 0.0 0.0 0.0 0.0
494 1 72.7162856642 69.0677728558 0.0 0.0 0.0 0.0
495 1 77.7468856642 69.7873728558 0.0 0.0 0.0 0.0
496 1 1.65441566423 74.9361728558 0.0 0.0 0.0 0.0
497 1 6.80167566423 75.2518728558 0.0 0.0 0.0 0.0
498 1 12.0661856642 75.1507728558 0.0 0.0 0.0 0.0
499 1 17.0896856642 75.2049728558 0.0 0.0 0.0 0.0
500 1 23.6873856642 77.8546728558 0.0 0.0 0.0 0.0
501 1 22.6847856642 75.0121728558 0.0 0.0 0.0 0.0
502 1 30.9294856642 76.4590728558 0.0 0.0 0.0 0.0
503 1 33.8623856642 75.6801728558 0.0 0.0 0.0 0.0
504 1 41.6064856642 73.7115728558 0.0 0.0 0.0 0.0
505 1 47.0358856642 73.3793728558 0.0 0.0 0.0 0.0
506 1 51.8505856642 74.2308728558 0.0 0.0 0.0 0.0
507 1 57.3513856642 75.1363728558 0.0 0.0 0.0 0.0
508 1 65.0587856642 73.7571728558 0.0 0.0 0.0 0.0
509 1 70.3555856642 74.2225728558 0.0 0.0 0.0 0.0
510 1 75.8852856642 73.8865728558 0.0 0.0 0.0 0.0
511 1 6.27266566423 78.2005728558 0.0 0.0 0.0 0.0
512 1 11.4419856642 78.0998728558 0.0 0.0 0.0 0.0
513 1 16.3167856642 78.1483728558 0.0 0.0 0.0 0.0
514 1 21.5534856642 79.9522728558 0.0 0.0 0.0 0.0
515 1 25.8400856642 79.9651728558 0.0 0.0 0.0 0.0
516 1 30.9099856642 79.4802728558 0.0 0.0 0.0 0.0
517 1 35.8553856642 77.9259728558 0.0 0.0 0.0 0.0
518 1 41.3893856642 76.7239728558 0.0 0.0 0.0 0.0
519 1 46.8670856642 76.4026728558 0.0 0.0 0.0 0.0
520 1 52.5124856642 77.1934728558 0.0 0.0 0.0 0.0
521 1 58.2681856642 77.9466728558 0.0 0.0 0.0 0.0
522 1 66.8827856642 78.2945728558 0.0 0.0 0.0 0.0
523 1 72.0214856642 76.7447728558 0.0 0.0 0.0 0.0
524 1 75.0566856642 76.8026728558 0.0 0.0 0.0 0.0
525 1 1.01306566423 77.9319728558 0.0 0.0 0.0 0.0
526 1 3.59153566423 79.5705728558 0.0 0.0 0.0 0.0
527 1 8.88353566423 79.6941728558 0.0 0.0 0.0 0.0
528 1 13.8369856642 79.9067728558 0.0 0.0 0.0 0.0
529 1 18.5666856642 80.1408728558 0.0 0.0 0.0 0.0
530 1 23.6850856642 1.1075928558 0.0 0.0 0.0 0.0
531 1 28.5238856642 0.398632855796 0.0 0.0 0.0 0.0
532 1 33.8483856642 80.1642728558 0.0 0.0 0.0 0.0
533 1 38.8409856642 78.3816728558 0.0 0.0 0.0 0.0
534 1 44.1919856642 77.8585728558 0.0 0.0 0.0 0.0
535 1 49.5449856642 77.8291728558 0.0 0.0 0.0 0.0
536 1 55.2879856642 78.5541728558 0.0 0.0 0.0 0.0
537 1 61.0487856642 79.1394728558 0.0 0.0 0.0 0.0
538 1 64.0702856642 79.4309728558 0.0 0.0 0.0 0.0
539 1 69.8518856642 78.8621728558 0.0 0.0 0.0 0.0
540 1 77.1649856642 79.0080728558 0.0 0.0 0.0 0.0
541 2 4.45576566423 2.6000928558 0.0 0.0 0.0 0.0
542 2 4.25804566423 0.00674485579624 0.0 0.0 0.0 0.0
543 2 6.62519566423 1.5051828558 0.0 0.0 0.0 0.0
544 2 8.62819566423 0.234017855796 0.0 0.0 0.0 0.0
545 2 9.18365566423 2.7614428558 0.0 0.0 0.0 0.0
546 2 13.3220856642 0.394062855796 0.0 0.0 0.0 0.0
547 2 14.1466856642 2.5980928558 0.0 0.0 0.0 0.0
548 2 11.6201856642 2.7495728558 0.0 0.0 0.0 0.0
549 2 19.4391856642 3.1065228558 0.0 0.0 0.0 0.0
550 2 18.3665856642 0.688142855796 0.0 0.0 0.0 0.0
551 2 16.8385856642 2.7027128558 0.0 0.0 0.0 0.0
552 2 23.6506856642 2.5983928558 0.0 0.0 0.0 0.0
553 2 24.7957856642 4.8648028558 0.0 0.0 0.0 0.0
554 2 21.9961856642 4.2385628558 0.0 0.0 0.0 0.0
555 2 28.4485856642 1.9151328558 0.0 0.0 0.0 0.0
556 2 27.2869856642 4.4695228558 0.0 0.0 0.0 0.0
557 2 29.7726856642 4.0655028558 0.0 0.0 0.0 0.0
558 2 34.7319856642 0.436122855796 0.0 0.0 0.0 0.0
559 2 34.9582856642 2.8088428558 0.0 0.0 0.0 0.0
560 2 37.2070856642 1.0786328558 0.0 0.0 0.0 0.0
561 2 38.7684856642 79.8927728558 0.0 0.0 0.0 0.0
562 2 39.9337856642 1.1306128558 0.0 0.0 0.0 0.0
563 2 43.9917856642 79.3608728558 0.0 0.0 0.0 0.0
564 2 45.0624856642 0.685172855796 0.0 0.0 0.0 0.0
565 2 42.5261856642 0.761862855796 0.0 0.0 0.0 0.0
566 2 49.2115856642 79.2981728558 0.0 0.0 0.0 0.0
567 2 50.1353856642 0.714782855796 0.0 0.0 0.0 0.0
568 2 47.6307856642 0.565472855796 0.0 0.0 0.0 0.0
569 2 55.5145856642 1.2121628558 0.0 0.0 0.0 0.0
570 2 55.8662856642 79.9590728558 0.0 0.0 0.0 0.0
571 2 58.1527856642 0.632332855796 0.0 0.0 0.0 0.0
572 2 60.3951856642 80.4960728558 0.0 0.0 0.0 0.0
573 2 60.7230856642 1.9164528558 0.0 0.0 0.0 0.0
574 2 63.3328856642 2.2198928558 0.0 0.0 0.0 0.0
575 2 66.1014856642 1.8162328558 0.0 0.0 0.0 0.0
576 2 64.3534856642 80.9110728558 0.0 0.0 0.0 0.0
577 2 70.1228856642 80.3394728558 0.0 0.0 0.0 0.0
578 2 71.7377856642 1.3024628558 0.0 0.0 0.0 0.0
579 2 68.9196856642 1.5739828558 0.0 0.0 0.0 0.0
580 2 76.6765856642 80.4668728558 0.0 0.0 0.0 0.0
581 2 76.6702856642 2.3578628558 0.0 0.0 0.0 0.0
582 2 74.5884856642 1.2229728558 0.0 0.0 0.0 0.0
583 2 78.5723856642 4.1815228558 0.0 0.0 0.0 0.0
584 2 76.4040856642 5.1758728558 0.0 0.0 0.0 0.0
585 2 4.54786566423 5.3052328558 0.0 0.0 0.0 0.0
586 2 5.70357566423 8.0085228558 0.0 0.0 0.0 0.0
587 2 3.37436566423 7.2649128558 0.0 0.0 0.0 0.0
588 2 9.90288566423 8.1061228558 0.0 0.0 0.0 0.0
589 2 12.0078856642 7.2845228558 0.0 0.0 0.0 0.0
590 2 10.4234856642 5.2153228558 0.0 0.0 0.0 0.0
591 2 15.5649856642 4.8042228558 0.0 0.0 0.0 0.0
592 2 17.2832856642 6.5589328558 0.0 0.0 0.0 0.0
593 2 14.6028856642 7.1804328558 0.0 0.0 0.0 0.0
594 2 19.5999856642 7.9004428558 0.0 0.0 0.0 0.0
595 2 21.8701856642 9.4180728558 0.0 0.0 0.0 0.0
596 2 19.4619856642 10.3429728558 0.0 0.0 0.0 0.0
597 2 26.1744856642 7.0227528558 0.0 0.0 0.0 0.0
598 2 26.7860856642 9.8174728558 0.0 0.0 0.0 0.0
599 2 24.5836856642 9.0872328558 0.0 0.0 0.0 0.0
600 2 31.3040856642 6.2315628558 0.0 0.0 0.0 0.0