# input file

1350 atoms
2 atom types

0.0 78.4560910537 xlo xhi
0.0 81.4368137148 ylo yhi
-10.0 10.0 zlo zhi
0.0 0.0 0.0 xy xz yz

Masses

1 28.0855 #Si
2 15.9994 #O

Atoms

1 1 3.85942330372 1.3062568574 0.0
2 1 8.81356330372 2.0095668574 0.0
3 1 15.1606833037 1.3550568574 0.0
4 1 18.1470833037 1.9025568574 0.0
5 1 25.9630833037 1.2481068574 0.0
6 1 28.9428833037 0.787626857397 0.0
7 1 33.7693833037 1.6155268574 0.0
8 1 40.0981833037 0.487349857397 0.0
9 1 45.4651833037 0.892536857397 0.0
10 1 50.5936833037 1.6657168574 0.0
11 1 56.2047833037 1.4496368574 0.0
12 1 60.4816833037 4.1372468574 0.0
13 1 65.9659833037 2.1850768574 0.0
14 1 71.3346833037 1.9432468574 0.0
15 1 76.6821833037 1.1484268574 0.0
16 1 0.869963303723 5.3188868574 0.0
17 1 5.86769330372 6.2942668574 0.0
18 1 10.5540833037 7.2621968574 0.0
19 1 14.7154833037 6.8956768574 0.0
20 1 19.9817833037 6.2107468574 0.0
21 1 25.2762833037 6.0695368574 0.0
22 1 31.3464833037 5.8731468574 0.0
23 1 35.7822833037 3.8338668574 0.0
24 1 42.1309833037 7.5053568574 0.0
25 1 47.7290833037 5.8244568574 0.0
26 1 53.4601833037 5.7523768574 0.0
27 1 58.9766833037 6.8174268574 0.0
28 1 63.6087833037 7.1328868574 0.0
29 1 68.8628833037 6.4128668574 0.0
30 1 74.2642833037 5.8885068574 0.0
31 1 2.59514330372 10.3224068574 0.0
32 1 7.65822330372 11.5411068574 0.0
33 1 12.8107833037 12.2556068574 0.0
34 1 18.0109833037 10.8669068574 0.0
35 1 23.4890833037 10.3779068574 0.0
36 1 27.0777833037 8.4961868574 0.0
37 1 34.3115833037 9.4201568574 0.0
38 1 39.9112833037 9.5682068574 0.0
39 1 45.8494833037 10.3488068574 0.0
40 1 51.0913833037 9.7613068574 0.0
41 1 54.3683833037 12.8830068574 0.0
42 1 61.3841833037 12.0047068574 0.0
43 1 67.9666833037 10.7718068574 0.0
44 1 70.9500833037 10.3400068574 0.0
45 1 78.0649833037 9.9847068574 0.0
46 1 77.3721833037 15.1108068574 0.0
47 1 4.70676330372 15.4149068574 0.0
48 1 9.89628330372 16.4128068574 0.0
49 1 14.8079833037 14.5219068574 0.0
50 1 20.6020833037 14.7046068574 0.0
51 1 26.1433833037 14.4197068574 0.0
52 1 31.2652833037 14.0186068574 0.0
53 1 36.2920833037 13.4784068574 0.0
54 1 40.7717833037 12.4433068574 0.0
55 1 47.4556833037 14.3049068574 0.0
56 1 52.6531833037 15.3467068574 0.0
57 1 56.5814833037 14.9014068574 0.0
58 1 63.0472833037 16.7426068574 0.0
59 1 69.1894833037 15.4203068574 0.0
60 1 72.1875833037 15.1137068574 0.0
61 1 1.85802330372 19.0743068574 0.0
62 1 7.11901330372 20.3647068574 0.0
63 1 12.5775833037 21.4267068574 0.0
64 1 17.2737833037 19.4905068574 0.0
65 1 22.7555833037 18.6846068574 0.0
66 1 29.2150833037 18.7909068574 0.0
67 1 34.3639833037 18.3611068574 0.0
68 1 39.3788833037 17.8185068574 0.0
69 1 43.4276833037 20.2236068574 0.0
70 1 48.7899833037 19.0123068574 0.0
71 1 54.2428833037 20.3329068574 0.0
72 1 59.6655833037 20.4015068574 0.0
73 1 63.8167833037 19.6384068574 0.0
74 1 70.5067833037 20.9715068574 0.0
75 1 75.1277833037 19.6260068574 0.0
76 1 78.3937833037 23.7463068574 0.0
77 1 4.17245330372 23.9349068574 0.0
78 1 8.34985330372 23.1236068574 0.0
79 1 16.0354833037 24.8833068574 0.0
80 1 21.8673833037 22.7677068574 0.0
81 1 28.8730833037 23.8275068574 0.0
82 1 31.7961833037 23.1357068574 0.0
83 1 36.3154833037 22.7314068574 0.0
84 1 41.7273833037 22.6869068574 0.0
85 1 47.0248833037 23.7116068574 0.0
86 1 51.2870833037 26.0573068574 0.0
87 1 55.0765833037 23.2397068574 0.0
88 1 62.0635833037 25.1428068574 0.0
89 1 67.9824833037 25.8775068574 0.0
90 1 73.5797833037 24.9819068574 0.0
91 1 2.43811330372 28.8887068574 0.0
92 1 7.61111330372 30.3309068574 0.0
93 1 11.7951833037 27.0403068574 0.0
94 1 18.4946833037 26.5617068574 0.0
95 1 25.2413833037 28.2736068574 0.0
96 1 28.8781833037 29.3739068574 0.0
97 1 34.0740833037 27.9888068574 0.0
98 1 40.2594833037 26.7208068574 0.0
99 1 42.9377833037 25.4187068574 0.0
100 1 49.5592833037 28.4922068574 0.0
101 1 54.1747833037 29.1817068574 0.0
102 1 58.7077833037 28.7319068574 0.0
103 1 63.0163833037 28.0024068574 0.0
104 1 70.2172833037 27.8606068574 0.0
105 1 76.0351833037 28.9107068574 0.0
106 1 78.3058833037 33.6848068574 0.0
107 1 8.10162330372 33.2779068574 0.0
108 1 11.0768833037 32.7252068574 0.0
109 1 18.6854833037 31.9128068574 0.0
110 1 21.6965833037 31.5770068574 0.0
111 1 24.8894833037 36.1974068574 0.0
112 1 31.0174833037 32.9944068574 0.0
113 1 36.6420833037 32.3714068574 0.0
114 1 41.6088833037 32.0923068574 0.0
115 1 46.4826833037 32.2762068574 0.0
116 1 50.5650833037 35.5947068574 0.0
117 1 57.5131833037 33.7721068574 0.0
118 1 61.8665833037 36.0277068574 0.0
119 1 67.6901833037 34.9468068574 0.0
120 1 72.4359833037 33.9387068574 0.0
121 1 2.01539330372 37.9684068574 0.0
122 1 7.30016330372 37.5334068574 0.0
123 1 12.9664833037 37.1169068574 0.0
124 1 17.6746833037 37.0935068574 0.0
125 1 23.1060833037 38.6264068574 0.0
126 1 27.4408833037 37.8360068574 0.0
127 1 34.5986833037 36.5176068574 0.0
128 1 39.8011833037 36.8427068574 0.0
129 1 44.0942833037 37.0354068574 0.0
130 1 49.1101833037 38.2039068574 0.0
131 1 53.1943833037 37.0206068574 0.0
132 1 60.2444833037 38.5981068574 0.0
133 1 65.1940833037 39.0528068574 0.0
134 1 70.6402833037 39.1338068574 0.0
135 1 75.2812833037 37.6154068574 0.0
136 1 77.9840833037 42.2625068574 0.0
137 1 3.39213330372 40.6342068574 0.0
138 1 10.4112833037 41.2906068574 0.0
139 1 15.1865833037 41.9871068574 0.0
140 1 19.9867833037 41.8694068574 0.0
141 1 24.2917833037 41.4104068574 0.0
142 1 33.2132833037 40.3730068574 0.0
143 1 36.1604833037 40.9322068574 0.0
144 1 40.9785833037 41.9695068574 0.0
145 1 46.1943833037 42.1473068574 0.0
146 1 51.7063833037 42.6382068574 0.0
147 1 56.5921833037 42.2036068574 0.0
148 1 60.8040833037 41.5563068574 0.0
149 1 67.9703833037 43.2800068574 0.0
150 1 73.0612833037 42.9906068574 0.0
151 1 3.06731330372 46.3340068574 0.0
152 1 8.07990330372 45.9354068574 0.0
153 1 12.7806833037 48.5045068574 0.0
154 1 18.3612833037 46.6409068574 0.0
155 1 23.2727833037 49.0272068574 0.0
156 1 30.0362833037 46.3876068574 0.0
157 1 32.9774833037 45.6181068574 0.0
158 1 37.8182833037 47.6724068574 0.0
159 1 43.5831833037 46.6099068574 0.0
160 1 49.0509833037 46.5994068574 0.0
161 1 54.4082833037 47.2012068574 0.0
162 1 59.3599833037 46.9907068574 0.0
163 1 64.7588833037 47.2817068574 0.0
164 1 70.1452833037 47.6632068574 0.0
165 1 75.9663833037 47.2393068574 0.0
166 1 0.904713303723 50.8284068574 0.0
167 1 5.85728330372 50.8300068574 0.0
168 1 10.9889833037 50.9564068574 0.0
169 1 16.3007833037 51.2843068574 0.0
170 1 21.3681833037 51.3938068574 0.0
171 1 26.0881833037 52.7907068574 0.0
172 1 31.4139833037 51.5777068574 0.0
173 1 36.9985833037 50.5629068574 0.0
174 1 42.4702833037 52.4261068574 0.0
175 1 47.6197833037 50.6259068574 0.0
176 1 52.2223833037 53.6684068574 0.0
177 1 57.6582833037 51.8027068574 0.0
178 1 62.8413833037 51.3593068574 0.0
179 1 68.0769833037 53.5294068574 0.0
180 1 73.3706833037 51.2023068574 0.0
181 1 3.03699330372 55.5796068574 0.0
182 1 7.71250330372 55.5035068574 0.0
183 1 13.0345833037 55.4425068574 0.0
184 1 18.0535833037 55.9286068574 0.0
185 1 22.7346833037 56.6739068574 0.0
186 1 27.7076833037 55.3224068574 0.0
187 1 35.4962833037 55.0130068574 0.0
188 1 42.1633833037 55.3872068574 0.0
189 1 45.1393833037 55.6667068574 0.0
190 1 51.0167833037 56.4479068574 0.0
191 1 56.1530833037 56.5286068574 0.0
192 1 61.2288833037 56.0911068574 0.0
193 1 67.0246833037 56.3518068574 0.0
194 1 73.3431833037 55.1709068574 0.0
195 1 76.1756833037 54.2471068574 0.0
196 1 77.6040833037 58.8817068574 0.0
197 1 3.42092330372 58.5972068574 0.0
198 1 10.4781833037 59.8367068574 0.0
199 1 14.5233833037 62.4770068574 0.0
200 1 19.8782833037 61.1425068574 0.0
201 1 25.2853833037 60.5009068574 0.0
202 1 33.6486833037 59.4079068574 0.0
203 1 36.5876833037 60.1089068574 0.0
204 1 42.9129833037 59.7284068574 0.0
205 1 45.7320833037 58.5978068574 0.0
206 1 53.0123833037 61.0008068574 0.0
207 1 58.5668833037 60.9757068574 0.0
208 1 64.1405833037 60.2024068574 0.0
209 1 68.8177833037 60.8743068574 0.0
210 1 72.3057833037 59.3178068574 0.0
211 1 1.49889330372 66.3250068574 0.0
212 1 6.69815330372 63.9234068574 0.0
213 1 12.1444833037 64.3292068574 0.0
214 1 17.0840833037 66.0004068574 0.0
215 1 22.8068833037 65.1557068574 0.0
216 1 28.4346833037 64.2593068574 0.0
217 1 33.1843833037 66.5258068574 0.0
218 1 38.2703833037 65.3130068574 0.0
219 1 43.0855833037 65.1795068574 0.0
220 1 49.6391833037 64.1679068574 0.0
221 1 54.4869833037 63.6179068574 0.0
222 1 61.2243833037 64.5712068574 0.0
223 1 68.0625833037 64.7716068574 0.0
224 1 70.8949833037 65.7475068574 0.0
225 1 75.5779833037 64.4061068574 0.0
226 1 78.4221833037 68.9709068574 0.0
227 1 5.04522330372 69.0901068574 0.0
228 1 9.14346330372 68.4399068574 0.0
229 1 13.6414833037 71.3065068574 0.0
230 1 18.4753833037 68.6652068574 0.0
231 1 26.1205833037 68.5750068574 0.0
232 1 31.5599833037 69.0395068574 0.0
233 1 36.2415833037 70.3407068574 0.0
234 1 41.5419833037 69.9306068574 0.0
235 1 45.2871833037 67.2539068574 0.0
236 1 51.8799833037 71.1334068574 0.0
237 1 59.9173833037 69.4211068574 0.0
238 1 62.8700833037 69.0626068574 0.0
239 1 67.8278833037 72.1148068574 0.0
240 1 73.1415833037 69.8323068574 0.0
241 1 2.53508330372 73.6389068574 0.0
242 1 7.80035330372 73.9839068574 0.0
243 1 12.9929833037 74.2273068574 0.0
244 1 17.9695833037 76.2384068574 0.0
245 1 24.8203833037 72.6366068574 0.0
246 1 27.8229833037 72.8546068574 0.0
247 1 33.0418833037 74.3379068574 0.0
248 1 37.5197833037 73.0558068574 0.0
249 1 45.1253833037 73.1453068574 0.0
250 1 50.1168833037 73.5898068574 0.0
251 1 54.4263833037 74.9156068574 0.0
252 1 57.6510833037 72.8531068574 0.0
253 1 65.6475833037 74.2053068574 0.0
254 1 70.5593833037 74.8921068574 0.0
255 1 75.6447833037 73.8569068574 0.0
256 1 1.01171330372 2.3110968574 0.0
257 1 6.10282330372 3.3024168574 0.0
258 1 10.8118833037 4.2604768574 0.0
259 1 13.7974833037 4.0315068574 0.0
260 1 20.8172833037 3.3343468574 0.0
261 1 23.8629833037 3.4061568574 0.0
262 1 31.0528833037 2.8999468574 0.0
263 1 38.6839833037 3.1229868574 0.0
264 1 42.6830833037 2.0079368574 0.0
265 1 47.8034833037 2.8129568574 0.0
266 1 53.4502833037 2.7391268574 0.0
267 1 59.2612833037 1.3499168574 0.0
268 1 63.5338833037 4.0926568574 0.0
269 1 68.7081833037 3.4267868574 0.0
270 1 74.2034833037 2.8780768574 0.0
271 1 3.07439330372 7.3564368574 0.0
272 1 7.85302330372 8.5418368574 0.0
273 1 12.8265833037 9.2314768574 0.0
274 1 17.5208833037 7.9140568574 0.0
275 1 22.6663833037 7.5153668574 0.0
276 1 30.0621833037 8.5782768574 0.0
277 1 34.2860833037 6.4246068574 0.0
278 1 41.2589833037 4.6396368574 0.0
279 1 45.1578833037 7.4321768574 0.0
280 1 50.6070833037 6.7936768574 0.0
281 1 55.9681833037 7.4686668574 0.0
282 1 61.1641833037 8.9430268574 0.0
283 1 66.4349833037 8.1865868574 0.0
284 1 71.6850833037 7.4356868574 0.0
285 1 76.9743833037 7.1814768574 0.0
286 1 76.2202833037 12.3406068574 0.0
287 1 4.78031330372 12.4065068574 0.0
288 1 10.0308833037 13.4033068574 0.0
289 1 17.7229833037 13.8518068574 0.0
290 1 20.8554833037 11.7347068574 0.0
291 1 26.2839833037 11.4064068574 0.0
292 1 31.7762833037 11.0430068574 0.0
293 1 37.0706833037 10.5666068574 0.0
294 1 43.7582833037 12.5085068574 0.0
295 1 48.6151833037 11.5119068574 0.0
296 1 54.1198833037 9.8838068574 0.0
297 1 59.5375833037 14.4250068574 0.0
298 1 63.8127833037 13.8216068574 0.0
299 1 66.8204833037 13.5477068574 0.0
300 1 73.2187833037 12.3019068574 0.0
301 1 1.77076330372 16.0847068574 0.0
302 1 7.04058330372 17.3505068574 0.0
303 1 12.1170833037 18.4584068574 0.0
304 1 14.9790833037 17.5233068574 0.0
305 1 23.4257833037 15.7606068574 0.0
306 1 28.8252833037 15.7967068574 0.0
307 1 33.9516833037 15.3730068574 0.0
308 1 38.9528833037 14.8408068574 0.0
309 1 44.6272833037 15.3730068574 0.0
310 1 49.7730833037 16.1864068574 0.0
311 1 54.8719833037 17.3773068574 0.0
312 1 60.1226833037 17.3953068574 0.0
313 1 66.7017833037 20.3399068574 0.0
314 1 68.9746833037 18.4078068574 0.0
315 1 74.7786833037 16.6474068574 0.0
316 1 77.8781833037 20.7986068574 0.0
317 1 4.18635330372 20.9493068574 0.0
318 1 11.1813833037 24.0865068574 0.0
319 1 15.5309833037 21.9298068574 0.0
320 1 20.1963833037 20.2537068574 0.0
321 1 24.4091833037 21.1772068574 0.0
322 1 31.9181833037 20.1212068574 0.0
323 1 37.0302833037 19.7693068574 0.0
324 1 42.3868833037 17.4219068574 0.0
325 1 46.3649833037 20.7848068574 0.0
326 1 51.2696833037 20.6816068574 0.0
327 1 58.0467833037 22.9373068574 0.0
328 1 62.1391833037 22.1220068574 0.0
329 1 68.2216833037 22.8989068574 0.0
330 1 73.3020833037 21.9990068574 0.0
331 1 1.96760330372 25.9321068574 0.0
332 1 6.64616330372 25.5937068574 0.0
333 1 14.7369833037 27.5850068574 0.0
334 1 21.3588833037 25.7373068574 0.0
335 1 27.4097833037 21.2010068574 0.0
336 1 27.7187833037 26.6054068574 0.0
337 1 34.2121833037 24.9339068574 0.0
338 1 39.0318833037 23.9914068574 0.0
339 1 45.7412833037 26.4276068574 0.0
340 1 49.9925833037 23.3800068574 0.0
341 1 54.2716833037 26.1616068574 0.0
342 1 59.1281833037 25.7460068574 0.0
343 1 66.0002833037 28.1178068574 0.0
344 1 73.1930833037 27.9526068574 0.0
345 1 76.3942833037 25.9423068574 0.0
346 1 0.0143423037232 30.6785068574 0.0
347 1 5.39462330372 28.3324068574 0.0
348 1 10.5431833037 29.7674068574 0.0
349 1 17.2175833037 29.2761068574 0.0
350 1 22.2762833037 28.6049068574 0.0
351 1 26.3788833037 31.0499068574 0.0
352 1 31.7960833037 30.0438068574 0.0
353 1 36.7644833037 29.3867068574 0.0
354 1 39.7791833037 29.6705068574 0.0
355 1 46.6692833037 29.2763068574 0.0
356 1 51.5709833037 30.6956068574 0.0
357 1 56.6261833037 30.8957068574 0.0
358 1 61.2016833037 30.4035068574 0.0
359 1 69.6843833037 32.6966068574 0.0
360 1 68.2369833037 30.0880068574 0.0
361 1 2.59158330372 35.0165068574 0.0
362 1 5.63271330372 35.0206068574 0.0
363 1 13.7118833037 34.2059068574 0.0
364 1 16.7371833037 34.2220068574 0.0
365 1 24.2616833037 33.2160068574 0.0
366 1 29.6238833037 35.7140068574 0.0
367 1 33.9383833037 33.6249068574 0.0
368 1 39.2270833037 33.9029068574 0.0
369 1 43.9898833037 33.9836068574 0.0
370 1 49.4488833037 32.8216068574 0.0
371 1 56.1380833037 36.4644068574 0.0
372 1 60.4958833037 33.3434068574 0.0
373 1 64.8823833037 36.0707068574 0.0
374 1 70.4270833037 36.1706068574 0.0
375 1 75.3994833037 34.6026068574 0.0
376 1 77.7777833037 39.2623068574 0.0
377 1 6.35531330372 40.3811068574 0.0
378 1 10.2061833037 38.2907068574 0.0
379 1 15.3270833037 38.9762068574 0.0
380 1 20.1140833037 38.8594068574 0.0
381 1 27.2685833037 40.9169068574 0.0
382 1 31.8670833037 37.7090068574 0.0
383 1 37.1123833037 38.1142068574 0.0
384 1 41.8320833037 39.0451068574 0.0
385 1 46.2613833037 39.1278068574 0.0
386 1 51.7382833037 39.6401068574 0.0
387 1 57.3042833037 39.2445068574 0.0
388 1 63.7755833037 41.6908068574 0.0
389 1 67.9026833037 40.2980068574 0.0
390 1 73.4791833037 40.0209068574 0.0
391 1 2.29254330372 43.4230068574 0.0
392 1 7.90716330372 42.9363068574 0.0
393 1 12.5374833037 43.3902068574 0.0
394 1 17.6321833037 43.7206068574 0.0
395 1 22.3512833037 43.7296068574 0.0
396 1 28.7872833037 43.5843068574 0.0
397 1 31.6948833037 42.9250068574 0.0
398 1 38.1650833037 43.1550068574 0.0
399 1 43.5360833037 43.5883068574 0.0
400 1 48.8514833037 43.5984068574 0.0
401 1 54.2987833037 44.1711068574 0.0
402 1 59.0251833037 43.9800068574 0.0
403 1 65.1802833037 44.3270068574 0.0
404 1 70.5915833037 44.6982068574 0.0
405 1 75.7602833037 44.2598068574 0.0
406 1 0.472389303723 47.8654068574 0.0
407 1 5.70954330372 47.8066068574 0.0
408 1 11.0908833037 46.0266068574 0.0
409 1 15.8226833037 48.3214068574 0.0
410 1 21.4128833037 46.6188068574 0.0
411 1 26.2486833037 49.7848068574 0.0
412 1 29.2802833037 49.3416068574 0.0
413 1 36.0035833037 45.2940068574 0.0
414 1 40.8190833037 47.8506068574 0.0
415 1 46.3329833037 47.8987068574 0.0
416 1 51.5763833037 48.2677068574 0.0
417 1 56.9683833037 48.8379068574 0.0
418 1 61.9983833037 48.4658068574 0.0
419 1 67.3420833037 48.8226068574 0.0
420 1 73.1065833037 48.2351068574 0.0
421 1 3.38381330372 52.5675068574 0.0
422 1 8.36193330372 52.5155068574 0.0
423 1 13.5561833037 52.5049068574 0.0
424 1 18.7848833037 52.9784068574 0.0
425 1 23.2412833037 53.7234068574 0.0
426 1 30.6103833037 54.5048068574 0.0
427 1 34.4263833037 52.1643068574 0.0
428 1 40.0010833037 50.7391068574 0.0
429 1 45.4577833037 52.6977068574 0.0
430 1 50.5988833037 51.1171068574 0.0
431 1 55.2584833037 53.6532068574 0.0
432 1 60.4012833037 53.1571068574 0.0
433 1 65.8810833037 51.4616068574 0.0
434 1 71.0914833037 53.1886068574 0.0
435 1 76.3873833037 51.2952068574 0.0
436 1 0.0971783037232 56.0493068574 0.0
437 1 6.41500330372 58.2748068574 0.0
438 1 10.3851833037 56.8396068574 0.0
439 1 15.3657833037 57.3115068574 0.0
440 1 20.1033833037 58.1333068574 0.0
441 1 25.6186833037 57.5107068574 0.0
442 1 32.8834833037 56.4921068574 0.0
443 1 37.5570833037 57.2537068574 0.0
444 1 40.5161833037 57.8720068574 0.0
445 1 48.7522833037 58.4711068574 0.0
446 1 53.5646833037 58.0543068574 0.0
447 1 58.8138833037 57.9476068574 0.0
448 1 64.0887833037 57.1773068574 0.0
449 1 69.5733833037 57.9994068574 0.0
450 1 74.8250833037 57.7695068574 0.0
451 1 1.37671330372 60.8851068574 0.0
452 1 7.69820330372 61.0321068574 0.0
453 1 13.4945833037 59.6778068574 0.0
454 1 17.4951833037 63.0179068574 0.0
455 1 22.7265833037 62.1411068574 0.0
456 1 28.1926833037 61.2802068574 0.0
457 1 31.1896833037 61.1294068574 0.0
458 1 38.6694833037 62.3299068574 0.0
459 1 41.7011833037 62.4849068574 0.0
460 1 50.0165833037 61.1975068574 0.0
461 1 57.4783833037 63.8330068574 0.0
462 1 61.4888833037 61.5939068574 0.0
463 1 66.2472833037 62.3608068574 0.0
464 1 71.1187833037 62.7907068574 0.0
465 1 73.9303833037 61.8709068574 0.0
466 1 0.0764183037232 63.6564068574 0.0
467 1 4.53896330372 66.0989068574 0.0
468 1 9.31559330372 65.4221068574 0.0
469 1 14.1319833037 66.5652068574 0.0
470 1 21.3677833037 67.8200068574 0.0
471 1 25.7711833037 65.6190068574 0.0
472 1 31.4167833037 64.1161068574 0.0
473 1 36.0671833037 67.3419068574 0.0
474 1 40.7293833037 67.0373068574 0.0
475 1 48.2600833037 66.8231068574 0.0
476 1 52.2630833037 65.6262068574 0.0
477 1 58.9316833037 66.5139068574 0.0
478 1 63.6926833037 66.2014068574 0.0
479 1 66.4623833037 67.2436068574 0.0
480 1 73.6960833037 66.8353068574 0.0
481 1 2.46637330372 70.6367068574 0.0
482 1 7.44065330372 70.9401068574 0.0
483 1 12.1113833037 68.7648068574 0.0
484 1 16.6339833037 71.0687068574 0.0
485 1 23.4725833037 69.9635068574 0.0
486 1 28.7362833037 70.0092068574 0.0
487 1 33.4317833037 71.3684068574 0.0
488 1 40.4911833037 72.7409068574 0.0
489 1 44.5341833037 70.1790068574 0.0
490 1 50.8859833037 68.2902068574 0.0
491 1 54.7827833037 71.9480068574 0.0
492 1 60.6134833037 72.4076068574 0.0
493 1 65.6548833037 70.0934068574 0.0
494 1 70.8401833037 71.8715068574 0.0
495 1 75.9908833037 70.8327068574 0.0
496 1 78.3745833037 75.1298068574 0.0
497 1 5.04918330372 75.2952068574 0.0
498 1 10.3433833037 75.6983068574 0.0
499 1 15.9991833037 74.0032068574 0.0
500 1 20.9627833037 76.4316068574 0.0
501 1 23.7800833037 75.4307068574 0.0
502 1 30.0837833037 74.8309068574 0.0
503 1 35.7979833037 75.5218068574 0.0
504 1 42.6345833037 74.8384068574 0.0
505 1 47.4809833037 75.0255068574 0.0
506 1 51.7142833037 76.1246068574 0.0
507 1 57.2572833037 75.8139068574 0.0
508 1 62.6500833037 74.7476068574 0.0
509 1 67.8307833037 76.2617068574 0.0
510 1 73.3940833037 75.9109068574 0.0
511 1 5.47211330372 80.1938068574 0.0
512 1 10.9601833037 78.6879068574 0.0
513 1 16.3263833037 78.7448068574 0.0
514 1 21.5907833037 79.3587068574 0.0
515 1 25.9766833037 77.4811068574 0.0
516 1 30.8884833037 79.9146068574 0.0
517 1 36.4856833037 78.4475068574 0.0
518 1 42.2639833037 77.8331068574 0.0
519 1 47.5969833037 78.0601068574 0.0
520 1 52.4971833037 79.0112068574 0.0
521 1 58.0322833037 78.6905068574 0.0
522 1 62.8259833037 77.8308068574 0.0
523 1 67.5345833037 80.9842068574 0.0
524 1 73.2598833037 78.9392068574 0.0
525 1 0.452444303723 78.0887068574 0.0
526 1 3.50274330372 77.9081068574 0.0
527 1 8.49410330372 80.4501068574 0.0
528 1 13.6565833037 80.1371068574 0.0
529 1 18.8037833037 80.4348068574 0.0
530 1 24.4953833037 80.0795068574 0.0
531 1 28.9770833037 77.6037068574 0.0
532 1 33.9134833037 80.0535068574 0.0
533 1 39.4652833037 78.9915068574 0.0
534 1 44.8817833037 79.3645068574 0.0
535 1 49.7528833037 80.2024068574 0.0
536 1 55.3368833037 80.0160068574 0.0
537 1 60.6996833037 80.0664068574 0.0
538 1 65.8079833037 78.5060068574 0.0
539 1 70.5807833037 80.4719068574 0.0
540 1 76.2505833037 79.6021068574 0.0
541 2 4.92664330372 2.3726368574 0.0
542 2 4.62148330372 0.00873085739683 0.0
543 2 2.40581330372 1.7245368574 0.0
544 2 8.75685330372 0.507050857397 0.0
545 2 9.86158330372 3.0958068574 0.0
546 2 7.45943330372 2.6646468574 0.0
547 2 16.6394833037 1.7174868574 0.0
548 2 14.4677833037 2.6978068574 0.0
549 2 14.3227833037 0.0823868573968 0.0
550 2 19.4781833037 2.6239268574 0.0
551 2 18.5435833037 0.457963857397 0.0
552 2 24.9219833037 2.3285468574 0.0
553 2 25.2223833037 81.3779068574 0.0
554 2 27.4597833037 1.0540868574 0.0
555 2 29.8941833037 81.0558068574 0.0
556 2 29.9008833037 1.9498268574 0.0
557 2 33.9488833037 0.128033857397 0.0
558 2 34.8305833037 2.6752668574 0.0
559 2 32.3989833037 2.2316368574 0.0
560 2 41.4737833037 1.1057368574 0.0
561 2 39.7389833037 80.4762068574 0.0
562 2 39.2245833037 1.7180368574 0.0
563 2 45.1948833037 80.8452068574 0.0
564 2 46.6509833037 1.8255168574 0.0
565 2 44.0930833037 1.5208568574 0.0
566 2 50.1204833037 0.227332857397 0.0
567 2 52.0278833037 2.1687168574 0.0
568 2 49.2290833037 2.3273568574 0.0
569 2 55.7198833037 0.0247338573968 0.0
570 2 57.7285833037 1.4648668574 0.0
571 2 54.8560833037 2.1658668574 0.0
572 2 59.8666833037 2.7453968574 0.0
573 2 62.0038833037 4.0263268574 0.0
574 2 59.6781833037 5.4487968574 0.0
575 2 66.6561833037 0.806806857397 0.0
576 2 67.3122833037 2.8806468574 0.0
577 2 64.6910833037 3.0650968574 0.0
578 2 71.0232833037 0.477214857397 0.0
579 2 72.7715833037 2.3954168574 0.0
580 2 70.0363833037 2.7136968574 0.0
581 2 76.4798833037 81.0980068574 0.0
582 2 78.0932833037 1.6917868574 0.0
583 2 75.4452833037 2.0219568574 0.0
584 2 0.948193303723 3.8219368574 0.0
585 2 2.00398330372 6.3072868574 0.0
586 2 78.0938833037 6.1802868574 0.0
587 2 6.01431330372 4.8024068574 0.0
588 2 6.84948330372 7.4253668574 0.0
589 2 4.46684330372 6.8171168574 0.0
590 2 11.6408833037 8.2977168574 0.0
591 2 10.6257833037 5.7587368574 0.0
592 2 9.20944330372 7.9131868574 0.0
593 2 14.3202833037 5.4475868574 0.0
594 2 16.1456833037 7.3418568574 0.0
595 2 13.8464833037 8.1207468574 0.0
596 2 20.3386833037 4.7633968574 0.0
597 2 21.3000833037 6.9264368574 0.0
598 2 18.7226833037 7.0176168574 0.0
599 2 24.6905833037 4.6780468574 0.0
600 2 26.2786833037 7.2096268574 0.0
601 2 23.9499833037 6.7675668574 0.0
602 2 31.0535833037 4.4011768574 0.0
603 2 32.8235833037 6.1074168574 0.0
604 2 30.6536833037 7.1978468574 0.0
605 2 37.2430833037 3.5145368574 0.0
606 2 35.1490833037 5.1955268574 0.0
607 2 41.6533833037 6.0755568574 0.0
608 2 43.6425833037 7.4381868574 0.0
609 2 41.0037833037 8.5213468574 0.0
610 2 47.6886833037 4.3145268574 0.0
611 2 49.1712833037 6.3056768574 0.0
612 2 46.4105833037 6.5778568574 0.0
613 2 53.4811833037 4.2466068574 0.0
614 2 54.7597833037 6.5351268574 0.0
615 2 52.0190833037 6.2329668574 0.0
616 2 59.9922833037 7.9622968574 0.0
617 2 57.4641833037 7.1386868574 0.0
618 2 63.6380833037 5.6177268574 0.0
619 2 65.0077833037 7.7226368574 0.0
620 2 62.4164833037 8.0721868574 0.0
621 2 68.7739833037 4.9209868574 0.0
622 2 67.6212833037 7.2524868574 0.0
623 2 70.2894833037 6.8794068574 0.0
624 2 74.2573833037 4.3855668574 0.0
625 2 75.5922833037 6.5941068574 0.0
626 2 72.9800833037 6.6763568574 0.0
627 2 2.89904330372 8.8455568574 0.0
628 2 3.64469330372 11.4050068574 0.0
629 2 1.08655330372 10.2676068574 0.0
630 2 7.75995330372 10.0380068574 0.0
631 2 8.83294330372 12.4850068574 0.0
632 2 6.21892330372 11.9692068574 0.0
633 2 12.8909833037 10.7407068574 0.0
634 2 13.8235833037 13.3783068574 0.0
635 2 11.4098833037 12.8061068574 0.0
636 2 17.6706833037 9.4100568574 0.0
637 2 19.4962833037 11.1280068574 0.0
638 2 17.6984833037 12.3348068574 0.0
639 2 23.0748833037 8.9471268574 0.0
640 2 24.8430833037 10.9663068574 0.0
641 2 22.1917833037 11.1007068574 0.0
642 2 28.5745833037 8.4954468574 0.0
643 2 26.7785833037 9.9811068574 0.0
644 2 34.3612833037 7.9187668574 0.0
645 2 35.7132833037 9.9347068574 0.0
646 2 33.0966833037 10.3051068574 0.0
647 2 40.3634833037 11.0030068574 0.0
648 2 38.4265833037 9.9077068574 0.0
649 2 45.5173833037 8.8944368574 0.0
650 2 47.2674833037 10.8276068574 0.0
651 2 44.7720833037 11.4047068574 0.0
652 2 50.7657833037 8.2919368574 0.0
653 2 52.6008833037 9.8375068574 0.0
654 2 49.9073833037 10.7193068574 0.0
655 2 54.3269833037 11.3871068574 0.0
656 2 55.5792833037 13.7790068574 0.0
657 2 53.3333833037 13.9974068574 0.0
658 2 61.2381833037 10.4808068574 0.0
659 2 62.6806833037 12.8178068574 0.0
660 2 60.3787833037 13.1628068574 0.0
661 2 67.3727833037 12.1482068574 0.0
662 2 67.0987833037 9.5426168574 0.0
663 2 69.4673833037 10.6002068574 0.0
664 2 71.4124833037 8.9125468574 0.0
665 2 72.1008833037 11.3035068574 0.0
666 2 77.1234833037 11.1497068574 0.0
667 2 77.4701833037 8.6022768574 0.0
668 2 76.8734833037 13.6918068574 0.0
669 2 0.365443303723 15.5332068574 0.0
670 2 76.1060833037 15.9331068574 0.0
671 2 4.75059330372 13.9080068574 0.0
672 2 5.85906330372 16.3981068574 0.0
673 2 3.22695330372 15.7172068574 0.0
674 2 9.98938330372 14.9095068574 0.0
675 2 10.9965833037 17.4491068574 0.0
676 2 8.46179330372 16.8572068574 0.0
677 2 16.2789833037 14.2213068574 0.0
678 2 14.8597833037 16.0242068574 0.0
679 2 20.8203833037 13.2207068574 0.0
680 2 21.9891833037 15.2802068574 0.0
681 2 19.0800833037 14.5361068574 0.0
682 2 26.3078833037 12.9128068574 0.0
683 2 27.4650833037 15.1480068574 0.0
684 2 24.7833833037 15.0938068574 0.0
685 2 31.4583833037 12.5139068574 0.0
686 2 30.0271833037 14.8768068574 0.0
687 2 32.5925833037 14.7293068574 0.0
688 2 36.6716833037 12.0252068574 0.0
689 2 37.5878833037 14.2329068574 0.0
690 2 35.0921833037 14.3860068574 0.0
691 2 42.2672833037 12.4583068574 0.0
692 2 39.9275833037 13.6845068574 0.0
693 2 48.6230833037 15.2424068574 0.0
694 2 48.0836833037 12.9285068574 0.0
695 2 46.0934833037 14.9624068574 0.0
696 2 53.6680833037 16.4604068574 0.0
697 2 51.2027833037 15.7346068574 0.0
698 2 55.9093833037 16.2675068574 0.0
699 2 58.0340833037 14.5576068574 0.0
700 2 63.4676833037 15.3000068574 0.0
701 2 63.5495833037 18.1644068574 0.0
702 2 61.5930833037 17.0980068574 0.0
703 2 69.0471833037 16.9218068574 0.0
704 2 67.9825833037 14.5213068574 0.0
705 2 70.6900833037 15.2465068574 0.0
706 2 72.6787833037 13.6978068574 0.0
707 2 73.4312833037 15.9730068574 0.0
708 2 0.617213303723 19.9077068574 0.0
709 2 3.05767330372 19.9742068574 0.0
710 2 1.79645330372 17.5896068574 0.0
711 2 7.14098330372 18.8578068574 0.0
712 2 7.83545330372 21.6990068574 0.0
713 2 5.63810330372 20.6205068574 0.0
714 2 12.1822833037 19.9706068574 0.0
715 2 14.0620833037 21.6506068574 0.0
716 2 11.9131833037 22.7716068574 0.0
717 2 16.2147833037 18.4040068574 0.0
718 2 18.7538833037 19.8002068574 0.0
719 2 16.4656833037 20.7654068574 0.0
720 2 23.1657833037 17.2484068574 0.0
721 2 23.7080833037 19.8450068574 0.0
722 2 21.3756833037 19.3070068574 0.0
723 2 28.9915833037 17.2987068574 0.0
724 2 30.5913833037 19.4060068574 0.0
725 2 28.2313833037 19.9390068574 0.0
726 2 34.1610833037 16.8654068574 0.0
727 2 35.7135833037 19.0217068574 0.0
728 2 33.1513833037 19.2601068574 0.0
729 2 39.1053833037 16.3269068574 0.0
730 2 40.8915833037 17.6538068574 0.0
731 2 38.2720833037 18.8674068574 0.0
732 2 42.9344833037 18.8222068574 0.0
733 2 44.9069833037 20.4521068574 0.0
734 2 42.5114833037 21.4144068574 0.0
735 2 49.2373833037 17.5860068574 0.0
736 2 50.0630833037 19.8044068574 0.0
737 2 47.5226833037 19.8209068574 0.0
738 2 54.6960833037 18.8821068574 0.0
739 2 54.6482833037 21.7852068574 0.0
740 2 52.7372833037 20.4384068574 0.0
741 2 59.7545833037 18.8815068574 0.0
742 2 60.8896833037 21.2806068574 0.0
743 2 58.7153833037 21.5868068574 0.0
744 2 65.2661833037 19.9899068574 0.0
745 2 63.0549833037 20.9284068574 0.0
746 2 69.9284833037 19.5833068574 0.0
747 2 71.9073833037 21.4616068574 0.0
748 2 69.4675833037 22.0593068574 0.0
749 2 76.5207833037 20.1836068574 0.0
750 2 74.8933833037 18.1486068574 0.0
751 2 74.2169833037 20.8148068574 0.0
752 2 78.1596833037 22.2744068574 0.0
753 2 0.968193303723 24.8256068574 0.0
754 2 77.3384833037 24.8036068574 0.0
755 2 4.08398330372 22.4455068574 0.0
756 2 5.42471330372 24.7272068574 0.0
757 2 3.10574330372 24.9658068574 0.0
758 2 9.77038330372 23.5851068574 0.0
759 2 7.60069330372 24.4334068574 0.0
760 2 15.8092833037 23.4078068574 0.0
761 2 17.3712833037 25.5723068574 0.0
762 2 15.2589833037 26.1675068574 0.0
763 2 20.8791833037 21.6136068574 0.0
764 2 23.2446833037 22.1375068574 0.0
765 2 21.6728833037 24.2637068574 0.0
766 2 28.2706833037 25.2103068574 0.0
767 2 28.0924833037 22.5424068574 0.0
768 2 30.3540833037 23.5689068574 0.0
769 2 31.9235833037 21.6293068574 0.0
770 2 32.9559833037 24.0860068574 0.0
771 2 37.6696833037 23.3980068574 0.0
772 2 36.6576833037 21.2461068574 0.0
773 2 35.2756833037 23.8376068574 0.0
774 2 42.4903833037 23.9864068574 0.0
775 2 40.2997833037 23.1635068574 0.0
776 2 46.6013833037 22.2681068574 0.0
777 2 48.5146833037 23.5718068574 0.0
778 2 46.4383833037 25.0903068574 0.0
779 2 50.6801833037 24.6992068574 0.0
780 2 52.7706833037 26.0965068574 0.0
781 2 50.3585833037 27.2262068574 0.0
782 2 56.5632833037 23.0687068574 0.0
783 2 54.7187833037 24.7149068574 0.0
784 2 62.2417833037 23.6330068574 0.0
785 2 62.6336833037 26.5406068574 0.0
786 2 60.5974833037 25.4576068574 0.0
787 2 68.0508833037 24.3818068574 0.0
788 2 69.2341833037 26.7154068574 0.0
789 2 66.8566833037 26.8732068574 0.0
790 2 73.3829833037 23.4960068574 0.0