ITEM: TIMESTEP
0
ITEM: NUMBER OF ATOMS
1350
ITEM: BOX BOUNDS xy xz yz pp pp pp
0.0 77.3912411489 0
0.0 82.3496952764 0
-10.0 10.0 0
ITEM: ATOMS id type x y z vx vy vz
1 1 1.96946835131 1.17702763821 0.0 0.0 0.0 0.0
2 1 8.50347835131 2.04991763821 0.0 0.0 0.0 0.0
3 1 13.9833583513 1.92968763821 0.0 0.0 0.0 0.0
4 1 18.8129583513 2.46470763821 0.0 0.0 0.0 0.0
5 1 24.2928583513 2.11073763821 0.0 0.0 0.0 0.0
6 1 29.2868583513 1.83769763821 0.0 0.0 0.0 0.0
7 1 34.8733583513 2.11925763821 0.0 0.0 0.0 0.0
8 1 42.0982583513 2.14128763821 0.0 0.0 0.0 0.0
9 1 45.0761583513 1.89282763821 0.0 0.0 0.0 0.0
10 1 49.4977583513 2.02245763821 0.0 0.0 0.0 0.0
11 1 54.5957583513 3.60043763821 0.0 0.0 0.0 0.0
12 1 59.5614583513 0.538286638212 0.0 0.0 0.0 0.0
13 1 63.9874583513 2.79844763821 0.0 0.0 0.0 0.0
14 1 69.2301583513 0.506946638212 0.0 0.0 0.0 0.0
15 1 74.3685583513 0.709127638212 0.0 0.0 0.0 0.0
16 1 77.2211583513 5.52779763821 0.0 0.0 0.0 0.0
17 1 3.60776835131 3.73886763821 0.0 0.0 0.0 0.0
18 1 10.8961583513 6.17204763821 0.0 0.0 0.0 0.0
19 1 15.8382583513 6.97240763821 0.0 0.0 0.0 0.0
20 1 21.3643583513 6.51808763821 0.0 0.0 0.0 0.0
21 1 25.9165583513 6.65639763821 0.0 0.0 0.0 0.0
22 1 31.5256583513 6.13264763821 0.0 0.0 0.0 0.0
23 1 37.0375583513 7.23948763821 0.0 0.0 0.0 0.0
24 1 42.1898583513 6.59500763821 0.0 0.0 0.0 0.0
25 1 47.4068583513 6.94064763821 0.0 0.0 0.0 0.0
26 1 52.7822583513 6.02126763821 0.0 0.0 0.0 0.0
27 1 57.6745583513 5.76654763821 0.0 0.0 0.0 0.0
28 1 62.6679583513 5.50801763821 0.0 0.0 0.0 0.0
29 1 67.0745583513 5.55607763821 0.0 0.0 0.0 0.0
30 1 72.0458583513 5.14747763821 0.0 0.0 0.0 0.0
31 1 3.03309835131 9.62220763821 0.0 0.0 0.0 0.0
32 1 8.92641835131 9.82752763821 0.0 0.0 0.0 0.0
33 1 11.8132583513 9.01817763821 0.0 0.0 0.0 0.0
34 1 18.5915583513 10.8642476382 0.0 0.0 0.0 0.0
35 1 20.8480583513 14.0070476382 0.0 0.0 0.0 0.0
36 1 30.3101583513 10.0389476382 0.0 0.0 0.0 0.0
37 1 33.0049583513 8.75817763821 0.0 0.0 0.0 0.0
38 1 40.0824583513 11.3523476382 0.0 0.0 0.0 0.0
39 1 45.0842583513 11.2822476382 0.0 0.0 0.0 0.0
40 1 49.8287583513 10.7436476382 0.0 0.0 0.0 0.0
41 1 54.3831583513 10.4766476382 0.0 0.0 0.0 0.0
42 1 59.2589583513 10.1203476382 0.0 0.0 0.0 0.0
43 1 64.1190583513 10.5039476382 0.0 0.0 0.0 0.0
44 1 69.4215583513 9.98086763821 0.0 0.0 0.0 0.0
45 1 75.0256583513 9.77645763821 0.0 0.0 0.0 0.0
46 1 0.159458351305 14.0412476382 0.0 0.0 0.0 0.0
47 1 4.18008835131 14.9416476382 0.0 0.0 0.0 0.0
48 1 8.95322835131 15.4666476382 0.0 0.0 0.0 0.0
49 1 15.3744583513 15.5278476382 0.0 0.0 0.0 0.0
50 1 23.6573583513 14.9346476382 0.0 0.0 0.0 0.0
51 1 26.8713583513 16.5131476382 0.0 0.0 0.0 0.0
52 1 30.2352583513 18.6300476382 0.0 0.0 0.0 0.0
53 1 38.4939583513 15.3742476382 0.0 0.0 0.0 0.0
54 1 41.5417583513 15.7792476382 0.0 0.0 0.0 0.0
55 1 48.7345583513 15.6793476382 0.0 0.0 0.0 0.0
56 1 51.7554583513 15.5187476382 0.0 0.0 0.0 0.0
57 1 56.6571583513 15.0315476382 0.0 0.0 0.0 0.0
58 1 61.4793583513 16.7266476382 0.0 0.0 0.0 0.0
59 1 67.0030583513 14.6241476382 0.0 0.0 0.0 0.0
60 1 72.4012583513 13.9203476382 0.0 0.0 0.0 0.0
61 1 1.40794835131 19.6339476382 0.0 0.0 0.0 0.0
62 1 6.32726835131 19.9769476382 0.0 0.0 0.0 0.0
63 1 10.5342583513 18.0463476382 0.0 0.0 0.0 0.0
64 1 17.1459583513 17.9761476382 0.0 0.0 0.0 0.0
65 1 22.4313583513 22.3235476382 0.0 0.0 0.0 0.0
66 1 28.1749583513 20.8943476382 0.0 0.0 0.0 0.0
67 1 33.4479583513 21.0709476382 0.0 0.0 0.0 0.0
68 1 37.9270583513 22.6842476382 0.0 0.0 0.0 0.0
69 1 43.1595583513 20.3384476382 0.0 0.0 0.0 0.0
70 1 48.2206583513 21.0357476382 0.0 0.0 0.0 0.0
71 1 54.2174583513 20.1119476382 0.0 0.0 0.0 0.0
72 1 59.8319583513 19.2336476382 0.0 0.0 0.0 0.0
73 1 64.6742583513 19.1292476382 0.0 0.0 0.0 0.0
74 1 71.9098583513 17.7016476382 0.0 0.0 0.0 0.0
75 1 74.7932583513 18.4902476382 0.0 0.0 0.0 0.0
76 1 75.7076583513 24.1631476382 0.0 0.0 0.0 0.0
77 1 3.74748835131 24.5273476382 0.0 0.0 0.0 0.0
78 1 9.42045835131 23.8027476382 0.0 0.0 0.0 0.0
79 1 15.0567583513 23.4815476382 0.0 0.0 0.0 0.0
80 1 20.3869583513 24.5908476382 0.0 0.0 0.0 0.0
81 1 25.2768583513 25.4183476382 0.0 0.0 0.0 0.0
82 1 31.4439583513 25.3149476382 0.0 0.0 0.0 0.0
83 1 36.7142583513 25.4191476382 0.0 0.0 0.0 0.0
84 1 41.4851583513 25.1793476382 0.0 0.0 0.0 0.0
85 1 46.0931583513 27.5214476382 0.0 0.0 0.0 0.0
86 1 49.9727583513 23.5519476382 0.0 0.0 0.0 0.0
87 1 57.4992583513 23.6080476382 0.0 0.0 0.0 0.0
88 1 62.4205583513 23.9213476382 0.0 0.0 0.0 0.0
89 1 67.8299583513 22.8966476382 0.0 0.0 0.0 0.0
90 1 70.7979583513 23.2260476382 0.0 0.0 0.0 0.0
91 1 0.657848351305 28.7282476382 0.0 0.0 0.0 0.0
92 1 6.44208835131 28.2538476382 0.0 0.0 0.0 0.0
93 1 11.8315583513 27.8469476382 0.0 0.0 0.0 0.0
94 1 17.1748583513 28.5010476382 0.0 0.0 0.0 0.0
95 1 23.0233583513 29.6736476382 0.0 0.0 0.0 0.0
96 1 26.9051583513 27.9479476382 0.0 0.0 0.0 0.0
97 1 33.4640583513 32.1291476382 0.0 0.0 0.0 0.0
98 1 39.0504583513 30.0641476382 0.0 0.0 0.0 0.0
99 1 44.6185583513 30.1589476382 0.0 0.0 0.0 0.0
100 1 49.2880583513 29.4743476382 0.0 0.0 0.0 0.0
101 1 56.3951583513 27.8922476382 0.0 0.0 0.0 0.0
102 1 59.3982583513 28.4077476382 0.0 0.0 0.0 0.0
103 1 65.0303583513 28.5869476382 0.0 0.0 0.0 0.0
104 1 70.3552583513 27.0159476382 0.0 0.0 0.0 0.0
105 1 72.4009583513 31.0418476382 0.0 0.0 0.0 0.0
106 1 75.9569583513 33.1960476382 0.0 0.0 0.0 0.0
107 1 4.11932835131 32.4345476382 0.0 0.0 0.0 0.0
108 1 9.36125835131 32.4814476382 0.0 0.0 0.0 0.0
109 1 14.2426583513 32.5745476382 0.0 0.0 0.0 0.0
110 1 18.5359583513 31.2524476382 0.0 0.0 0.0 0.0
111 1 26.4295583513 33.7085476382 0.0 0.0 0.0 0.0
112 1 32.0619583513 34.7967476382 0.0 0.0 0.0 0.0
113 1 37.3697583513 34.3259476382 0.0 0.0 0.0 0.0
114 1 41.5296583513 36.6645476382 0.0 0.0 0.0 0.0
115 1 46.8541583513 34.7162476382 0.0 0.0 0.0 0.0
116 1 52.0400583513 34.0031476382 0.0 0.0 0.0 0.0
117 1 57.2845583513 35.3786476382 0.0 0.0 0.0 0.0
118 1 63.9570583513 32.0632476382 0.0 0.0 0.0 0.0
119 1 65.5869583513 36.4752476382 0.0 0.0 0.0 0.0
120 1 70.8632583513 33.6616476382 0.0 0.0 0.0 0.0
121 1 1.21874835131 36.8638476382 0.0 0.0 0.0 0.0
122 1 6.58263835131 36.9741476382 0.0 0.0 0.0 0.0
123 1 12.2586583513 37.3079476382 0.0 0.0 0.0 0.0
124 1 17.4340583513 36.8652476382 0.0 0.0 0.0 0.0
125 1 22.9313583513 37.4205476382 0.0 0.0 0.0 0.0
126 1 28.4023583513 38.2404476382 0.0 0.0 0.0 0.0
127 1 36.2394583513 38.6601476382 0.0 0.0 0.0 0.0
128 1 39.2736583513 38.6828476382 0.0 0.0 0.0 0.0
129 1 44.1330583513 39.6912476382 0.0 0.0 0.0 0.0
130 1 50.0642583513 38.8336476382 0.0 0.0 0.0 0.0
131 1 55.7644583513 37.9677476382 0.0 0.0 0.0 0.0
132 1 60.6194583513 38.9716476382 0.0 0.0 0.0 0.0
133 1 65.1612583513 39.4685476382 0.0 0.0 0.0 0.0
134 1 69.2027583513 38.4684476382 0.0 0.0 0.0 0.0
135 1 73.8376583513 39.9314476382 0.0 0.0 0.0 0.0
136 1 76.7338583513 42.1671476382 0.0 0.0 0.0 0.0
137 1 3.60656835131 41.2133476382 0.0 0.0 0.0 0.0
138 1 7.80484835131 39.7292476382 0.0 0.0 0.0 0.0
139 1 14.2531583513 41.5971476382 0.0 0.0 0.0 0.0
140 1 19.5836583513 41.4049476382 0.0 0.0 0.0 0.0
141 1 24.7732583513 42.0614476382 0.0 0.0 0.0 0.0
142 1 29.8860583513 42.7310476382 0.0 0.0 0.0 0.0
143 1 35.0215583513 43.4100476382 0.0 0.0 0.0 0.0
144 1 41.4576583513 43.8446476382 0.0 0.0 0.0 0.0
145 1 45.9660583513 42.0630476382 0.0 0.0 0.0 0.0
146 1 53.0056583513 42.1957476382 0.0 0.0 0.0 0.0
147 1 58.0772583513 43.0822476382 0.0 0.0 0.0 0.0
148 1 62.4160583513 44.1767476382 0.0 0.0 0.0 0.0
149 1 67.4503583513 44.0967476382 0.0 0.0 0.0 0.0
150 1 73.8487583513 42.8938476382 0.0 0.0 0.0 0.0
151 1 2.64780835131 46.5408476382 0.0 0.0 0.0 0.0
152 1 7.39255835131 47.3840476382 0.0 0.0 0.0 0.0
153 1 11.0692583513 48.2557476382 0.0 0.0 0.0 0.0
154 1 16.2208583513 45.8403476382 0.0 0.0 0.0 0.0
155 1 22.6464583513 48.7466476382 0.0 0.0 0.0 0.0
156 1 27.8981583513 46.8499476382 0.0 0.0 0.0 0.0
157 1 32.6087583513 47.5251476382 0.0 0.0 0.0 0.0
158 1 36.8921583513 45.7977476382 0.0 0.0 0.0 0.0
159 1 44.5709583513 47.5852476382 0.0 0.0 0.0 0.0
160 1 51.7183583513 46.9251476382 0.0 0.0 0.0 0.0
161 1 54.7299583513 47.0420476382 0.0 0.0 0.0 0.0
162 1 58.6359583513 50.5960476382 0.0 0.0 0.0 0.0
163 1 64.3093583513 48.7607476382 0.0 0.0 0.0 0.0
164 1 69.7538583513 48.8295476382 0.0 0.0 0.0 0.0
165 1 74.9971583513 47.8755476382 0.0 0.0 0.0 0.0
166 1 1.42102835131 51.5711476382 0.0 0.0 0.0 0.0
167 1 6.31688835131 50.2614476382 0.0 0.0 0.0 0.0
168 1 10.0272583513 53.6027476382 0.0 0.0 0.0 0.0
169 1 14.7380583513 50.8252476382 0.0 0.0 0.0 0.0
170 1 18.5766583513 47.6901476382 0.0 0.0 0.0 0.0
171 1 25.7061583513 51.7571476382 0.0 0.0 0.0 0.0
172 1 30.7459583513 51.9191476382 0.0 0.0 0.0 0.0
173 1 35.4869583513 51.4591476382 0.0 0.0 0.0 0.0
174 1 40.9201583513 51.6301476382 0.0 0.0 0.0 0.0
175 1 46.0485583513 51.8107476382 0.0 0.0 0.0 0.0
176 1 51.3774583513 52.3051476382 0.0 0.0 0.0 0.0
177 1 56.9287583513 53.1126476382 0.0 0.0 0.0 0.0
178 1 62.1144583513 53.2044476382 0.0 0.0 0.0 0.0
179 1 68.1450583513 52.8796476382 0.0 0.0 0.0 0.0
180 1 73.6307583513 52.5507476382 0.0 0.0 0.0 0.0
181 1 3.94047835131 55.6543476382 0.0 0.0 0.0 0.0
182 1 8.90638835131 56.3957476382 0.0 0.0 0.0 0.0
183 1 13.7183583513 56.1939476382 0.0 0.0 0.0 0.0
184 1 18.2903583513 53.5167476382 0.0 0.0 0.0 0.0
185 1 20.9956583513 57.3013476382 0.0 0.0 0.0 0.0
186 1 28.2499583513 56.4212476382 0.0 0.0 0.0 0.0
187 1 33.3540583513 56.5667476382 0.0 0.0 0.0 0.0
188 1 38.0707583513 55.8095476382 0.0 0.0 0.0 0.0
189 1 41.9657583513 54.4618476382 0.0 0.0 0.0 0.0
190 1 47.4911583513 56.1177476382 0.0 0.0 0.0 0.0
191 1 52.2128583513 55.2175476382 0.0 0.0 0.0 0.0
192 1 59.0997583513 57.5953476382 0.0 0.0 0.0 0.0
193 1 63.8304583513 55.6412476382 0.0 0.0 0.0 0.0
194 1 71.2361583513 56.8927476382 0.0 0.0 0.0 0.0
195 1 76.4149583513 56.5071476382 0.0 0.0 0.0 0.0
196 1 1.09013835131 60.7684476382 0.0 0.0 0.0 0.0
197 1 6.05983835131 60.7178476382 0.0 0.0 0.0 0.0
198 1 11.3270583513 61.0889476382 0.0 0.0 0.0 0.0
199 1 18.2812583513 58.5990476382 0.0 0.0 0.0 0.0
200 1 19.1352583513 63.0086476382 0.0 0.0 0.0 0.0
201 1 23.3544583513 59.1303476382 0.0 0.0 0.0 0.0
202 1 28.2444583513 63.2982476382 0.0 0.0 0.0 0.0
203 1 37.8199583513 60.4028476382 0.0 0.0 0.0 0.0
204 1 40.8606583513 60.2119476382 0.0 0.0 0.0 0.0
205 1 46.3720583513 61.7131476382 0.0 0.0 0.0 0.0
206 1 50.9163583513 62.6550476382 0.0 0.0 0.0 0.0
207 1 56.4577583513 61.5124476382 0.0 0.0 0.0 0.0
208 1 62.1490583513 61.0115476382 0.0 0.0 0.0 0.0
209 1 67.7862583513 60.9428476382 0.0 0.0 0.0 0.0
210 1 73.2641583513 61.1470476382 0.0 0.0 0.0 0.0
211 1 3.58032835131 65.4943476382 0.0 0.0 0.0 0.0
212 1 8.66223835131 65.3869476382 0.0 0.0 0.0 0.0
213 1 13.9235583513 65.4421476382 0.0 0.0 0.0 0.0
214 1 20.2866583513 65.7715476382 0.0 0.0 0.0 0.0
215 1 22.9614583513 64.4577476382 0.0 0.0 0.0 0.0
216 1 26.0656583513 68.1081476382 0.0 0.0 0.0 0.0
217 1 30.5820583513 65.1545476382 0.0 0.0 0.0 0.0
218 1 37.2803583513 65.4735476382 0.0 0.0 0.0 0.0
219 1 42.3350583513 64.9026476382 0.0 0.0 0.0 0.0
220 1 47.2112583513 66.8999476382 0.0 0.0 0.0 0.0
221 1 54.0145583513 66.2196476382 0.0 0.0 0.0 0.0
222 1 61.3113583513 64.6776476382 0.0 0.0 0.0 0.0
223 1 64.3293583513 64.9577476382 0.0 0.0 0.0 0.0
224 1 69.5618583513 65.1810476382 0.0 0.0 0.0 0.0
225 1 74.9476583513 65.3392476382 0.0 0.0 0.0 0.0
226 1 76.2451583513 68.0523476382 0.0 0.0 0.0 0.0
227 1 5.54659835131 70.0059476382 0.0 0.0 0.0 0.0
228 1 11.8415583513 69.8311476382 0.0 0.0 0.0 0.0
229 1 14.8105583513 70.2398476382 0.0 0.0 0.0 0.0
230 1 19.7117583513 71.3515476382 0.0 0.0 0.0 0.0
231 1 24.7045583513 70.7914476382 0.0 0.0 0.0 0.0
232 1 29.7431583513 70.6247476382 0.0 0.0 0.0 0.0
233 1 34.6426583513 70.1829476382 0.0 0.0 0.0 0.0
234 1 39.3566583513 69.7746476382 0.0 0.0 0.0 0.0
235 1 44.1863583513 71.9670476382 0.0 0.0 0.0 0.0
236 1 49.0477583513 69.2850476382 0.0 0.0 0.0 0.0
237 1 56.5480583513 70.2088476382 0.0 0.0 0.0 0.0
238 1 61.7300583513 69.6645476382 0.0 0.0 0.0 0.0
239 1 67.0575583513 69.5922476382 0.0 0.0 0.0 0.0
240 1 71.9853583513 69.5965476382 0.0 0.0 0.0 0.0
241 1 2.96076835131 75.6819476382 0.0 0.0 0.0 0.0
242 1 7.70133835131 77.0500476382 0.0 0.0 0.0 0.0
243 1 12.5179583513 74.8020476382 0.0 0.0 0.0 0.0
244 1 17.6726583513 77.2049476382 0.0 0.0 0.0 0.0
245 1 23.1686583513 75.6584476382 0.0 0.0 0.0 0.0
246 1 28.2203583513 75.1666476382 0.0 0.0 0.0 0.0
247 1 33.5390583513 76.7779476382 0.0 0.0 0.0 0.0
248 1 37.9956583513 76.5607476382 0.0 0.0 0.0 0.0
249 1 43.6118583513 74.9092476382 0.0 0.0 0.0 0.0
250 1 48.8451583513 76.6102476382 0.0 0.0 0.0 0.0
251 1 53.8689583513 73.9551476382 0.0 0.0 0.0 0.0
252 1 59.4677583513 74.3748476382 0.0 0.0 0.0 0.0
253 1 64.8822583513 74.0283476382 0.0 0.0 0.0 0.0
254 1 70.0826583513 74.3045476382 0.0 0.0 0.0 0.0
255 1 75.3380583513 73.6532476382 0.0 0.0 0.0 0.0
256 1 76.7167583513 2.57376763821 0.0 0.0 0.0 0.0
257 1 6.54942835131 4.33091763821 0.0 0.0 0.0 0.0
258 1 11.2724583513 3.20391763821 0.0 0.0 0.0 0.0
259 1 16.1929583513 3.97043763821 0.0 0.0 0.0 0.0
260 1 21.6301583513 3.52621763821 0.0 0.0 0.0 0.0
261 1 26.8425583513 3.72053763821 0.0 0.0 0.0 0.0
262 1 32.0199583513 3.15855763821 0.0 0.0 0.0 0.0
263 1 37.0918583513 4.21832763821 0.0 0.0 0.0 0.0
264 1 40.1246583513 4.37692763821 0.0 0.0 0.0 0.0
265 1 47.2321583513 3.95903763821 0.0 0.0 0.0 0.0
266 1 52.4406583513 1.56851763821 0.0 0.0 0.0 0.0
267 1 57.5001583513 2.77285763821 0.0 0.0 0.0 0.0
268 1 62.5692583513 0.165962638212 0.0 0.0 0.0 0.0
269 1 66.9850583513 2.54430763821 0.0 0.0 0.0 0.0
270 1 71.7419583513 2.15562763821 0.0 0.0 0.0 0.0
271 1 2.62591835131 6.60930763821 0.0 0.0 0.0 0.0
272 1 8.00473835131 6.96472763821 0.0 0.0 0.0 0.0
273 1 14.7058583513 9.79247763821 0.0 0.0 0.0 0.0
274 1 18.6842583513 7.86934763821 0.0 0.0 0.0 0.0
275 1 23.5185583513 8.60986763821 0.0 0.0 0.0 0.0
276 1 28.8186583513 7.44978763821 0.0 0.0 0.0 0.0
277 1 35.7529583513 9.97513763821 0.0 0.0 0.0 0.0
278 1 39.8062583513 8.38307763821 0.0 0.0 0.0 0.0
279 1 44.7120583513 8.27707763821 0.0 0.0 0.0 0.0
280 1 50.2988583513 7.76126763821 0.0 0.0 0.0 0.0
281 1 55.2997583513 7.62344763821 0.0 0.0 0.0 0.0
282 1 60.2406583513 7.27638763821 0.0 0.0 0.0 0.0
283 1 64.8339583513 7.56977763821 0.0 0.0 0.0 0.0
284 1 69.6881583513 6.99588763821 0.0 0.0 0.0 0.0
285 1 74.5339583513 6.82334763821 0.0 0.0 0.0 0.0
286 1 0.370178351305 11.0393476382 0.0 0.0 0.0 0.0
287 1 4.89651835131 12.0185476382 0.0 0.0 0.0 0.0
288 1 7.85579835131 12.6373476382 0.0 0.0 0.0 0.0
289 1 16.0500583513 12.5234476382 0.0 0.0 0.0 0.0
290 1 21.6014583513 11.0510476382 0.0 0.0 0.0 0.0
291 1 26.2739583513 13.5730476382 0.0 0.0 0.0 0.0
292 1 29.1445583513 12.7819476382 0.0 0.0 0.0 0.0
293 1 37.3479583513 12.5626476382 0.0 0.0 0.0 0.0
294 1 42.5992583513 12.9676476382 0.0 0.0 0.0 0.0
295 1 47.6688583513 12.8385476382 0.0 0.0 0.0 0.0
296 1 52.2159583513 12.5453476382 0.0 0.0 0.0 0.0
297 1 56.9171583513 12.0271476382 0.0 0.0 0.0 0.0
298 1 61.5244583513 12.0595476382 0.0 0.0 0.0 0.0
299 1 66.9023583513 11.6274476382 0.0 0.0 0.0 0.0
300 1 72.2636583513 10.9432476382 0.0 0.0 0.0 0.0
301 1 1.70213835131 16.6201476382 0.0 0.0 0.0 0.0
302 1 6.37028835131 16.9771476382 0.0 0.0 0.0 0.0
303 1 13.5372583513 17.9376476382 0.0 0.0 0.0 0.0
304 1 19.9588583513 16.9182476382 0.0 0.0 0.0 0.0
305 1 24.2442583513 17.8720476382 0.0 0.0 0.0 0.0
306 1 29.7264583513 15.7021476382 0.0 0.0 0.0 0.0
307 1 33.2007583513 18.0948476382 0.0 0.0 0.0 0.0
308 1 36.0918583513 17.2234476382 0.0 0.0 0.0 0.0
309 1 44.0718583513 17.4927476382 0.0 0.0 0.0 0.0
310 1 47.0538583513 18.1977476382 0.0 0.0 0.0 0.0
311 1 54.3570583513 17.0630476382 0.0 0.0 0.0 0.0
312 1 59.6212583513 14.4141476382 0.0 0.0 0.0 0.0
313 1 64.4193583513 16.1570476382 0.0 0.0 0.0 0.0
314 1 69.8744583513 15.5081476382 0.0 0.0 0.0 0.0
315 1 74.9567583513 15.5006476382 0.0 0.0 0.0 0.0
316 1 76.1970583513 21.1593476382 0.0 0.0 0.0 0.0
317 1 3.75089835131 21.5171476382 0.0 0.0 0.0 0.0
318 1 9.21775835131 20.7801476382 0.0 0.0 0.0 0.0
319 1 15.3157583513 20.3992476382 0.0 0.0 0.0 0.0
320 1 21.6862583513 19.4064476382 0.0 0.0 0.0 0.0
321 1 25.4927583513 22.4065476382 0.0 0.0 0.0 0.0
322 1 30.7622583513 22.4173476382 0.0 0.0 0.0 0.0
323 1 36.2934583513 20.2097476382 0.0 0.0 0.0 0.0
324 1 40.8717583513 22.2535476382 0.0 0.0 0.0 0.0
325 1 45.4779583513 22.2313476382 0.0 0.0 0.0 0.0
326 1 52.9505583513 22.9048476382 0.0 0.0 0.0 0.0
327 1 57.1770583513 20.6300476382 0.0 0.0 0.0 0.0
328 1 62.2848583513 20.9372476382 0.0 0.0 0.0 0.0
329 1 67.5336583513 19.9365476382 0.0 0.0 0.0 0.0
330 1 70.4776583513 20.2776476382 0.0 0.0 0.0 0.0
331 1 0.934138351305 25.7104476382 0.0 0.0 0.0 0.0
332 1 6.71078835131 25.2432476382 0.0 0.0 0.0 0.0
333 1 12.2916583513 24.8394476382 0.0 0.0 0.0 0.0
334 1 17.4461583513 25.4345476382 0.0 0.0 0.0 0.0
335 1 22.5454583513 26.6938476382 0.0 0.0 0.0 0.0
336 1 29.8842583513 27.8525476382 0.0 0.0 0.0 0.0
337 1 34.0474583513 26.7725476382 0.0 0.0 0.0 0.0
338 1 39.1887583513 27.0864476382 0.0 0.0 0.0 0.0
339 1 44.4561583513 25.0393476382 0.0 0.0 0.0 0.0
340 1 48.9239583513 26.4575476382 0.0 0.0 0.0 0.0
341 1 54.9615583513 25.1980476382 0.0 0.0 0.0 0.0
342 1 59.8604583513 25.4513476382 0.0 0.0 0.0 0.0
343 1 65.3431583513 24.5039476382 0.0 0.0 0.0 0.0
344 1 67.3571583513 26.6990476382 0.0 0.0 0.0 0.0
345 1 72.8983583513 25.3498476382 0.0 0.0 0.0 0.0
346 1 75.3697583513 30.2542476382 0.0 0.0 0.0 0.0
347 1 3.63471835131 29.4578476382 0.0 0.0 0.0 0.0
348 1 9.23975835131 29.4491476382 0.0 0.0 0.0 0.0
349 1 14.3345583513 29.5488476382 0.0 0.0 0.0 0.0
350 1 21.4132583513 32.2032476382 0.0 0.0 0.0 0.0
351 1 25.8325583513 30.7489476382 0.0 0.0 0.0 0.0
352 1 32.4768583513 29.3190476382 0.0 0.0 0.0 0.0
353 1 36.4077583513 31.5030476382 0.0 0.0 0.0 0.0
354 1 41.8019583513 31.2823476382 0.0 0.0 0.0 0.0
355 1 47.1971583513 31.6973476382 0.0 0.0 0.0 0.0
356 1 51.8603583513 31.0054476382 0.0 0.0 0.0 0.0
357 1 54.8012583513 30.4443476382 0.0 0.0 0.0 0.0
358 1 62.1963583513 29.6092476382 0.0 0.0 0.0 0.0
359 1 66.7769583513 31.0193476382 0.0 0.0 0.0 0.0
360 1 69.6143583513 29.9273476382 0.0 0.0 0.0 0.0
361 1 1.48207835131 33.8848476382 0.0 0.0 0.0 0.0
362 1 6.72923835131 33.9572476382 0.0 0.0 0.0 0.0
363 1 11.7740583513 34.3104476382 0.0 0.0 0.0 0.0
364 1 16.9723583513 33.8524476382 0.0 0.0 0.0 0.0
365 1 23.4775583513 34.4422476382 0.0 0.0 0.0 0.0
366 1 29.0442583513 35.2839476382 0.0 0.0 0.0 0.0
367 1 34.8529583513 35.9945476382 0.0 0.0 0.0 0.0
368 1 40.3569583513 33.9216476382 0.0 0.0 0.0 0.0
369 1 44.5506583513 36.7106476382 0.0 0.0 0.0 0.0
370 1 49.6467583513 35.8535476382 0.0 0.0 0.0 0.0
371 1 54.9997583513 33.4378476382 0.0 0.0 0.0 0.0
372 1 60.2300583513 35.9948476382 0.0 0.0 0.0 0.0
373 1 63.0251583513 34.9043476382 0.0 0.0 0.0 0.0
374 1 68.4563583513 35.5464476382 0.0 0.0 0.0 0.0
375 1 73.5422583513 34.9960476382 0.0 0.0 0.0 0.0
376 1 76.7235583513 39.1840476382 0.0 0.0 0.0 0.0
377 1 3.86609835131 38.2310476382 0.0 0.0 0.0 0.0
378 1 10.7804583513 39.9509476382 0.0 0.0 0.0 0.0
379 1 14.9608583513 38.6346476382 0.0 0.0 0.0 0.0
380 1 20.0513583513 38.4085476382 0.0 0.0 0.0 0.0
381 1 25.4687583513 39.1082476382 0.0 0.0 0.0 0.0
382 1 30.9413583513 39.9251476382 0.0 0.0 0.0 0.0
383 1 33.9229583513 40.5878476382 0.0 0.0 0.0 0.0
384 1 41.3452583513 40.8475476382 0.0 0.0 0.0 0.0
385 1 48.9283583513 41.6358476382 0.0 0.0 0.0 0.0
386 1 53.0358583513 39.2024476382 0.0 0.0 0.0 0.0
387 1 57.8591583513 40.1037476382 0.0 0.0 0.0 0.0
388 1 62.6760583513 41.1625476382 0.0 0.0 0.0 0.0
389 1 67.6910583513 41.0789476382 0.0 0.0 0.0 0.0
390 1 72.0521583513 37.5791476382 0.0 0.0 0.0 0.0
391 1 1.88824835131 43.6638476382 0.0 0.0 0.0 0.0
392 1 6.35222835131 42.3701476382 0.0 0.0 0.0 0.0
393 1 11.4942583513 42.8982476382 0.0 0.0 0.0 0.0
394 1 16.9554583513 42.9159476382 0.0 0.0 0.0 0.0
395 1 21.9841583513 43.2371476382 0.0 0.0 0.0 0.0
396 1 27.1413583513 43.9325476382 0.0 0.0 0.0 0.0
397 1 32.2585583513 44.5614476382 0.0 0.0 0.0 0.0
398 1 39.8495583513 46.3795476382 0.0 0.0 0.0 0.0
399 1 44.3608583513 44.5945476382 0.0 0.0 0.0 0.0
400 1 50.6796583513 44.0827476382 0.0 0.0 0.0 0.0
401 1 55.2837583513 44.1079476382 0.0 0.0 0.0 0.0
402 1 59.7427583513 45.5644476382 0.0 0.0 0.0 0.0
403 1 64.9463583513 45.8021476382 0.0 0.0 0.0 0.0
404 1 69.9042583513 45.8400476382 0.0 0.0 0.0 0.0
405 1 72.9063583513 45.7135476382 0.0 0.0 0.0 0.0
406 1 0.526098351305 48.6842476382 0.0 0.0 0.0 0.0
407 1 5.35504835131 45.2195476382 0.0 0.0 0.0 0.0
408 1 9.83925835131 45.5239476382 0.0 0.0 0.0 0.0
409 1 14.0394583513 47.9113476382 0.0 0.0 0.0 0.0
410 1 21.1539583513 46.1453476382 0.0 0.0 0.0 0.0
411 1 25.6260583513 48.7755476382 0.0 0.0 0.0 0.0
412 1 30.0164583513 48.9964476382 0.0 0.0 0.0 0.0
413 1 35.4528583513 48.4465476382 0.0 0.0 0.0 0.0
414 1 41.7660583513 48.7213476382 0.0 0.0 0.0 0.0
415 1 47.1931583513 49.0547476382 0.0 0.0 0.0 0.0
416 1 50.1913583513 49.5180476382 0.0 0.0 0.0 0.0
417 1 57.6572583513 47.7592476382 0.0 0.0 0.0 0.0
418 1 61.6622583513 50.2511476382 0.0 0.0 0.0 0.0
419 1 67.0225583513 50.0967476382 0.0 0.0 0.0 0.0
420 1 72.6344583513 49.7308476382 0.0 0.0 0.0 0.0
421 1 4.27616835131 52.5842476382 0.0 0.0 0.0 0.0
422 1 9.28325835131 50.7039476382 0.0 0.0 0.0 0.0
423 1 13.0066583513 53.2864476382 0.0 0.0 0.0 0.0
424 1 17.7215583513 50.5763476382 0.0 0.0 0.0 0.0
425 1 22.7191583513 51.7478476382 0.0 0.0 0.0 0.0
426 1 28.1716583513 53.4405476382 0.0 0.0 0.0 0.0
427 1 33.2929583513 53.5329476382 0.0 0.0 0.0 0.0
428 1 38.1611583513 52.8029476382 0.0 0.0 0.0 0.0
429 1 44.9365583513 54.5835476382 0.0 0.0 0.0 0.0
430 1 48.5926583513 53.3483476382 0.0 0.0 0.0 0.0
431 1 55.1975583513 55.6198476382 0.0 0.0 0.0 0.0
432 1 59.4880583513 54.6377476382 0.0 0.0 0.0 0.0
433 1 66.8067583513 55.5525476382 0.0 0.0 0.0 0.0
434 1 70.9635583513 53.9111476382 0.0 0.0 0.0 0.0
435 1 76.4852583513 53.4962476382 0.0 0.0 0.0 0.0
436 1 1.74314835131 57.7852476382 0.0 0.0 0.0 0.0
437 1 6.18328835131 57.6835476382 0.0 0.0 0.0 0.0
438 1 11.3896583513 58.0861476382 0.0 0.0 0.0 0.0
439 1 16.7002583513 56.0612476382 0.0 0.0 0.0 0.0
440 1 21.1691583513 54.3099476382 0.0 0.0 0.0 0.0
441 1 26.3154583513 58.6885476382 0.0 0.0 0.0 0.0
442 1 30.7477583513 58.0765476382 0.0 0.0 0.0 0.0
443 1 36.0140583513 57.9789476382 0.0 0.0 0.0 0.0
444 1 40.7274583513 57.1987476382 0.0 0.0 0.0 0.0
445 1 49.0600583513 60.2827476382 0.0 0.0 0.0 0.0
446 1 50.1571583513 57.4697476382 0.0 0.0 0.0 0.0
447 1 56.2421583513 58.4816476382 0.0 0.0 0.0 0.0
448 1 62.0506583513 58.0426476382 0.0 0.0 0.0 0.0
449 1 68.4717583513 58.0333476382 0.0 0.0 0.0 0.0
450 1 73.9262583513 58.2107476382 0.0 0.0 0.0 0.0
451 1 3.58548835131 62.4635476382 0.0 0.0 0.0 0.0
452 1 8.59607835131 62.3684476382 0.0 0.0 0.0 0.0
453 1 14.0189583513 62.4352476382 0.0 0.0 0.0 0.0
454 1 16.7589583513 61.1945476382 0.0 0.0 0.0 0.0
455 1 21.8300583513 61.7025476382 0.0 0.0 0.0 0.0
456 1 28.8029583513 60.3584476382 0.0 0.0 0.0 0.0
457 1 33.5012583513 64.4923476382 0.0 0.0 0.0 0.0
458 1 35.9748583513 62.7853476382 0.0 0.0 0.0 0.0
459 1 43.3178583513 62.0256476382 0.0 0.0 0.0 0.0
460 1 48.2547583513 64.0732476382 0.0 0.0 0.0 0.0
461 1 53.9066583513 63.1959476382 0.0 0.0 0.0 0.0
462 1 59.4224583513 62.3130476382 0.0 0.0 0.0 0.0
463 1 64.9804583513 62.0363476382 0.0 0.0 0.0 0.0
464 1 70.4660583513 62.3102476382 0.0 0.0 0.0 0.0
465 1 75.9628583513 62.4862476382 0.0 0.0 0.0 0.0
466 1 1.84395835131 67.9657476382 0.0 0.0 0.0 0.0
467 1 6.15350835131 67.0493476382 0.0 0.0 0.0 0.0
468 1 11.2769583513 66.8781476382 0.0 0.0 0.0 0.0
469 1 16.0830583513 67.5321476382 0.0 0.0 0.0 0.0
470 1 18.9472583513 68.4391476382 0.0 0.0 0.0 0.0
471 1 25.8614583513 65.1236476382 0.0 0.0 0.0 0.0
472 1 29.0488583513 67.7347476382 0.0 0.0 0.0 0.0
473 1 34.8287583513 67.1829476382 0.0 0.0 0.0 0.0
474 1 39.9533583513 66.7868476382 0.0 0.0 0.0 0.0
475 1 44.2153583513 67.2386476382 0.0 0.0 0.0 0.0
476 1 51.9732583513 68.4782476382 0.0 0.0 0.0 0.0
477 1 56.8569583513 67.2360476382 0.0 0.0 0.0 0.0
478 1 59.8722583513 67.2897476382 0.0 0.0 0.0 0.0
479 1 66.8817583513 66.5786476382 0.0 0.0 0.0 0.0
480 1 72.2076583513 66.5956476382 0.0 0.0 0.0 0.0
481 1 2.65498835131 70.8709476382 0.0 0.0 0.0 0.0
482 1 7.52484835131 72.2609476382 0.0 0.0 0.0 0.0
483 1 10.5267583513 72.5258476382 0.0 0.0 0.0 0.0
484 1 16.8947583513 72.4018476382 0.0 0.0 0.0 0.0
485 1 22.3999583513 72.7267476382 0.0 0.0 0.0 0.0
486 1 27.2792583513 72.3245476382 0.0 0.0 0.0 0.0
487 1 32.3307583513 72.0998476382 0.0 0.0 0.0 0.0
488 1 37.1159583513 71.8733476382 0.0 0.0 0.0 0.0
489 1 42.3574583513 69.6199476382 0.0 0.0 0.0 0.0
490 1 47.1770583513 71.6714476382 0.0 0.0 0.0 0.0
491 1 53.6545583513 70.9703476382 0.0 0.0 0.0 0.0
492 1 59.2952583513 71.4012476382 0.0 0.0 0.0 0.0
493 1 64.4215583513 71.0414476382 0.0 0.0 0.0 0.0
494 1 69.5289583513 71.3298476382 0.0 0.0 0.0 0.0
495 1 74.7772583513 70.6872476382 0.0 0.0 0.0 0.0
496 1 0.975968351305 73.4117476382 0.0 0.0 0.0 0.0
497 1 5.81470835131 74.7257476382 0.0 0.0 0.0 0.0
498 1 10.7009583513 77.1944476382 0.0 0.0 0.0 0.0
499 1 15.5338583513 75.0748476382 0.0 0.0 0.0 0.0
500 1 20.6946583513 77.3904476382 0.0 0.0 0.0 0.0
501 1 25.8767583513 77.0506476382 0.0 0.0 0.0 0.0
502 1 31.2168583513 74.8927476382 0.0 0.0 0.0 0.0
503 1 35.7350583513 74.6190476382 0.0 0.0 0.0 0.0
504 1 41.0028583513 76.4567476382 0.0 0.0 0.0 0.0
505 1 46.6146583513 74.6239476382 0.0 0.0 0.0 0.0
506 1 51.8102583513 76.1256476382 0.0 0.0 0.0 0.0
507 1 56.5967583513 75.2394476382 0.0 0.0 0.0 0.0
508 1 62.2514583513 75.4968476382 0.0 0.0 0.0 0.0
509 1 67.3992583513 75.7132476382 0.0 0.0 0.0 0.0
510 1 72.8876583513 75.4825476382 0.0 0.0 0.0 0.0
511 1 5.98406835131 79.5120476382 0.0 0.0 0.0 0.0
512 1 11.0737583513 80.1701476382 0.0 0.0 0.0 0.0
513 1 16.6076583513 80.0168476382 0.0 0.0 0.0 0.0
514 1 21.6012583513 80.2632476382 0.0 0.0 0.0 0.0
515 1 26.9600583513 79.8806476382 0.0 0.0 0.0 0.0
516 1 32.4273583513 79.6469476382 0.0 0.0 0.0 0.0
517 1 37.1966583513 79.4692476382 0.0 0.0 0.0 0.0
518 1 42.1955583513 81.5201476382 0.0 0.0 0.0 0.0
519 1 47.3216583513 79.1884476382 0.0 0.0 0.0 0.0
520 1 53.7717583513 78.3930476382 0.0 0.0 0.0 0.0
521 1 56.7527583513 78.2302476382 0.0 0.0 0.0 0.0
522 1 61.9007583513 78.4739476382 0.0 0.0 0.0 0.0
523 1 67.1354583513 78.7292476382 0.0 0.0 0.0 0.0
524 1 72.6679583513 78.5194476382 0.0 0.0 0.0 0.0
525 1 3.07769835131 78.6975476382 0.0 0.0 0.0 0.0
526 1 0.831248351305 80.7087476382 0.0 0.0 0.0 0.0
527 1 8.31888835131 81.4055476382 0.0 0.0 0.0 0.0
528 1 13.8750583513 81.2776476382 0.0 0.0 0.0 0.0
529 1 19.0192583513 81.8134476382 0.0 0.0 0.0 0.0
530 1 24.3788583513 81.4507476382 0.0 0.0 0.0 0.0
531 1 29.7321583513 81.1490476382 0.0 0.0 0.0 0.0
532 1 34.8815583513 81.4257476382 0.0 0.0 0.0 0.0
533 1 40.1845583513 79.3416476382 0.0 0.0 0.0 0.0
534 1 45.1588583513 81.2449476382 0.0 0.0 0.0 0.0
535 1 49.3258583513 81.3929476382 0.0 0.0 0.0 0.0
536 1 52.2727583513 80.9578476382 0.0 0.0 0.0 0.0
537 1 59.2439583513 79.9023476382 0.0 0.0 0.0 0.0
538 1 64.4182583513 80.1118476382 0.0 0.0 0.0 0.0
539 1 69.9326583513 79.9042476382 0.0 0.0 0.0 0.0
540 1 75.2222583513 80.1786476382 0.0 0.0 0.0 0.0
541 2 1.50556835131 82.0774476382 0.0 0.0 0.0 0.0
542 2 2.91414835131 2.38475763821 0.0 0.0 0.0 0.0
543 2 0.640138351305 1.87024763821 0.0 0.0 0.0 0.0
544 2 8.33176835131 0.559445638212 0.0 0.0 0.0 0.0
545 2 9.91795835131 2.56273763821 0.0 0.0 0.0 0.0
546 2 7.48370835131 3.14909763821 0.0 0.0 0.0 0.0
547 2 13.9705583513 0.430648638212 0.0 0.0 0.0 0.0
548 2 15.0904583513 2.94080763821 0.0 0.0 0.0 0.0
549 2 12.6112583513 2.54635763821 0.0 0.0 0.0 0.0
550 2 18.8767583513 0.957789638212 0.0 0.0 0.0 0.0
551 2 20.2246583513 2.98959763821 0.0 0.0 0.0 0.0
552 2 17.5340583513 3.26149763821 0.0 0.0 0.0 0.0
553 2 24.3486583513 0.607171638212 0.0 0.0 0.0 0.0
554 2 25.5714583513 2.89410763821 0.0 0.0 0.0 0.0
555 2 22.9506583513 2.80777763821 0.0 0.0 0.0 0.0
556 2 29.4942583513 0.314797638212 0.0 0.0 0.0 0.0
557 2 30.6730583513 2.47257763821 0.0 0.0 0.0 0.0
558 2 28.0840583513 2.80076763821 0.0 0.0 0.0 0.0
559 2 33.4410583513 2.63145763821 0.0 0.0 0.0 0.0
560 2 36.0157583513 3.13985763821 0.0 0.0 0.0 0.0
561 2 34.9339583513 0.595107638212 0.0 0.0 0.0 0.0
562 2 41.0424583513 3.17972763821 0.0 0.0 0.0 0.0
563 2 41.9615583513 0.646343638212 0.0 0.0 0.0 0.0
564 2 43.6048583513 2.20335763821 0.0 0.0 0.0 0.0
565 2 45.3022583513 0.402690638212 0.0 0.0 0.0 0.0
566 2 46.0973583513 2.98185763821 0.0 0.0 0.0 0.0
567 2 49.2286583513 0.539077638212 0.0 0.0 0.0 0.0
568 2 50.9970583513 1.99127763821 0.0 0.0 0.0 0.0
569 2 48.4435583513 3.06909763821 0.0 0.0 0.0 0.0
570 2 53.5702583513 2.51384763821 0.0 0.0 0.0 0.0
571 2 56.0067583513 3.07566763821 0.0 0.0 0.0 0.0
572 2 53.6339583513 4.76996763821 0.0 0.0 0.0 0.0
573 2 59.2624583513 81.4034476382 0.0 0.0 0.0 0.0
574 2 61.0719583513 0.402241638212 0.0 0.0 0.0 0.0
575 2 58.5241583513 1.65373763821 0.0 0.0 0.0 0.0
576 2 63.2550583513 4.12010763821 0.0 0.0 0.0 0.0
577 2 63.2499583513 1.50238763821 0.0 0.0 0.0 0.0
578 2 65.4753583513 2.57300763821 0.0 0.0 0.0 0.0
579 2 69.5849583513 81.3899476382 0.0 0.0 0.0 0.0
580 2 68.0355583513 1.45534763821 0.0 0.0 0.0 0.0
581 2 70.4779583513 1.35642763821 0.0 0.0 0.0 0.0
582 2 74.7344583513 81.6091476382 0.0 0.0 0.0 0.0
583 2 73.0338583513 1.38841763821 0.0 0.0 0.0 0.0
584 2 75.5140583513 1.68433763821 0.0 0.0 0.0 0.0
585 2 1.17553835131 6.17456763821 0.0 0.0 0.0 0.0
586 2 76.9524583513 4.05018763821 0.0 0.0 0.0 0.0
587 2 75.8868583513 6.19216763821 0.0 0.0 0.0 0.0
588 2 5.09832835131 3.97026763821 0.0 0.0 0.0 0.0
589 2 3.16943835131 5.19676763821 0.0 0.0 0.0 0.0
590 2 11.1992583513 4.70763763821 0.0 0.0 0.0 0.0
591 2 11.5508583513 7.52417763821 0.0 0.0 0.0 0.0
592 2 9.42875835131 6.48504763821 0.0 0.0 0.0 0.0
593 2 15.8895583513 5.45157763821 0.0 0.0 0.0 0.0
594 2 15.2211583513 8.35619763821 0.0 0.0 0.0 0.0
595 2 17.3014583513 7.31969763821 0.0 0.0 0.0 0.0
596 2 19.9983583513 7.14855763821 0.0 0.0 0.0 0.0
597 2 22.4630583513 7.53285763821 0.0 0.0 0.0 0.0
598 2 21.5534583513 5.03159763821 0.0 0.0 0.0 0.0