ITEM: TIMESTEP
0
ITEM: NUMBER OF ATOMS
1350
ITEM: BOX BOUNDS xy xz yz pp pp pp
0.0 78.0059211444 0
0.0 81.9786916208 0
-10.0 10.0 0
ITEM: ATOMS id type x y z vx vy vz
1 1 4.01820834907 1.8289958104 0.0 0.0 0.0 0.0
2 1 9.60959834907 1.7191058104 0.0 0.0 0.0 0.0
3 1 15.1841983491 2.3656458104 0.0 0.0 0.0 0.0
4 1 20.0959983491 2.0317458104 0.0 0.0 0.0 0.0
5 1 24.8104983491 0.864405810396 0.0 0.0 0.0 0.0
6 1 30.2818983491 0.780257810396 0.0 0.0 0.0 0.0
7 1 35.5669983491 1.7153958104 0.0 0.0 0.0 0.0
8 1 43.5500983491 1.9584858104 0.0 0.0 0.0 0.0
9 1 46.4813983491 1.3280258104 0.0 0.0 0.0 0.0
10 1 51.6333983491 0.614963810396 0.0 0.0 0.0 0.0
11 1 56.4218983491 0.755464810396 0.0 0.0 0.0 0.0
12 1 61.8255983491 1.7129758104 0.0 0.0 0.0 0.0
13 1 68.4352983491 1.3514858104 0.0 0.0 0.0 0.0
14 1 71.4364983491 1.3142758104 0.0 0.0 0.0 0.0
15 1 76.5720983491 1.7203258104 0.0 0.0 0.0 0.0
16 1 0.858708349071 6.0782158104 0.0 0.0 0.0 0.0
17 1 6.34321834907 6.0004158104 0.0 0.0 0.0 0.0
18 1 11.5205983491 6.2720358104 0.0 0.0 0.0 0.0
19 1 19.4590983491 6.5809558104 0.0 0.0 0.0 0.0
20 1 24.5338983491 5.7262458104 0.0 0.0 0.0 0.0
21 1 27.5298983491 5.0503058104 0.0 0.0 0.0 0.0
22 1 32.3692983491 7.3438458104 0.0 0.0 0.0 0.0
23 1 38.0838983491 6.4977858104 0.0 0.0 0.0 0.0
24 1 42.9621983491 6.2252258104 0.0 0.0 0.0 0.0
25 1 50.1895983491 5.2911258104 0.0 0.0 0.0 0.0
26 1 53.1831983491 5.3674358104 0.0 0.0 0.0 0.0
27 1 57.7783983491 5.2202658104 0.0 0.0 0.0 0.0
28 1 63.3720983491 6.4405358104 0.0 0.0 0.0 0.0
29 1 68.5212983491 6.6769958104 0.0 0.0 0.0 0.0
30 1 73.6376983491 6.0917458104 0.0 0.0 0.0 0.0
31 1 2.82364834907 10.2378458104 0.0 0.0 0.0 0.0
32 1 7.71639834907 10.5996458104 0.0 0.0 0.0 0.0
33 1 12.8168983491 10.8965458104 0.0 0.0 0.0 0.0
34 1 18.1839983491 11.1032458104 0.0 0.0 0.0 0.0
35 1 23.4294983491 10.7297458104 0.0 0.0 0.0 0.0
36 1 30.8338983491 9.9224458104 0.0 0.0 0.0 0.0
37 1 35.9633983491 10.7389458104 0.0 0.0 0.0 0.0
38 1 42.3769983491 10.6232458104 0.0 0.0 0.0 0.0
39 1 45.4008983491 10.8002458104 0.0 0.0 0.0 0.0
40 1 50.2236983491 10.3715458104 0.0 0.0 0.0 0.0
41 1 55.2760983491 10.2357458104 0.0 0.0 0.0 0.0
42 1 60.1404983491 9.6156058104 0.0 0.0 0.0 0.0
43 1 65.4501983491 11.0276458104 0.0 0.0 0.0 0.0
44 1 70.7230983491 10.9034458104 0.0 0.0 0.0 0.0
45 1 75.5656983491 10.5497458104 0.0 0.0 0.0 0.0
46 1 0.277093349071 14.8581458104 0.0 0.0 0.0 0.0
47 1 4.60507834907 17.4020458104 0.0 0.0 0.0 0.0
48 1 9.85879834907 15.3594458104 0.0 0.0 0.0 0.0
49 1 15.3784983491 15.3293458104 0.0 0.0 0.0 0.0
50 1 20.8568983491 15.4595458104 0.0 0.0 0.0 0.0
51 1 25.9388983491 12.5658458104 0.0 0.0 0.0 0.0
52 1 31.3485983491 14.1491458104 0.0 0.0 0.0 0.0
53 1 36.4153983491 15.8325458104 0.0 0.0 0.0 0.0
54 1 41.9541983491 15.8991458104 0.0 0.0 0.0 0.0
55 1 49.9353983491 14.7556458104 0.0 0.0 0.0 0.0
56 1 52.9973983491 14.9869458104 0.0 0.0 0.0 0.0
57 1 61.2860983491 16.2881458104 0.0 0.0 0.0 0.0
58 1 60.2863983491 13.4752458104 0.0 0.0 0.0 0.0
59 1 67.1898983491 15.2743458104 0.0 0.0 0.0 0.0
60 1 72.8215983491 15.5220458104 0.0 0.0 0.0 0.0
61 1 3.37463834907 20.1623458104 0.0 0.0 0.0 0.0
62 1 7.96653834907 20.3898458104 0.0 0.0 0.0 0.0
63 1 13.2672983491 19.4840458104 0.0 0.0 0.0 0.0
64 1 17.3141983491 21.9250458104 0.0 0.0 0.0 0.0
65 1 24.1910983491 19.5866458104 0.0 0.0 0.0 0.0
66 1 28.9665983491 17.5046458104 0.0 0.0 0.0 0.0
67 1 33.5487983491 21.3902458104 0.0 0.0 0.0 0.0
68 1 39.2283983491 20.0986458104 0.0 0.0 0.0 0.0
69 1 44.4047983491 19.7876458104 0.0 0.0 0.0 0.0
70 1 49.4127983491 19.5514458104 0.0 0.0 0.0 0.0
71 1 54.5435983491 19.8945458104 0.0 0.0 0.0 0.0
72 1 59.7549983491 20.2084458104 0.0 0.0 0.0 0.0
73 1 65.2781983491 19.2890458104 0.0 0.0 0.0 0.0
74 1 70.3006983491 21.4303458104 0.0 0.0 0.0 0.0
75 1 75.7613983491 19.5691458104 0.0 0.0 0.0 0.0
76 1 0.440688349071 23.9601458104 0.0 0.0 0.0 0.0
77 1 5.60870834907 25.2849458104 0.0 0.0 0.0 0.0
78 1 10.3182983491 24.2615458104 0.0 0.0 0.0 0.0
79 1 15.4493983491 24.2600458104 0.0 0.0 0.0 0.0
80 1 19.6170983491 23.8159458104 0.0 0.0 0.0 0.0
81 1 27.1412983491 22.8721458104 0.0 0.0 0.0 0.0
82 1 34.1927983491 24.3795458104 0.0 0.0 0.0 0.0
83 1 37.2002983491 24.4335458104 0.0 0.0 0.0 0.0
84 1 43.3574983491 24.0843458104 0.0 0.0 0.0 0.0
85 1 46.3440983491 24.2120458104 0.0 0.0 0.0 0.0
86 1 50.8415983491 24.1889458104 0.0 0.0 0.0 0.0
87 1 57.1424983491 24.5623458104 0.0 0.0 0.0 0.0
88 1 63.6656983491 23.7962458104 0.0 0.0 0.0 0.0
89 1 69.1449983491 24.2148458104 0.0 0.0 0.0 0.0
90 1 73.2597983491 24.3951458104 0.0 0.0 0.0 0.0
91 1 1.66343834907 26.6974458104 0.0 0.0 0.0 0.0
92 1 7.84999834907 29.5106458104 0.0 0.0 0.0 0.0
93 1 12.6192983491 28.7557458104 0.0 0.0 0.0 0.0
94 1 17.7467983491 29.1268458104 0.0 0.0 0.0 0.0
95 1 21.9610983491 27.9657458104 0.0 0.0 0.0 0.0
96 1 26.7933983491 27.9554458104 0.0 0.0 0.0 0.0
97 1 30.7712983491 27.4915458104 0.0 0.0 0.0 0.0
98 1 39.9110983491 29.4482458104 0.0 0.0 0.0 0.0
99 1 42.8762983491 29.8787458104 0.0 0.0 0.0 0.0
100 1 48.3359983491 29.2344458104 0.0 0.0 0.0 0.0
101 1 52.5746983491 26.6256458104 0.0 0.0 0.0 0.0
102 1 59.2261983491 26.6995458104 0.0 0.0 0.0 0.0
103 1 65.9676983491 28.1914458104 0.0 0.0 0.0 0.0
104 1 71.0888983491 29.5180458104 0.0 0.0 0.0 0.0
105 1 77.1921983491 28.3646458104 0.0 0.0 0.0 0.0
106 1 77.5574983491 34.0798458104 0.0 0.0 0.0 0.0
107 1 4.66230834907 33.9764458104 0.0 0.0 0.0 0.0
108 1 12.1204983491 33.3815458104 0.0 0.0 0.0 0.0
109 1 15.1103983491 33.4256458104 0.0 0.0 0.0 0.0
110 1 20.3445983491 33.5266458104 0.0 0.0 0.0 0.0
111 1 24.6133983491 32.6884458104 0.0 0.0 0.0 0.0
112 1 29.0226983491 35.1324458104 0.0 0.0 0.0 0.0
113 1 34.5305983491 33.2355458104 0.0 0.0 0.0 0.0
114 1 39.8873983491 35.9334458104 0.0 0.0 0.0 0.0
115 1 44.4094983491 32.4902458104 0.0 0.0 0.0 0.0
116 1 52.2122983491 32.1957458104 0.0 0.0 0.0 0.0
117 1 57.8410983491 32.2250458104 0.0 0.0 0.0 0.0
118 1 63.6873983491 32.2003458104 0.0 0.0 0.0 0.0
119 1 66.4897983491 31.1299458104 0.0 0.0 0.0 0.0
120 1 72.7737983491 34.2123458104 0.0 0.0 0.0 0.0
121 1 2.07692834907 38.6394458104 0.0 0.0 0.0 0.0
122 1 5.86061834907 36.7684458104 0.0 0.0 0.0 0.0
123 1 12.8539983491 38.7830458104 0.0 0.0 0.0 0.0
124 1 17.9087983491 37.9275458104 0.0 0.0 0.0 0.0
125 1 23.0485983491 38.1451458104 0.0 0.0 0.0 0.0
126 1 28.7798983491 38.1039458104 0.0 0.0 0.0 0.0
127 1 33.4589983491 40.2037458104 0.0 0.0 0.0 0.0
128 1 39.0232983491 38.8385458104 0.0 0.0 0.0 0.0
129 1 44.5217983491 37.5577458104 0.0 0.0 0.0 0.0
130 1 51.4640983491 36.5858458104 0.0 0.0 0.0 0.0
131 1 54.4786983491 36.2092458104 0.0 0.0 0.0 0.0
132 1 59.2370983491 39.1002458104 0.0 0.0 0.0 0.0
133 1 64.3748983491 37.6186458104 0.0 0.0 0.0 0.0
134 1 69.0626983491 37.8486458104 0.0 0.0 0.0 0.0
135 1 74.3437983491 38.8055458104 0.0 0.0 0.0 0.0
136 1 75.8817983491 41.3726458104 0.0 0.0 0.0 0.0
137 1 4.81484834907 42.6906458104 0.0 0.0 0.0 0.0
138 1 10.7264983491 43.1603458104 0.0 0.0 0.0 0.0
139 1 16.0824983491 42.8258458104 0.0 0.0 0.0 0.0
140 1 20.6505983491 42.5599458104 0.0 0.0 0.0 0.0
141 1 24.5261983491 40.7645458104 0.0 0.0 0.0 0.0
142 1 31.7066983491 42.6247458104 0.0 0.0 0.0 0.0
143 1 36.2523983491 43.3317458104 0.0 0.0 0.0 0.0
144 1 40.3711983491 41.5426458104 0.0 0.0 0.0 0.0
145 1 46.1706983491 44.4819458104 0.0 0.0 0.0 0.0
146 1 51.2262983491 42.1952458104 0.0 0.0 0.0 0.0
147 1 59.2770983491 42.0854458104 0.0 0.0 0.0 0.0
148 1 62.2387983491 42.6433458104 0.0 0.0 0.0 0.0
149 1 67.2489983491 42.6794458104 0.0 0.0 0.0 0.0
150 1 71.6993983491 42.6386458104 0.0 0.0 0.0 0.0
151 1 1.89973834907 47.1352458104 0.0 0.0 0.0 0.0
152 1 5.93839834907 45.4858458104 0.0 0.0 0.0 0.0
153 1 13.7510983491 47.2818458104 0.0 0.0 0.0 0.0
154 1 18.8683983491 47.5973458104 0.0 0.0 0.0 0.0
155 1 23.8120983491 46.5723458104 0.0 0.0 0.0 0.0
156 1 28.7462983491 46.4940458104 0.0 0.0 0.0 0.0
157 1 33.0827983491 49.7497458104 0.0 0.0 0.0 0.0
158 1 38.5324983491 47.2711458104 0.0 0.0 0.0 0.0
159 1 44.2062983491 46.7682458104 0.0 0.0 0.0 0.0
160 1 49.4456983491 47.4138458104 0.0 0.0 0.0 0.0
161 1 53.7946983491 46.8225458104 0.0 0.0 0.0 0.0
162 1 58.8123983491 46.0172458104 0.0 0.0 0.0 0.0
163 1 64.6556983491 47.3685458104 0.0 0.0 0.0 0.0
164 1 71.4151983491 47.1545458104 0.0 0.0 0.0 0.0
165 1 74.4563983491 46.9530458104 0.0 0.0 0.0 0.0
166 1 76.7703983491 51.4035458104 0.0 0.0 0.0 0.0
167 1 6.68201834907 50.6261458104 0.0 0.0 0.0 0.0
168 1 9.70689834907 50.6148458104 0.0 0.0 0.0 0.0
169 1 15.2274983491 51.8183458104 0.0 0.0 0.0 0.0
170 1 22.6256983491 51.5414458104 0.0 0.0 0.0 0.0
171 1 25.6242983491 51.1847458104 0.0 0.0 0.0 0.0
172 1 30.7306983491 51.7015458104 0.0 0.0 0.0 0.0
173 1 37.2060983491 51.9213458104 0.0 0.0 0.0 0.0
174 1 41.7152983491 51.0373458104 0.0 0.0 0.0 0.0
175 1 46.7774983491 51.4937458104 0.0 0.0 0.0 0.0
176 1 51.9317983491 52.1612458104 0.0 0.0 0.0 0.0
177 1 58.1000983491 50.5255458104 0.0 0.0 0.0 0.0
178 1 61.0409983491 49.9595458104 0.0 0.0 0.0 0.0
179 1 65.9446983491 50.1493458104 0.0 0.0 0.0 0.0
180 1 73.7813983491 51.9627458104 0.0 0.0 0.0 0.0
181 1 0.856358349071 56.4468458104 0.0 0.0 0.0 0.0
182 1 3.82977834907 54.5771458104 0.0 0.0 0.0 0.0
183 1 11.2945983491 55.1314458104 0.0 0.0 0.0 0.0
184 1 16.0569983491 56.2728458104 0.0 0.0 0.0 0.0
185 1 21.1651983491 56.7687458104 0.0 0.0 0.0 0.0
186 1 27.1644983491 55.9969458104 0.0 0.0 0.0 0.0
187 1 32.3867983491 56.9511458104 0.0 0.0 0.0 0.0
188 1 35.5903983491 54.4326458104 0.0 0.0 0.0 0.0
189 1 43.4242983491 55.7340458104 0.0 0.0 0.0 0.0
190 1 48.7049983491 56.2519458104 0.0 0.0 0.0 0.0
191 1 53.0213983491 54.9682458104 0.0 0.0 0.0 0.0
192 1 61.3170983491 53.9594458104 0.0 0.0 0.0 0.0
193 1 62.0747983491 59.1783458104 0.0 0.0 0.0 0.0
194 1 69.3765983491 57.3894458104 0.0 0.0 0.0 0.0
195 1 74.1766983491 57.5776458104 0.0 0.0 0.0 0.0
196 1 77.7650983491 61.6056458104 0.0 0.0 0.0 0.0
197 1 4.43480834907 60.5271458104 0.0 0.0 0.0 0.0
198 1 8.88589834907 59.1331458104 0.0 0.0 0.0 0.0
199 1 13.1983983491 62.6546458104 0.0 0.0 0.0 0.0
200 1 18.5345983491 61.0193458104 0.0 0.0 0.0 0.0
201 1 22.7559983491 59.3316458104 0.0 0.0 0.0 0.0
202 1 29.8889983491 60.7798458104 0.0 0.0 0.0 0.0
203 1 35.3892983491 60.3907458104 0.0 0.0 0.0 0.0
204 1 39.9436983491 59.2821458104 0.0 0.0 0.0 0.0
205 1 45.1666983491 60.2525458104 0.0 0.0 0.0 0.0
206 1 51.4061983491 60.5320458104 0.0 0.0 0.0 0.0
207 1 56.2651983491 60.5898458104 0.0 0.0 0.0 0.0
208 1 61.0840983491 61.9853458104 0.0 0.0 0.0 0.0
209 1 64.6888983491 60.5626458104 0.0 0.0 0.0 0.0
210 1 70.9422983491 59.9569458104 0.0 0.0 0.0 0.0
211 1 2.45656834907 65.8842458104 0.0 0.0 0.0 0.0
212 1 7.78852834907 64.6679458104 0.0 0.0 0.0 0.0
213 1 12.9557983491 65.6581458104 0.0 0.0 0.0 0.0
214 1 17.5666983491 65.5195458104 0.0 0.0 0.0 0.0
215 1 21.6106983491 67.7184458104 0.0 0.0 0.0 0.0
216 1 27.4038983491 64.3777458104 0.0 0.0 0.0 0.0
217 1 32.8883983491 64.7478458104 0.0 0.0 0.0 0.0
218 1 37.9485983491 64.6671458104 0.0 0.0 0.0 0.0
219 1 42.2355983491 64.1212458104 0.0 0.0 0.0 0.0
220 1 46.8189983491 62.7359458104 0.0 0.0 0.0 0.0
221 1 53.4463983491 65.2928458104 0.0 0.0 0.0 0.0
222 1 58.5165983491 65.7846458104 0.0 0.0 0.0 0.0
223 1 64.0536983491 66.3398458104 0.0 0.0 0.0 0.0
224 1 69.5546983491 65.2594458104 0.0 0.0 0.0 0.0
225 1 75.1114983491 66.2683458104 0.0 0.0 0.0 0.0
226 1 0.536888349071 70.5313458104 0.0 0.0 0.0 0.0
227 1 7.03414834907 69.1050458104 0.0 0.0 0.0 0.0
228 1 9.99479834907 69.6653458104 0.0 0.0 0.0 0.0
229 1 15.7027983491 70.5404458104 0.0 0.0 0.0 0.0
230 1 20.7604983491 70.5876458104 0.0 0.0 0.0 0.0
231 1 24.2705983491 69.0854458104 0.0 0.0 0.0 0.0
232 1 30.3108983491 71.4738458104 0.0 0.0 0.0 0.0
233 1 35.6272983491 69.3017458104 0.0 0.0 0.0 0.0
234 1 40.9930983491 69.3982458104 0.0 0.0 0.0 0.0
235 1 45.7470983491 68.0384458104 0.0 0.0 0.0 0.0
236 1 48.5494983491 71.3919458104 0.0 0.0 0.0 0.0
237 1 56.7560983491 69.9524458104 0.0 0.0 0.0 0.0
238 1 62.1321983491 71.6854458104 0.0 0.0 0.0 0.0
239 1 67.5045983491 69.8383458104 0.0 0.0 0.0 0.0
240 1 71.7783983491 72.1213458104 0.0 0.0 0.0 0.0
241 1 3.29452834907 75.0650458104 0.0 0.0 0.0 0.0
242 1 7.64277834907 74.5321458104 0.0 0.0 0.0 0.0
243 1 11.3130983491 72.4377458104 0.0 0.0 0.0 0.0
244 1 18.4200983491 75.1673458104 0.0 0.0 0.0 0.0
245 1 23.9407983491 74.9148458104 0.0 0.0 0.0 0.0
246 1 29.6316983491 74.4169458104 0.0 0.0 0.0 0.0
247 1 34.4470983491 73.9633458104 0.0 0.0 0.0 0.0
248 1 39.0621983491 76.0764458104 0.0 0.0 0.0 0.0
249 1 45.8014983491 72.6620458104 0.0 0.0 0.0 0.0
250 1 51.3956983491 72.3545458104 0.0 0.0 0.0 0.0
251 1 54.9917983491 74.6445458104 0.0 0.0 0.0 0.0
252 1 60.5711983491 74.2464458104 0.0 0.0 0.0 0.0
253 1 65.3178983491 74.7472458104 0.0 0.0 0.0 0.0
254 1 70.5766983491 74.8594458104 0.0 0.0 0.0 0.0
255 1 74.4434983491 73.4611458104 0.0 0.0 0.0 0.0
256 1 1.25956834907 3.0900558104 0.0 0.0 0.0 0.0
257 1 6.82823834907 3.0066658104 0.0 0.0 0.0 0.0
258 1 12.2383983491 3.2990158104 0.0 0.0 0.0 0.0
259 1 17.8095983491 3.9840458104 0.0 0.0 0.0 0.0
260 1 22.8961983491 3.1748558104 0.0 0.0 0.0 0.0
261 1 27.5592983491 2.0513758104 0.0 0.0 0.0 0.0
262 1 32.6406983491 2.6490058104 0.0 0.0 0.0 0.0
263 1 38.1160983491 3.4698758104 0.0 0.0 0.0 0.0
264 1 41.1612983491 3.7769958104 0.0 0.0 0.0 0.0
265 1 49.2574983491 2.4422558104 0.0 0.0 0.0 0.0
266 1 53.9770983491 2.4788758104 0.0 0.0 0.0 0.0
267 1 58.8984983491 2.4279258104 0.0 0.0 0.0 0.0
268 1 64.1757983491 3.5741558104 0.0 0.0 0.0 0.0
269 1 67.1372983491 4.0252358104 0.0 0.0 0.0 0.0
270 1 73.8758983491 3.0861058104 0.0 0.0 0.0 0.0
271 1 3.60582834907 7.3231558104 0.0 0.0 0.0 0.0
272 1 8.81858834907 7.7419158104 0.0 0.0 0.0 0.0
273 1 13.9468983491 8.0990958104 0.0 0.0 0.0 0.0
274 1 16.9921983491 8.3332258104 0.0 0.0 0.0 0.0
275 1 22.3226983491 7.8332858104 0.0 0.0 0.0 0.0
276 1 30.5937983491 4.9167358104 0.0 0.0 0.0 0.0
277 1 35.3651983491 7.7959258104 0.0 0.0 0.0 0.0
278 1 40.6504983491 8.1365058104 0.0 0.0 0.0 0.0
279 1 45.5813983491 7.7830958104 0.0 0.0 0.0 0.0
280 1 48.5984983491 7.8260458104 0.0 0.0 0.0 0.0
281 1 55.5267983491 7.2292658104 0.0 0.0 0.0 0.0
282 1 60.3952983491 6.6537558104 0.0 0.0 0.0 0.0
283 1 65.8777983491 8.0777658104 0.0 0.0 0.0 0.0
284 1 71.2454983491 7.9301558104 0.0 0.0 0.0 0.0
285 1 76.2402983491 7.5998458104 0.0 0.0 0.0 0.0
286 1 0.264628349071 11.8451458104 0.0 0.0 0.0 0.0
287 1 5.10171834907 12.1932458104 0.0 0.0 0.0 0.0
288 1 10.1647983491 12.3535458104 0.0 0.0 0.0 0.0
289 1 15.4494983491 12.3457458104 0.0 0.0 0.0 0.0
290 1 20.9124983491 12.4272458104 0.0 0.0 0.0 0.0
291 1 28.9576983491 12.2711458104 0.0 0.0 0.0 0.0
292 1 33.1669983491 11.7874458104 0.0 0.0 0.0 0.0
293 1 37.7582983491 13.1364458104 0.0 0.0 0.0 0.0
294 1 40.7662983491 13.1477458104 0.0 0.0 0.0 0.0
295 1 48.0089983491 12.3928458104 0.0 0.0 0.0 0.0
296 1 52.8110983491 11.9551458104 0.0 0.0 0.0 0.0
297 1 57.9319983491 11.6284458104 0.0 0.0 0.0 0.0
298 1 62.4886983491 11.4550458104 0.0 0.0 0.0 0.0
299 1 68.1037983491 12.4089458104 0.0 0.0 0.0 0.0
300 1 73.2589983491 12.5184458104 0.0 0.0 0.0 0.0
301 1 3.32134834907 14.6801458104 0.0 0.0 0.0 0.0
302 1 7.61570834907 17.3956458104 0.0 0.0 0.0 0.0
303 1 12.6245983491 16.5557458104 0.0 0.0 0.0 0.0
304 1 18.0654983491 16.6923458104 0.0 0.0 0.0 0.0
305 1 23.6677983491 16.6285458104 0.0 0.0 0.0 0.0
306 1 26.5280983491 15.5735458104 0.0 0.0 0.0 0.0
307 1 33.4133983491 16.3666458104 0.0 0.0 0.0 0.0
308 1 39.1706983491 17.1030458104 0.0 0.0 0.0 0.0
309 1 44.8437983491 16.8257458104 0.0 0.0 0.0 0.0
310 1 47.8794983491 16.9505458104 0.0 0.0 0.0 0.0
311 1 55.3959983491 16.9774458104 0.0 0.0 0.0 0.0
312 1 58.4672983491 17.4688458104 0.0 0.0 0.0 0.0
313 1 64.3532983491 16.4276458104 0.0 0.0 0.0 0.0
314 1 69.9264983491 16.5954458104 0.0 0.0 0.0 0.0
315 1 75.7086983491 16.5337458104 0.0 0.0 0.0 0.0
316 1 0.456588349071 20.9464458104 0.0 0.0 0.0 0.0
317 1 5.56752834907 22.2439458104 0.0 0.0 0.0 0.0
318 1 10.8379983491 21.2952458104 0.0 0.0 0.0 0.0
319 1 16.2787983491 19.1288458104 0.0 0.0 0.0 0.0
320 1 24.1587983491 22.5842458104 0.0 0.0 0.0 0.0
321 1 27.1750983491 19.8946458104 0.0 0.0 0.0 0.0
322 1 31.7446983491 18.8755458104 0.0 0.0 0.0 0.0
323 1 36.5758983491 21.4962458104 0.0 0.0 0.0 0.0
324 1 41.9129983491 21.4534458104 0.0 0.0 0.0 0.0
325 1 46.9908983491 21.3000458104 0.0 0.0 0.0 0.0
326 1 51.8563983491 21.3144458104 0.0 0.0 0.0 0.0
327 1 57.0645983491 21.5621458104 0.0 0.0 0.0 0.0
328 1 62.7222983491 20.9309458104 0.0 0.0 0.0 0.0
329 1 68.3218983491 19.1670458104 0.0 0.0 0.0 0.0
330 1 73.3147983491 21.3779458104 0.0 0.0 0.0 0.0
331 1 4.32749834907 28.0386458104 0.0 0.0 0.0 0.0
332 1 8.32895834907 26.5214458104 0.0 0.0 0.0 0.0
333 1 12.8824983491 25.7770458104 0.0 0.0 0.0 0.0
334 1 17.7559983491 26.1465458104 0.0 0.0 0.0 0.0
335 1 22.3590983491 24.9802458104 0.0 0.0 0.0 0.0
336 1 28.5194983491 25.5222458104 0.0 0.0 0.0 0.0
337 1 33.7507983491 27.3707458104 0.0 0.0 0.0 0.0
338 1 39.4186983491 26.4982458104 0.0 0.0 0.0 0.0
339 1 42.4005983491 26.9076458104 0.0 0.0 0.0 0.0
340 1 48.5630983491 26.2092458104 0.0 0.0 0.0 0.0
341 1 55.5188983491 27.0737458104 0.0 0.0 0.0 0.0
342 1 62.1823983491 26.4071458104 0.0 0.0 0.0 0.0
343 1 66.3184983491 25.2019458104 0.0 0.0 0.0 0.0
344 1 71.0990983491 26.4912458104 0.0 0.0 0.0 0.0
345 1 75.9669983491 25.6424458104 0.0 0.0 0.0 0.0
346 1 76.4911983491 31.2742458104 0.0 0.0 0.0 0.0
347 1 5.20607834907 30.9527458104 0.0 0.0 0.0 0.0
348 1 10.5054983491 30.8660458104 0.0 0.0 0.0 0.0
349 1 15.0827983491 30.4421458104 0.0 0.0 0.0 0.0
350 1 20.3748983491 30.5183458104 0.0 0.0 0.0 0.0
351 1 24.3758983491 29.7023458104 0.0 0.0 0.0 0.0
352 1 29.0464983491 29.9180458104 0.0 0.0 0.0 0.0
353 1 34.7524983491 30.2295458104 0.0 0.0 0.0 0.0
354 1 37.5609983491 31.2537458104 0.0 0.0 0.0 0.0
355 1 47.4245983491 32.1351458104 0.0 0.0 0.0 0.0
356 1 51.3245983491 29.3448458104 0.0 0.0 0.0 0.0
357 1 57.6118983491 29.2210458104 0.0 0.0 0.0 0.0
358 1 63.1584983491 29.2390458104 0.0 0.0 0.0 0.0
359 1 69.3424983491 31.9839458104 0.0 0.0 0.0 0.0
360 1 73.4960983491 31.2995458104 0.0 0.0 0.0 0.0
361 1 2.12520834907 35.6097458104 0.0 0.0 0.0 0.0
362 1 8.69954834907 37.6648458104 0.0 0.0 0.0 0.0
363 1 11.3098983491 36.2373458104 0.0 0.0 0.0 0.0
364 1 17.6964983491 34.9409458104 0.0 0.0 0.0 0.0
365 1 22.8796983491 35.1378458104 0.0 0.0 0.0 0.0
366 1 27.5963983491 32.5269458104 0.0 0.0 0.0 0.0
367 1 31.9968983491 34.8231458104 0.0 0.0 0.0 0.0
368 1 37.3777983491 34.2339458104 0.0 0.0 0.0 0.0
369 1 42.8081983491 35.0712458104 0.0 0.0 0.0 0.0
370 1 49.8221983491 34.0221458104 0.0 0.0 0.0 0.0
371 1 55.0128983491 33.2567458104 0.0 0.0 0.0 0.0
372 1 59.6812983491 34.6202458104 0.0 0.0 0.0 0.0
373 1 62.6988983491 35.0605458104 0.0 0.0 0.0 0.0
374 1 69.8736983491 34.9461458104 0.0 0.0 0.0 0.0
375 1 75.2114983491 35.9424458104 0.0 0.0 0.0 0.0
376 1 0.852458349071 41.3886458104 0.0 0.0 0.0 0.0
377 1 4.89661834907 39.6472458104 0.0 0.0 0.0 0.0
378 1 10.2319983491 40.2221458104 0.0 0.0 0.0 0.0
379 1 15.6384983491 39.8663458104 0.0 0.0 0.0 0.0
380 1 20.4115983491 39.5649458104 0.0 0.0 0.0 0.0
381 1 27.5045983491 40.8128458104 0.0 0.0 0.0 0.0
382 1 31.7486983491 37.7850458104 0.0 0.0 0.0 0.0
383 1 36.4307983491 40.3337458104 0.0 0.0 0.0 0.0
384 1 43.0404983491 40.1756458104 0.0 0.0 0.0 0.0
385 1 47.2025983491 38.9492458104 0.0 0.0 0.0 0.0
386 1 50.2004983491 39.3332458104 0.0 0.0 0.0 0.0
387 1 57.4637983491 36.6837458104 0.0 0.0 0.0 0.0
388 1 62.1792983491 39.6429458104 0.0 0.0 0.0 0.0
389 1 66.6536983491 39.6565458104 0.0 0.0 0.0 0.0
390 1 71.4679983491 39.6440458104 0.0 0.0 0.0 0.0
391 1 2.15176834907 44.1020458104 0.0 0.0 0.0 0.0
392 1 8.92261834907 45.5320458104 0.0 0.0 0.0 0.0
393 1 13.4922983491 44.3046458104 0.0 0.0 0.0 0.0
394 1 18.4815983491 44.6184458104 0.0 0.0 0.0 0.0
395 1 23.4630983491 43.5781458104 0.0 0.0 0.0 0.0
396 1 28.8403983491 43.4926458104 0.0 0.0 0.0 0.0
397 1 33.6760983491 44.8672458104 0.0 0.0 0.0 0.0
398 1 39.0791983491 44.2887458104 0.0 0.0 0.0 0.0
399 1 45.6901983491 41.5355458104 0.0 0.0 0.0 0.0
400 1 49.1854983491 44.4264458104 0.0 0.0 0.0 0.0
401 1 53.7921983491 43.8084458104 0.0 0.0 0.0 0.0
402 1 56.8125983491 43.7646458104 0.0 0.0 0.0 0.0
403 1 64.7423983491 44.3510458104 0.0 0.0 0.0 0.0
404 1 69.5455983491 44.7129458104 0.0 0.0 0.0 0.0
405 1 74.3913983491 43.9579458104 0.0 0.0 0.0 0.0
406 1 77.1359983491 48.3987458104 0.0 0.0 0.0 0.0
407 1 4.72952834907 48.2585458104 0.0 0.0 0.0 0.0
408 1 10.8147983491 47.8460458104 0.0 0.0 0.0 0.0
409 1 16.2112983491 48.9882458104 0.0 0.0 0.0 0.0
410 1 21.6676983491 48.6852458104 0.0 0.0 0.0 0.0
411 1 26.3034983491 48.2481458104 0.0 0.0 0.0 0.0
412 1 31.6890983491 47.1070458104 0.0 0.0 0.0 0.0
413 1 36.0882983491 49.1301458104 0.0 0.0 0.0 0.0
414 1 41.4578983491 48.0429458104 0.0 0.0 0.0 0.0
415 1 46.6514983491 48.5095458104 0.0 0.0 0.0 0.0
416 1 51.8947983491 49.1469458104 0.0 0.0 0.0 0.0
417 1 56.5572983491 47.9843458104 0.0 0.0 0.0 0.0
418 1 61.6502983491 47.0402458104 0.0 0.0 0.0 0.0
419 1 68.6326983491 51.6163458104 0.0 0.0 0.0 0.0
420 1 71.3023983491 50.1846458104 0.0 0.0 0.0 0.0
421 1 1.01637834907 53.4558458104 0.0 0.0 0.0 0.0
422 1 6.67280834907 53.6575458104 0.0 0.0 0.0 0.0
423 1 12.2322983491 52.2792458104 0.0 0.0 0.0 0.0
424 1 17.5902983491 53.6865458104 0.0 0.0 0.0 0.0
425 1 20.6198983491 53.8049458104 0.0 0.0 0.0 0.0
426 1 27.9901983491 53.0568458104 0.0 0.0 0.0 0.0
427 1 32.6400983491 53.9919458104 0.0 0.0 0.0 0.0
428 1 39.8218983491 53.3680458104 0.0 0.0 0.0 0.0
429 1 44.1065983491 52.8189458104 0.0 0.0 0.0 0.0
430 1 49.1596983491 53.2907458104 0.0 0.0 0.0 0.0
431 1 55.9882983491 55.3301458104 0.0 0.0 0.0 0.0
432 1 58.3415983491 53.4800458104 0.0 0.0 0.0 0.0
433 1 63.4104983491 51.8004458104 0.0 0.0 0.0 0.0
434 1 69.8433983491 54.4103458104 0.0 0.0 0.0 0.0
435 1 72.8404983491 54.8365458104 0.0 0.0 0.0 0.0
436 1 76.9424983491 58.7059458104 0.0 0.0 0.0 0.0
437 1 3.62731834907 57.5892458104 0.0 0.0 0.0 0.0
438 1 8.45741834907 56.1191458104 0.0 0.0 0.0 0.0
439 1 13.2693983491 57.3856458104 0.0 0.0 0.0 0.0
440 1 18.4557983491 58.0394458104 0.0 0.0 0.0 0.0
441 1 25.6830983491 58.6536458104 0.0 0.0 0.0 0.0
442 1 29.5431983491 57.8143458104 0.0 0.0 0.0 0.0
443 1 35.3367983491 57.4086458104 0.0 0.0 0.0 0.0
444 1 40.4808983491 56.3121458104 0.0 0.0 0.0 0.0
445 1 45.9299983491 57.3677458104 0.0 0.0 0.0 0.0
446 1 51.4121983491 57.5203458104 0.0 0.0 0.0 0.0
447 1 57.5370983491 57.8766458104 0.0 0.0 0.0 0.0
448 1 60.3360983491 56.7781458104 0.0 0.0 0.0 0.0
449 1 67.5129983491 59.7213458104 0.0 0.0 0.0 0.0
450 1 73.8295983491 60.5861458104 0.0 0.0 0.0 0.0
451 1 2.49188834907 62.8496458104 0.0 0.0 0.0 0.0
452 1 7.23308834907 61.6689458104 0.0 0.0 0.0 0.0
453 1 11.7790983491 59.9937458104 0.0 0.0 0.0 0.0
454 1 16.1840983491 62.8580458104 0.0 0.0 0.0 0.0
455 1 21.3580983491 62.0185458104 0.0 0.0 0.0 0.0
456 1 26.9666983491 61.4031458104 0.0 0.0 0.0 0.0
457 1 32.7240983491 61.7623458104 0.0 0.0 0.0 0.0
458 1 38.0923983491 61.6571458104 0.0 0.0 0.0 0.0
459 1 42.3050983491 61.1222458104 0.0 0.0 0.0 0.0
460 1 49.7791983491 63.0547458104 0.0 0.0 0.0 0.0
461 1 53.8147983491 62.3025458104 0.0 0.0 0.0 0.0
462 1 58.2361983491 62.8223458104 0.0 0.0 0.0 0.0
463 1 63.7169983491 63.3756458104 0.0 0.0 0.0 0.0
464 1 69.0706983491 62.2835458104 0.0 0.0 0.0 0.0
465 1 75.2575983491 63.2449458104 0.0 0.0 0.0 0.0
466 1 77.8964983491 67.5502458104 0.0 0.0 0.0 0.0
467 1 5.42152834907 66.5495458104 0.0 0.0 0.0 0.0
468 1 10.1188983491 66.6357458104 0.0 0.0 0.0 0.0
469 1 15.3300983491 67.5347458104 0.0 0.0 0.0 0.0
470 1 20.5247983491 64.9197458104 0.0 0.0 0.0 0.0
471 1 26.6251983491 67.2648458104 0.0 0.0 0.0 0.0
472 1 30.0772983491 65.7644458104 0.0 0.0 0.0 0.0
473 1 35.4402983491 66.3090458104 0.0 0.0 0.0 0.0
474 1 40.3578983491 66.4526458104 0.0 0.0 0.0 0.0
475 1 45.0426983491 65.1349458104 0.0 0.0 0.0 0.0
476 1 50.5277983491 65.9718458104 0.0 0.0 0.0 0.0
477 1 55.8334983491 67.1057458104 0.0 0.0 0.0 0.0
478 1 61.1655983491 67.1823458104 0.0 0.0 0.0 0.0
479 1 67.0071983491 66.8851458104 0.0 0.0 0.0 0.0
480 1 72.1194983491 66.8712458104 0.0 0.0 0.0 0.0
481 1 3.12390834907 72.0625458104 0.0 0.0 0.0 0.0
482 1 6.10988834907 71.9424458104 0.0 0.0 0.0 0.0
483 1 14.2299983491 73.1698458104 0.0 0.0 0.0 0.0
484 1 18.2248983491 72.1630458104 0.0 0.0 0.0 0.0
485 1 23.4303983491 71.9522458104 0.0 0.0 0.0 0.0
486 1 29.2747983491 68.6510458104 0.0 0.0 0.0 0.0
487 1 33.2991983491 71.1980458104 0.0 0.0 0.0 0.0
488 1 38.2853983491 70.7077458104 0.0 0.0 0.0 0.0
489 1 43.8487983491 70.3671458104 0.0 0.0 0.0 0.0
490 1 48.7238983491 68.3900458104 0.0 0.0 0.0 0.0
491 1 54.3306983491 71.7250458104 0.0 0.0 0.0 0.0
492 1 59.7727983491 69.8359458104 0.0 0.0 0.0 0.0
493 1 65.1506983491 71.7439458104 0.0 0.0 0.0 0.0
494 1 70.4956983491 69.4211458104 0.0 0.0 0.0 0.0
495 1 77.4228983491 73.3480458104 0.0 0.0 0.0 0.0
496 1 0.528568349071 76.1716458104 0.0 0.0 0.0 0.0
497 1 5.72589834907 76.8229458104 0.0 0.0 0.0 0.0
498 1 10.5200983491 75.3721458104 0.0 0.0 0.0 0.0
499 1 15.4997983491 75.9398458104 0.0 0.0 0.0 0.0
500 1 21.2336983491 76.2895458104 0.0 0.0 0.0 0.0
501 1 26.8761983491 75.6689458104 0.0 0.0 0.0 0.0
502 1 32.2280983491 75.9846458104 0.0 0.0 0.0 0.0
503 1 37.4193983491 73.5787458104 0.0 0.0 0.0 0.0
504 1 42.0510983491 76.4218458104 0.0 0.0 0.0 0.0
505 1 44.9693983491 75.5674458104 0.0 0.0 0.0 0.0
506 1 52.0668983491 75.2728458104 0.0 0.0 0.0 0.0
507 1 57.8583983491 75.5252458104 0.0 0.0 0.0 0.0
508 1 62.7464983491 76.2966458104 0.0 0.0 0.0 0.0
509 1 67.9195983491 76.2256458104 0.0 0.0 0.0 0.0
510 1 73.2523983491 76.2009458104 0.0 0.0 0.0 0.0
511 1 6.52489834907 79.7201458104 0.0 0.0 0.0 0.0
512 1 11.3686983491 78.3110458104 0.0 0.0 0.0 0.0
513 1 15.9739983491 81.3776458104 0.0 0.0 0.0 0.0
514 1 21.3923983491 79.2966458104 0.0 0.0 0.0 0.0
515 1 27.1521983491 78.6648458104 0.0 0.0 0.0 0.0
516 1 32.8829983491 78.9332458104 0.0 0.0 0.0 0.0
517 1 37.9092983491 78.8708458104 0.0 0.0 0.0 0.0
518 1 43.2742983491 80.9694458104 0.0 0.0 0.0 0.0
519 1 47.2849983491 77.5242458104 0.0 0.0 0.0 0.0
520 1 52.5334983491 79.7295458104 0.0 0.0 0.0 0.0
521 1 58.2482983491 78.4973458104 0.0 0.0 0.0 0.0
522 1 63.2966983491 81.0808458104 0.0 0.0 0.0 0.0
523 1 68.5158983491 79.1585458104 0.0 0.0 0.0 0.0
524 1 74.0492983491 79.0861458104 0.0 0.0 0.0 0.0
525 1 1.16525834907 79.1340458104 0.0 0.0 0.0 0.0
526 1 3.70701834907 80.8040458104 0.0 0.0 0.0 0.0
527 1 9.41019834907 80.6543458104 0.0 0.0 0.0 0.0
528 1 14.3729983491 78.7675458104 0.0 0.0 0.0 0.0
529 1 19.0159983491 81.1914458104 0.0 0.0 0.0 0.0
530 1 24.3690983491 79.8775458104 0.0 0.0 0.0 0.0
531 1 29.9787983491 79.7760458104 0.0 0.0 0.0 0.0
532 1 35.4242983491 80.6295458104 0.0 0.0 0.0 0.0
533 1 40.8882983491 79.1951458104 0.0 0.0 0.0 0.0
534 1 46.1903983491 80.3209458104 0.0 0.0 0.0 0.0
535 1 50.3042983491 77.6949458104 0.0 0.0 0.0 0.0
536 1 55.5578983491 79.8619458104 0.0 0.0 0.0 0.0
537 1 61.2417983491 78.8914458104 0.0 0.0 0.0 0.0
538 1 66.3158983491 81.1926458104 0.0 0.0 0.0 0.0
539 1 71.3066983491 80.2996458104 0.0 0.0 0.0 0.0
540 1 76.5956983491 80.6882458104 0.0 0.0 0.0 0.0
541 2 3.82027834907 0.330847810396 0.0 0.0 0.0 0.0
542 2 2.65125834907 2.4973558104 0.0 0.0 0.0 0.0
543 2 5.43068834907 2.3855058104 0.0 0.0 0.0 0.0
544 2 9.57399834907 0.189959810396 0.0 0.0 0.0 0.0
545 2 8.21646834907 2.3713558104 0.0 0.0 0.0 0.0
546 2 10.9430983491 2.4676258104 0.0 0.0 0.0 0.0
547 2 15.5082983491 0.857975810396 0.0 0.0 0.0 0.0
548 2 16.4291983491 3.2826258104 0.0 0.0 0.0 0.0
549 2 13.7072983491 2.8264458104 0.0 0.0 0.0 0.0
550 2 21.4765983491 2.6513958104 0.0 0.0 0.0 0.0
551 2 19.6157983491 0.603022810396 0.0 0.0 0.0 0.0
552 2 18.9377983491 2.9829058104 0.0 0.0 0.0 0.0
553 2 23.8144983491 1.9805958104 0.0 0.0 0.0 0.0
554 2 26.2204983491 1.3822758104 0.0 0.0 0.0 0.0
555 2 24.5643983491 81.3716458104 0.0 0.0 0.0 0.0
556 2 30.1213983491 81.2732458104 0.0 0.0 0.0 0.0
557 2 31.5367983491 1.6012158104 0.0 0.0 0.0 0.0
558 2 28.9205983491 1.4275058104 0.0 0.0 0.0 0.0
559 2 35.5318983491 0.175097810396 0.0 0.0 0.0 0.0
560 2 36.8677983491 2.5604358104 0.0 0.0 0.0 0.0
561 2 34.1237983491 2.2674658104 0.0 0.0 0.0 0.0
562 2 42.3311983491 2.8137658104 0.0 0.0 0.0 0.0
563 2 43.2754983491 0.482850810396 0.0 0.0 0.0 0.0
564 2 45.0705983491 1.8715858104 0.0 0.0 0.0 0.0
565 2 46.5158983491 81.7936458104 0.0 0.0 0.0 0.0
566 2 47.8399983491 1.9587558104 0.0 0.0 0.0 0.0
567 2 52.0110983491 81.1451458104 0.0 0.0 0.0 0.0
568 2 50.3791983491 1.4416158104 0.0 0.0 0.0 0.0
569 2 52.8035983491 1.5498758104 0.0 0.0 0.0 0.0
570 2 56.0179983491 81.2991458104 0.0 0.0 0.0 0.0
571 2 57.7382983491 1.4721758104 0.0 0.0 0.0 0.0
572 2 55.2485983491 1.6944858104 0.0 0.0 0.0 0.0
573 2 62.5201983491 0.385301810396 0.0 0.0 0.0 0.0
574 2 63.0034983491 2.6472758104 0.0 0.0 0.0 0.0
575 2 60.3599983491 2.0589158104 0.0 0.0 0.0 0.0
576 2 67.8393983491 2.7167658104 0.0 0.0 0.0 0.0
577 2 67.3341983491 0.327571810396 0.0 0.0 0.0 0.0
578 2 69.9324983491 1.4176958104 0.0 0.0 0.0 0.0
579 2 71.4559983491 81.7902458104 0.0 0.0 0.0 0.0
580 2 72.6294983491 2.2272658104 0.0 0.0 0.0 0.0
581 2 76.5708983491 0.211173810396 0.0 0.0 0.0 0.0
582 2 77.9263983491 2.3816958104 0.0 0.0 0.0 0.0
583 2 75.2310983491 2.4199458104 0.0 0.0 0.0 0.0
584 2 1.02998834907 4.5804758104 0.0 0.0 0.0 0.0
585 2 77.5648983491 6.8609658104 0.0 0.0 0.0 0.0
586 2 2.24065834907 6.6785558104 0.0 0.0 0.0 0.0
587 2 6.60345834907 4.5103358104 0.0 0.0 0.0 0.0
588 2 7.58656834907 6.8548358104 0.0 0.0 0.0 0.0
589 2 4.96596834907 6.6565158104 0.0 0.0 0.0 0.0
590 2 11.8672983491 4.7845258104 0.0 0.0 0.0 0.0
591 2 12.7855983491 7.1230658104 0.0 0.0 0.0 0.0
592 2 10.1745983491 7.0189158104 0.0 0.0 0.0 0.0
593 2 18.2152983491 7.4531258104 0.0 0.0 0.0 0.0
594 2 18.6408983491 5.2717858104 0.0 0.0 0.0 0.0
595 2 20.8885983491 7.2017558104 0.0 0.0 0.0 0.0
596 2 23.4902983491 6.8396458104 0.0 0.0 0.0 0.0
597 2 23.6764983491 4.4650558104 0.0 0.0 0.0 0.0
598 2 26.0685983491 5.5548658104 0.0 0.0 0.0 0.0
599 2 27.4997983491 3.5456658104 0.0 0.0 0.0 0.0
600 2 29.0745983491 5.1229158104 0.0 0.0 0.0 0.0