ITEM: TIMESTEP
0
ITEM: NUMBER OF ATOMS
1350
ITEM: BOX BOUNDS xy xz yz pp pp pp
0.0 77.0410774097 0
0.0 82.808040372 0
-10.0 10.0 0
ITEM: ATOMS id type x y z vx vy vz
1 1 1.4723364817 2.21621018599 0.0 0.0 0.0 0.0
2 1 7.0303064817 0.862450185988 0.0 0.0 0.0 0.0
3 1 10.9327764817 2.39713018599 0.0 0.0 0.0 0.0
4 1 16.0548764817 1.26684018599 0.0 0.0 0.0 0.0
5 1 20.6820764817 1.17868918599 0.0 0.0 0.0 0.0
6 1 25.9859764817 1.55211018599 0.0 0.0 0.0 0.0
7 1 33.4286764817 1.99676018599 0.0 0.0 0.0 0.0
8 1 38.8052764817 2.19273018599 0.0 0.0 0.0 0.0
9 1 43.9522764817 2.19293018599 0.0 0.0 0.0 0.0
10 1 49.3948764817 1.54822018599 0.0 0.0 0.0 0.0
11 1 54.9844764817 1.68319018599 0.0 0.0 0.0 0.0
12 1 60.1944764817 1.81180018599 0.0 0.0 0.0 0.0
13 1 65.5288764817 1.08047118599 0.0 0.0 0.0 0.0
14 1 68.5805764817 1.10159018599 0.0 0.0 0.0 0.0
15 1 73.1930764817 1.10057718599 0.0 0.0 0.0 0.0
16 1 75.5323764817 5.89109018599 0.0 0.0 0.0 0.0
17 1 3.0808064817 4.76644018599 0.0 0.0 0.0 0.0
18 1 10.8820764817 6.62677018599 0.0 0.0 0.0 0.0
19 1 13.8692764817 6.21755018599 0.0 0.0 0.0 0.0
20 1 18.9516764817 6.08580018599 0.0 0.0 0.0 0.0
21 1 24.1556764817 7.56689018599 0.0 0.0 0.0 0.0
22 1 28.1429764817 3.66398018599 0.0 0.0 0.0 0.0
23 1 35.3129764817 6.28509018599 0.0 0.0 0.0 0.0
24 1 40.6380764817 6.66654018599 0.0 0.0 0.0 0.0
25 1 48.5736764817 5.55285018599 0.0 0.0 0.0 0.0
26 1 51.5825764817 5.66645018599 0.0 0.0 0.0 0.0
27 1 56.8640764817 6.24863018599 0.0 0.0 0.0 0.0
28 1 61.7053764817 8.23510018599 0.0 0.0 0.0 0.0
29 1 66.1907764817 7.33928018599 0.0 0.0 0.0 0.0
30 1 72.5035764817 5.72086018599 0.0 0.0 0.0 0.0
31 1 1.9135864817 10.171260186 0.0 0.0 0.0 0.0
32 1 7.4708264817 11.345320186 0.0 0.0 0.0 0.0
33 1 12.1950764817 11.082320186 0.0 0.0 0.0 0.0
34 1 16.4653764817 13.243720186 0.0 0.0 0.0 0.0
35 1 25.2119764817 10.375920186 0.0 0.0 0.0 0.0
36 1 27.9766764817 9.23138018599 0.0 0.0 0.0 0.0
37 1 32.6627764817 9.75367018599 0.0 0.0 0.0 0.0
38 1 37.5295764817 10.777120186 0.0 0.0 0.0 0.0
39 1 41.5485764817 9.52710018599 0.0 0.0 0.0 0.0
40 1 48.3279764817 10.816920186 0.0 0.0 0.0 0.0
41 1 53.7443764817 10.362620186 0.0 0.0 0.0 0.0
42 1 58.6422764817 11.645620186 0.0 0.0 0.0 0.0
43 1 62.3282764817 11.205420186 0.0 0.0 0.0 0.0
44 1 67.5312764817 14.337520186 0.0 0.0 0.0 0.0
45 1 73.6336764817 11.248020186 0.0 0.0 0.0 0.0
46 1 76.7887764817 15.074520186 0.0 0.0 0.0 0.0
47 1 4.4404364817 14.845920186 0.0 0.0 0.0 0.0
48 1 9.9583764817 16.053020186 0.0 0.0 0.0 0.0
49 1 15.0605764817 15.920520186 0.0 0.0 0.0 0.0
50 1 19.3044764817 16.742020186 0.0 0.0 0.0 0.0
51 1 22.4028764817 14.090120186 0.0 0.0 0.0 0.0
52 1 30.2358764817 14.329220186 0.0 0.0 0.0 0.0
53 1 35.2585764817 14.893020186 0.0 0.0 0.0 0.0
54 1 40.1395764817 15.200320186 0.0 0.0 0.0 0.0
55 1 44.9093764817 15.228220186 0.0 0.0 0.0 0.0
56 1 50.2434764817 14.682120186 0.0 0.0 0.0 0.0
57 1 55.6558764817 15.549620186 0.0 0.0 0.0 0.0
58 1 61.1055764817 16.869420186 0.0 0.0 0.0 0.0
59 1 66.1204764817 16.962920186 0.0 0.0 0.0 0.0
60 1 70.2237764817 15.623820186 0.0 0.0 0.0 0.0
61 1 1.7596664817 19.859220186 0.0 0.0 0.0 0.0
62 1 7.1857664817 19.425820186 0.0 0.0 0.0 0.0
63 1 12.6648764817 20.573120186 0.0 0.0 0.0 0.0
64 1 17.7880764817 21.190120186 0.0 0.0 0.0 0.0
65 1 23.0718764817 19.942020186 0.0 0.0 0.0 0.0
66 1 28.1289764817 18.464420186 0.0 0.0 0.0 0.0
67 1 33.0510764817 19.192820186 0.0 0.0 0.0 0.0
68 1 38.0118764817 19.805620186 0.0 0.0 0.0 0.0
69 1 42.4313764817 20.045820186 0.0 0.0 0.0 0.0
70 1 47.3617764817 19.249320186 0.0 0.0 0.0 0.0
71 1 52.3499764817 19.237120186 0.0 0.0 0.0 0.0
72 1 56.9687764817 18.248320186 0.0 0.0 0.0 0.0
73 1 63.9833764817 21.566920186 0.0 0.0 0.0 0.0
74 1 68.9908764817 21.239920186 0.0 0.0 0.0 0.0
75 1 73.6407764817 19.786020186 0.0 0.0 0.0 0.0
76 1 76.4917764817 24.361620186 0.0 0.0 0.0 0.0
77 1 2.9391664817 22.644220186 0.0 0.0 0.0 0.0
78 1 9.2207764817 26.543720186 0.0 0.0 0.0 0.0
79 1 13.5133764817 23.465820186 0.0 0.0 0.0 0.0
80 1 21.2398764817 24.755820186 0.0 0.0 0.0 0.0
81 1 26.3884764817 23.523220186 0.0 0.0 0.0 0.0
82 1 30.9823764817 23.451220186 0.0 0.0 0.0 0.0
83 1 35.7652764817 24.127420186 0.0 0.0 0.0 0.0
84 1 40.4696764817 24.989920186 0.0 0.0 0.0 0.0
85 1 46.6385764817 23.872120186 0.0 0.0 0.0 0.0
86 1 49.6299764817 23.844320186 0.0 0.0 0.0 0.0
87 1 54.8720764817 23.503520186 0.0 0.0 0.0 0.0
88 1 59.6297764817 22.620420186 0.0 0.0 0.0 0.0
89 1 66.6342764817 26.051520186 0.0 0.0 0.0 0.0
90 1 71.3086764817 25.214920186 0.0 0.0 0.0 0.0
91 1 3.1832264817 28.458420186 0.0 0.0 0.0 0.0
92 1 7.8495364817 29.207920186 0.0 0.0 0.0 0.0
93 1 13.1641764817 29.020020186 0.0 0.0 0.0 0.0
94 1 18.1124764817 29.010020186 0.0 0.0 0.0 0.0
95 1 25.7112764817 28.048420186 0.0 0.0 0.0 0.0
96 1 28.7035764817 28.415920186 0.0 0.0 0.0 0.0
97 1 33.4272764817 28.543220186 0.0 0.0 0.0 0.0
98 1 37.4509764817 31.861520186 0.0 0.0 0.0 0.0
99 1 42.9247764817 30.055620186 0.0 0.0 0.0 0.0
100 1 47.8730764817 28.736820186 0.0 0.0 0.0 0.0
101 1 53.3344764817 27.925520186 0.0 0.0 0.0 0.0
102 1 57.5528764817 30.357020186 0.0 0.0 0.0 0.0
103 1 63.2848764817 29.737420186 0.0 0.0 0.0 0.0
104 1 69.3842764817 30.529320186 0.0 0.0 0.0 0.0
105 1 75.0443764817 29.052020186 0.0 0.0 0.0 0.0
106 1 0.114446481701 35.982520186 0.0 0.0 0.0 0.0
107 1 5.2489064817 33.749220186 0.0 0.0 0.0 0.0
108 1 10.3919764817 33.472620186 0.0 0.0 0.0 0.0
109 1 15.8291764817 33.718020186 0.0 0.0 0.0 0.0
110 1 19.9734764817 33.724820186 0.0 0.0 0.0 0.0
111 1 25.0364764817 32.442620186 0.0 0.0 0.0 0.0
112 1 30.8533764817 33.393520186 0.0 0.0 0.0 0.0
113 1 36.2452764817 34.638020186 0.0 0.0 0.0 0.0
114 1 41.4021764817 34.651220186 0.0 0.0 0.0 0.0
115 1 47.9765764817 33.042320186 0.0 0.0 0.0 0.0
116 1 50.9447764817 32.546620186 0.0 0.0 0.0 0.0
117 1 56.0710764817 32.980320186 0.0 0.0 0.0 0.0
118 1 61.0893764817 33.828420186 0.0 0.0 0.0 0.0
119 1 64.6979764817 32.428420186 0.0 0.0 0.0 0.0
120 1 71.2127764817 32.918520186 0.0 0.0 0.0 0.0
121 1 3.2981164817 38.922720186 0.0 0.0 0.0 0.0
122 1 9.6602764817 37.640520186 0.0 0.0 0.0 0.0
123 1 12.6806764817 37.791020186 0.0 0.0 0.0 0.0
124 1 18.1194764817 38.928620186 0.0 0.0 0.0 0.0
125 1 24.3178764817 37.054320186 0.0 0.0 0.0 0.0
126 1 27.1952764817 36.287320186 0.0 0.0 0.0 0.0
127 1 31.3326764817 36.408320186 0.0 0.0 0.0 0.0
128 1 38.3097764817 39.124620186 0.0 0.0 0.0 0.0
129 1 43.6611764817 39.010720186 0.0 0.0 0.0 0.0
130 1 48.6883764817 38.398920186 0.0 0.0 0.0 0.0
131 1 53.7243764817 37.336620186 0.0 0.0 0.0 0.0
132 1 59.0307764817 37.863620186 0.0 0.0 0.0 0.0
133 1 64.4454764817 38.246920186 0.0 0.0 0.0 0.0
134 1 69.8249764817 38.419920186 0.0 0.0 0.0 0.0
135 1 75.2216764817 38.309320186 0.0 0.0 0.0 0.0
136 1 76.7061764817 43.026120186 0.0 0.0 0.0 0.0
137 1 5.0790964817 43.837320186 0.0 0.0 0.0 0.0
138 1 10.3943764817 42.772120186 0.0 0.0 0.0 0.0
139 1 15.7819764817 43.800820186 0.0 0.0 0.0 0.0
140 1 21.5738764817 43.189820186 0.0 0.0 0.0 0.0
141 1 26.9196764817 40.629020186 0.0 0.0 0.0 0.0
142 1 29.6940764817 45.063920186 0.0 0.0 0.0 0.0
143 1 35.1338764817 42.812020186 0.0 0.0 0.0 0.0
144 1 41.0484764817 43.397120186 0.0 0.0 0.0 0.0
145 1 46.5283764817 43.280820186 0.0 0.0 0.0 0.0
146 1 51.9910764817 42.381620186 0.0 0.0 0.0 0.0
147 1 57.1032764817 41.863220186 0.0 0.0 0.0 0.0
148 1 61.5419764817 44.645320186 0.0 0.0 0.0 0.0
149 1 67.0924764817 42.841620186 0.0 0.0 0.0 0.0
150 1 73.6862764817 42.655620186 0.0 0.0 0.0 0.0
151 1 2.1677464817 47.745920186 0.0 0.0 0.0 0.0
152 1 7.9419864817 47.647820186 0.0 0.0 0.0 0.0
153 1 15.6811764817 46.780120186 0.0 0.0 0.0 0.0
154 1 18.6383764817 47.179820186 0.0 0.0 0.0 0.0
155 1 23.5673764817 47.727720186 0.0 0.0 0.0 0.0
156 1 28.9725764817 48.001420186 0.0 0.0 0.0 0.0
157 1 33.5656764817 47.578220186 0.0 0.0 0.0 0.0
158 1 38.6818764817 46.681920186 0.0 0.0 0.0 0.0
159 1 44.2607764817 47.599520186 0.0 0.0 0.0 0.0
160 1 49.7768764817 46.998920186 0.0 0.0 0.0 0.0
161 1 55.3168764817 46.649820186 0.0 0.0 0.0 0.0
162 1 60.2440764817 47.376520186 0.0 0.0 0.0 0.0
163 1 64.8613764817 47.495520186 0.0 0.0 0.0 0.0
164 1 68.6436764817 50.637520186 0.0 0.0 0.0 0.0
165 1 73.6040764817 48.068920186 0.0 0.0 0.0 0.0
166 1 76.9925764817 52.097720186 0.0 0.0 0.0 0.0
167 1 5.2929664817 51.648320186 0.0 0.0 0.0 0.0
168 1 10.7123764817 51.920420186 0.0 0.0 0.0 0.0
169 1 15.9297764817 51.062820186 0.0 0.0 0.0 0.0
170 1 20.5248764817 54.053220186 0.0 0.0 0.0 0.0
171 1 26.0161764817 52.203420186 0.0 0.0 0.0 0.0
172 1 31.7344764817 52.720020186 0.0 0.0 0.0 0.0
173 1 38.4089764817 50.822820186 0.0 0.0 0.0 0.0
174 1 41.3917764817 51.129320186 0.0 0.0 0.0 0.0
175 1 45.7363764817 50.242520186 0.0 0.0 0.0 0.0
176 1 54.0131764817 52.532420186 0.0 0.0 0.0 0.0
177 1 56.9255764817 51.679220186 0.0 0.0 0.0 0.0
178 1 61.9016764817 52.326220186 0.0 0.0 0.0 0.0
179 1 67.1109764817 53.264520186 0.0 0.0 0.0 0.0
180 1 72.1051764817 53.379820186 0.0 0.0 0.0 0.0
181 1 3.5693064817 56.154520186 0.0 0.0 0.0 0.0
182 1 8.3890264817 56.047220186 0.0 0.0 0.0 0.0
183 1 13.7494764817 55.874820186 0.0 0.0 0.0 0.0
184 1 19.2193764817 56.780220186 0.0 0.0 0.0 0.0
185 1 24.6952764817 56.741020186 0.0 0.0 0.0 0.0
186 1 29.1237764817 58.774520186 0.0 0.0 0.0 0.0
187 1 36.0325764817 56.692820186 0.0 0.0 0.0 0.0
188 1 38.9869764817 56.132920186 0.0 0.0 0.0 0.0
189 1 44.1546764817 55.742820186 0.0 0.0 0.0 0.0
190 1 50.0470764817 56.519420186 0.0 0.0 0.0 0.0
191 1 54.6224764817 57.698520186 0.0 0.0 0.0 0.0
192 1 59.4344764817 56.725520186 0.0 0.0 0.0 0.0
193 1 63.9506764817 59.361020186 0.0 0.0 0.0 0.0
194 1 69.5936764817 58.029820186 0.0 0.0 0.0 0.0
195 1 75.3824764817 57.321720186 0.0 0.0 0.0 0.0
196 1 1.8306264817 60.983920186 0.0 0.0 0.0 0.0
197 1 6.7884064817 60.814420186 0.0 0.0 0.0 0.0
198 1 11.7664764817 60.223920186 0.0 0.0 0.0 0.0
199 1 16.5639764817 62.427420186 0.0 0.0 0.0 0.0
200 1 20.5505764817 59.484120186 0.0 0.0 0.0 0.0
201 1 27.8083764817 61.469720186 0.0 0.0 0.0 0.0
202 1 32.0664764817 62.361220186 0.0 0.0 0.0 0.0
203 1 36.9105764817 61.770120186 0.0 0.0 0.0 0.0
204 1 41.6931764817 60.630120186 0.0 0.0 0.0 0.0
205 1 46.7680764817 59.795620186 0.0 0.0 0.0 0.0
206 1 51.7530764817 61.896520186 0.0 0.0 0.0 0.0
207 1 57.1183764817 62.051120186 0.0 0.0 0.0 0.0
208 1 64.0793764817 62.369720186 0.0 0.0 0.0 0.0
209 1 67.0798764817 62.415520186 0.0 0.0 0.0 0.0
210 1 71.2190764817 60.572120186 0.0 0.0 0.0 0.0
211 1 4.3236464817 65.595020186 0.0 0.0 0.0 0.0
212 1 9.8807764817 65.156420186 0.0 0.0 0.0 0.0
213 1 15.3467764817 65.153120186 0.0 0.0 0.0 0.0
214 1 20.3335764817 65.235320186 0.0 0.0 0.0 0.0
215 1 25.1711764817 65.204720186 0.0 0.0 0.0 0.0
216 1 30.1983764817 66.827020186 0.0 0.0 0.0 0.0
217 1 35.4209764817 66.651320186 0.0 0.0 0.0 0.0
218 1 39.1530764817 68.516720186 0.0 0.0 0.0 0.0
219 1 47.4885764817 66.866020186 0.0 0.0 0.0 0.0
220 1 46.4984764817 64.017720186 0.0 0.0 0.0 0.0
221 1 52.9555764817 66.109720186 0.0 0.0 0.0 0.0
222 1 58.0810764817 66.872320186 0.0 0.0 0.0 0.0
223 1 64.0761764817 67.335620186 0.0 0.0 0.0 0.0
224 1 71.0971764817 66.104320186 0.0 0.0 0.0 0.0
225 1 76.6604764817 65.310220186 0.0 0.0 0.0 0.0
226 1 1.5825564817 70.368220186 0.0 0.0 0.0 0.0
227 1 6.8305864817 69.478720186 0.0 0.0 0.0 0.0
228 1 14.0858764817 69.036820186 0.0 0.0 0.0 0.0
229 1 17.0037764817 69.733620186 0.0 0.0 0.0 0.0
230 1 23.5656764817 69.890520186 0.0 0.0 0.0 0.0
231 1 26.5473764817 70.292120186 0.0 0.0 0.0 0.0
232 1 31.8305764817 71.108420186 0.0 0.0 0.0 0.0
233 1 37.0860764817 70.740120186 0.0 0.0 0.0 0.0
234 1 41.5590764817 71.963820186 0.0 0.0 0.0 0.0
235 1 45.9428764817 71.620520186 0.0 0.0 0.0 0.0
236 1 50.7247764817 70.778620186 0.0 0.0 0.0 0.0
237 1 55.5104764817 70.979720186 0.0 0.0 0.0 0.0
238 1 59.2848764817 69.626520186 0.0 0.0 0.0 0.0
239 1 66.1125764817 69.599220186 0.0 0.0 0.0 0.0
240 1 73.8042764817 69.715120186 0.0 0.0 0.0 0.0
241 1 5.7583164817 76.682120186 0.0 0.0 0.0 0.0
242 1 9.2590764817 73.910420186 0.0 0.0 0.0 0.0
243 1 12.2139764817 74.466520186 0.0 0.0 0.0 0.0
244 1 17.4743764817 75.168120186 0.0 0.0 0.0 0.0
245 1 22.6060764817 74.838420186 0.0 0.0 0.0 0.0
246 1 27.8858764817 74.923120186 0.0 0.0 0.0 0.0
247 1 35.1053764817 75.355720186 0.0 0.0 0.0 0.0
248 1 38.0291764817 76.059320186 0.0 0.0 0.0 0.0
249 1 43.2795764817 76.732020186 0.0 0.0 0.0 0.0
250 1 48.6017764817 75.952420186 0.0 0.0 0.0 0.0
251 1 53.8579764817 75.592020186 0.0 0.0 0.0 0.0
252 1 58.9768764817 75.300020186 0.0 0.0 0.0 0.0
253 1 64.1679764817 74.952320186 0.0 0.0 0.0 0.0
254 1 69.3659764817 74.148420186 0.0 0.0 0.0 0.0
255 1 74.7302764817 74.617020186 0.0 0.0 0.0 0.0
256 1 75.6041764817 2.89451018599 0.0 0.0 0.0 0.0
257 1 5.8994264817 3.66301018599 0.0 0.0 0.0 0.0
258 1 9.7958764817 82.460220186 0.0 0.0 0.0 0.0
259 1 13.8019764817 3.22653018599 0.0 0.0 0.0 0.0
260 1 18.4073764817 3.12998018599 0.0 0.0 0.0 0.0
261 1 23.2168764817 2.79065018599 0.0 0.0 0.0 0.0
262 1 31.1455764817 3.97855018599 0.0 0.0 0.0 0.0
263 1 36.0693764817 3.40710018599 0.0 0.0 0.0 0.0
264 1 41.3798764817 3.75216018599 0.0 0.0 0.0 0.0
265 1 46.8300764817 3.10817018599 0.0 0.0 0.0 0.0
266 1 52.1626764817 2.72925018599 0.0 0.0 0.0 0.0
267 1 57.5457764817 3.29720018599 0.0 0.0 0.0 0.0
268 1 63.5747764817 5.84453018599 0.0 0.0 0.0 0.0
269 1 63.0575764817 2.85770018599 0.0 0.0 0.0 0.0
270 1 70.9219764817 3.07778018599 0.0 0.0 0.0 0.0
271 1 1.2456364817 7.19285018599 0.0 0.0 0.0 0.0
272 1 8.7850064817 4.49065018599 0.0 0.0 0.0 0.0
273 1 9.7275764817 9.37327018599 0.0 0.0 0.0 0.0
274 1 16.4401764817 7.79054018599 0.0 0.0 0.0 0.0
275 1 21.9332764817 5.54354018599 0.0 0.0 0.0 0.0
276 1 26.9398764817 6.42338018599 0.0 0.0 0.0 0.0
277 1 32.3586764817 6.75084018599 0.0 0.0 0.0 0.0
278 1 37.8740764817 7.80534018599 0.0 0.0 0.0 0.0
279 1 44.5170764817 9.65953018599 0.0 0.0 0.0 0.0
280 1 47.0601764817 8.11942018599 0.0 0.0 0.0 0.0
281 1 54.0634764817 7.36939018599 0.0 0.0 0.0 0.0
282 1 58.7387764817 8.61602018599 0.0 0.0 0.0 0.0
283 1 65.1019764817 10.131820186 0.0 0.0 0.0 0.0
284 1 68.9329764817 8.60285018599 0.0 0.0 0.0 0.0
285 1 71.9444764817 8.69655018599 0.0 0.0 0.0 0.0
286 1 76.5602764817 12.037920186 0.0 0.0 0.0 0.0
287 1 4.4758264817 11.818120186 0.0 0.0 0.0 0.0
288 1 9.9499764817 13.065620186 0.0 0.0 0.0 0.0
289 1 15.1661764817 10.532220186 0.0 0.0 0.0 0.0
290 1 19.4228764817 13.751520186 0.0 0.0 0.0 0.0
291 1 25.3150764817 13.385320186 0.0 0.0 0.0 0.0
292 1 30.1225764817 11.324920186 0.0 0.0 0.0 0.0
293 1 34.7681764817 11.915420186 0.0 0.0 0.0 0.0
294 1 40.1582764817 12.193420186 0.0 0.0 0.0 0.0
295 1 45.7723764817 12.365920186 0.0 0.0 0.0 0.0
296 1 51.1280764817 11.821520186 0.0 0.0 0.0 0.0
297 1 55.7982764817 12.553520186 0.0 0.0 0.0 0.0
298 1 60.7725764817 13.804220186 0.0 0.0 0.0 0.0
299 1 67.8004764817 11.369620186 0.0 0.0 0.0 0.0
300 1 72.8339764817 14.173420186 0.0 0.0 0.0 0.0
301 1 2.1818664817 16.850220186 0.0 0.0 0.0 0.0
302 1 6.9847264817 16.448320186 0.0 0.0 0.0 0.0
303 1 12.5547764817 17.563820186 0.0 0.0 0.0 0.0
304 1 16.8054764817 18.362820186 0.0 0.0 0.0 0.0
305 1 22.2591764817 17.074620186 0.0 0.0 0.0 0.0
306 1 27.4780764817 15.510420186 0.0 0.0 0.0 0.0
307 1 32.5774764817 16.224020186 0.0 0.0 0.0 0.0
308 1 37.6013764817 16.805120186 0.0 0.0 0.0 0.0
309 1 42.5116764817 17.035020186 0.0 0.0 0.0 0.0
310 1 47.7064764817 16.282020186 0.0 0.0 0.0 0.0
311 1 52.7575764817 16.286420186 0.0 0.0 0.0 0.0
312 1 59.6605764817 19.554020186 0.0 0.0 0.0 0.0
313 1 63.5916764817 18.565220186 0.0 0.0 0.0 0.0
314 1 68.8205764817 18.256020186 0.0 0.0 0.0 0.0
315 1 74.3189764817 16.806520186 0.0 0.0 0.0 0.0
316 1 76.2010764817 21.352120186 0.0 0.0 0.0 0.0
317 1 5.8552064817 22.091220186 0.0 0.0 0.0 0.0
318 1 9.7136764817 21.022620186 0.0 0.0 0.0 0.0
319 1 16.4749764817 23.878920186 0.0 0.0 0.0 0.0
320 1 20.7239764817 21.801420186 0.0 0.0 0.0 0.0
321 1 25.9929764817 20.557420186 0.0 0.0 0.0 0.0
322 1 30.3622764817 20.498520186 0.0 0.0 0.0 0.0
323 1 35.3387764817 21.148720186 0.0 0.0 0.0 0.0
324 1 40.1275764817 21.969920186 0.0 0.0 0.0 0.0
325 1 45.1597764817 21.268320186 0.0 0.0 0.0 0.0
326 1 49.8647764817 20.871120186 0.0 0.0 0.0 0.0
327 1 55.0327764817 20.524420186 0.0 0.0 0.0 0.0
328 1 62.2819764817 24.052520186 0.0 0.0 0.0 0.0
329 1 66.5999764817 23.041920186 0.0 0.0 0.0 0.0
330 1 71.8116764817 22.218420186 0.0 0.0 0.0 0.0
331 1 2.2072464817 25.574020186 0.0 0.0 0.0 0.0
332 1 8.3635764817 23.688120186 0.0 0.0 0.0 0.0
333 1 12.2039764817 26.177620186 0.0 0.0 0.0 0.0
334 1 18.5378764817 26.050220186 0.0 0.0 0.0 0.0
335 1 24.1458764817 25.488520186 0.0 0.0 0.0 0.0
336 1 28.7241764817 25.404520186 0.0 0.0 0.0 0.0
337 1 33.1341764817 25.546920186 0.0 0.0 0.0 0.0
338 1 37.7862764817 26.352520186 0.0 0.0 0.0 0.0
339 1 42.6861764817 27.052420186 0.0 0.0 0.0 0.0
340 1 45.6704764817 26.689320186 0.0 0.0 0.0 0.0
341 1 52.3420764817 25.104520186 0.0 0.0 0.0 0.0
342 1 57.5513764817 24.834920186 0.0 0.0 0.0 0.0
343 1 63.7037764817 26.736820186 0.0 0.0 0.0 0.0
344 1 69.2875764817 27.485720186 0.0 0.0 0.0 0.0
345 1 74.1318764817 26.205520186 0.0 0.0 0.0 0.0
346 1 0.758776481701 30.223220186 0.0 0.0 0.0 0.0
347 1 5.2313364817 30.697620186 0.0 0.0 0.0 0.0
348 1 10.5527764817 30.494320186 0.0 0.0 0.0 0.0
349 1 15.6489764817 30.710720186 0.0 0.0 0.0 0.0
350 1 20.5228764817 30.773520186 0.0 0.0 0.0 0.0
351 1 23.4067764817 29.948720186 0.0 0.0 0.0 0.0
352 1 31.0294764817 30.369820186 0.0 0.0 0.0 0.0
353 1 36.3987764817 29.036420186 0.0 0.0 0.0 0.0
354 1 40.4712764817 31.802820186 0.0 0.0 0.0 0.0
355 1 45.8254764817 30.937820186 0.0 0.0 0.0 0.0
356 1 50.7927764817 29.543220186 0.0 0.0 0.0 0.0
357 1 56.3400764817 27.607520186 0.0 0.0 0.0 0.0
358 1 60.5160764817 30.879520186 0.0 0.0 0.0 0.0
359 1 67.6381764817 32.981620186 0.0 0.0 0.0 0.0
360 1 73.9858764817 31.840020186 0.0 0.0 0.0 0.0
361 1 3.1352264817 35.924320186 0.0 0.0 0.0 0.0
362 1 7.9244564817 35.168720186 0.0 0.0 0.0 0.0
363 1 13.0579764817 34.830220186 0.0 0.0 0.0 0.0
364 1 17.9081764817 35.900420186 0.0 0.0 0.0 0.0
365 1 22.8515764817 34.480920186 0.0 0.0 0.0 0.0
366 1 27.8663764817 33.380320186 0.0 0.0 0.0 0.0
367 1 34.2960764817 36.963420186 0.0 0.0 0.0 0.0
368 1 38.8199764817 36.174020186 0.0 0.0 0.0 0.0
369 1 44.0553764817 36.046620186 0.0 0.0 0.0 0.0
370 1 47.0522764817 35.881720186 0.0 0.0 0.0 0.0
371 1 53.3811764817 34.332020186 0.0 0.0 0.0 0.0
372 1 58.3282764817 34.957720186 0.0 0.0 0.0 0.0
373 1 63.7125764817 35.289120186 0.0 0.0 0.0 0.0
374 1 69.4877764817 35.381620186 0.0 0.0 0.0 0.0
375 1 76.7256764817 33.019520186 0.0 0.0 0.0 0.0
376 1 0.551396481701 40.158220186 0.0 0.0 0.0 0.0
377 1 5.5707164817 40.879320186 0.0 0.0 0.0 0.0
378 1 8.5356964817 40.412720186 0.0 0.0 0.0 0.0
379 1 15.1188764817 39.580020186 0.0 0.0 0.0 0.0
380 1 20.9035764817 40.256220186 0.0 0.0 0.0 0.0
381 1 23.9347764817 39.997920186 0.0 0.0 0.0 0.0
382 1 29.1498764817 38.539020186 0.0 0.0 0.0 0.0
383 1 35.3804764817 39.794720186 0.0 0.0 0.0 0.0
384 1 41.0164764817 40.410520186 0.0 0.0 0.0 0.0
385 1 46.3677764817 40.296120186 0.0 0.0 0.0 0.0
386 1 51.5275764817 39.394420186 0.0 0.0 0.0 0.0
387 1 56.2495764817 38.987920186 0.0 0.0 0.0 0.0
388 1 61.6306764817 39.390820186 0.0 0.0 0.0 0.0
389 1 67.0936764817 39.788520186 0.0 0.0 0.0 0.0
390 1 72.5730764817 39.800020186 0.0 0.0 0.0 0.0
391 1 2.1774564817 44.732920186 0.0 0.0 0.0 0.0
392 1 8.0049764817 44.644720186 0.0 0.0 0.0 0.0
393 1 13.3528764817 42.044320186 0.0 0.0 0.0 0.0
394 1 18.7535764817 44.195120186 0.0 0.0 0.0 0.0
395 1 24.1728764817 44.758320186 0.0 0.0 0.0 0.0
396 1 27.0099764817 43.645820186 0.0 0.0 0.0 0.0
397 1 32.7160764817 44.678320186 0.0 0.0 0.0 0.0
398 1 38.0331764817 43.762520186 0.0 0.0 0.0 0.0
399 1 43.8311764817 44.624020186 0.0 0.0 0.0 0.0
400 1 49.4471764817 44.016920186 0.0 0.0 0.0 0.0
401 1 54.7202764817 43.695520186 0.0 0.0 0.0 0.0
402 1 60.1183764817 42.001320186 0.0 0.0 0.0 0.0
403 1 64.5528764817 44.501420186 0.0 0.0 0.0 0.0
404 1 69.2151764817 45.031220186 0.0 0.0 0.0 0.0
405 1 72.2428764817 45.329020186 0.0 0.0 0.0 0.0
406 1 76.4830764817 49.103920186 0.0 0.0 0.0 0.0
407 1 5.0734564817 48.650320186 0.0 0.0 0.0 0.0
408 1 10.6876764817 48.928120186 0.0 0.0 0.0 0.0
409 1 13.7077764817 48.998820186 0.0 0.0 0.0 0.0
410 1 20.8890764817 49.155120186 0.0 0.0 0.0 0.0
411 1 26.1981764817 49.199320186 0.0 0.0 0.0 0.0
412 1 31.4500764817 49.715220186 0.0 0.0 0.0 0.0
413 1 36.3941764817 48.599920186 0.0 0.0 0.0 0.0
414 1 41.3206764817 48.133720186 0.0 0.0 0.0 0.0
415 1 48.7215764817 49.814120186 0.0 0.0 0.0 0.0
416 1 52.6126764817 47.941220186 0.0 0.0 0.0 0.0
417 1 57.5296764817 48.701420186 0.0 0.0 0.0 0.0
418 1 62.4970764817 49.365520186 0.0 0.0 0.0 0.0
419 1 67.8489764817 47.732720186 0.0 0.0 0.0 0.0
420 1 71.6573764817 50.404820186 0.0 0.0 0.0 0.0
421 1 2.7489964817 53.251620186 0.0 0.0 0.0 0.0
422 1 7.9429564817 53.081920186 0.0 0.0 0.0 0.0
423 1 13.5618764817 52.900120186 0.0 0.0 0.0 0.0
424 1 18.9505764817 51.478320186 0.0 0.0 0.0 0.0
425 1 23.5469764817 53.962920186 0.0 0.0 0.0 0.0
426 1 28.7865764817 53.416720186 0.0 0.0 0.0 0.0
427 1 34.4140764817 54.161620186 0.0 0.0 0.0 0.0
428 1 37.3689764817 53.595120186 0.0 0.0 0.0 0.0
429 1 43.9663764817 52.704320186 0.0 0.0 0.0 0.0
430 1 51.5847764817 50.752120186 0.0 0.0 0.0 0.0
431 1 52.8156764817 55.290120186 0.0 0.0 0.0 0.0
432 1 59.1957764817 53.694620186 0.0 0.0 0.0 0.0
433 1 64.2219764817 54.249620186 0.0 0.0 0.0 0.0
434 1 69.5721764817 55.015420186 0.0 0.0 0.0 0.0
435 1 74.9544764817 54.333520186 0.0 0.0 0.0 0.0
436 1 1.2512764817 58.045120186 0.0 0.0 0.0 0.0
437 1 6.0320064817 57.893520186 0.0 0.0 0.0 0.0
438 1 11.1126764817 57.301420186 0.0 0.0 0.0 0.0
439 1 16.2863764817 57.456420186 0.0 0.0 0.0 0.0
440 1 23.5448764817 59.524920186 0.0 0.0 0.0 0.0
441 1 27.6425764817 56.184820186 0.0 0.0 0.0 0.0
442 1 32.0376764817 59.380020186 0.0 0.0 0.0 0.0
443 1 35.0147764817 59.469920186 0.0 0.0 0.0 0.0
444 1 41.6829764817 57.560320186 0.0 0.0 0.0 0.0
445 1 47.0146764817 56.793920186 0.0 0.0 0.0 0.0
446 1 51.8771764817 58.908520186 0.0 0.0 0.0 0.0
447 1 57.3667764817 58.987020186 0.0 0.0 0.0 0.0
448 1 62.4713764817 56.736420186 0.0 0.0 0.0 0.0
449 1 66.9435764817 59.419520186 0.0 0.0 0.0 0.0
450 1 74.1840764817 60.090120186 0.0 0.0 0.0 0.0
451 1 4.3634364817 62.588220186 0.0 0.0 0.0 0.0
452 1 9.4813764817 62.171520186 0.0 0.0 0.0 0.0
453 1 14.7648764817 60.045320186 0.0 0.0 0.0 0.0
454 1 19.5605764817 62.327020186 0.0 0.0 0.0 0.0
455 1 24.9142764817 62.202320186 0.0 0.0 0.0 0.0
456 1 29.5326764817 63.911920186 0.0 0.0 0.0 0.0
457 1 34.6902764817 63.768520186 0.0 0.0 0.0 0.0
458 1 39.6677764817 62.914220186 0.0 0.0 0.0 0.0
459 1 44.4947764817 61.764120186 0.0 0.0 0.0 0.0
460 1 48.7559764817 62.045020186 0.0 0.0 0.0 0.0
461 1 54.3611764817 63.407820186 0.0 0.0 0.0 0.0
462 1 59.3550764817 64.139820186 0.0 0.0 0.0 0.0
463 1 62.3347764817 64.822920186 0.0 0.0 0.0 0.0
464 1 69.9430764817 63.313820186 0.0 0.0 0.0 0.0
465 1 76.1985764817 62.333320186 0.0 0.0 0.0 0.0
466 1 1.8565164817 67.340620186 0.0 0.0 0.0 0.0
467 1 7.1872864817 66.505620186 0.0 0.0 0.0 0.0
468 1 12.6279764817 66.406420186 0.0 0.0 0.0 0.0
469 1 17.8156764817 66.859920186 0.0 0.0 0.0 0.0
470 1 22.7684764817 66.989820186 0.0 0.0 0.0 0.0
471 1 27.2569764817 67.379120186 0.0 0.0 0.0 0.0
472 1 32.8470764817 68.261320186 0.0 0.0 0.0 0.0
473 1 38.2958764817 65.647220186 0.0 0.0 0.0 0.0
474 1 42.1194764817 69.023520186 0.0 0.0 0.0 0.0
475 1 45.1154764817 68.730220186 0.0 0.0 0.0 0.0
476 1 50.3956764817 67.756920186 0.0 0.0 0.0 0.0
477 1 55.2978764817 67.980520186 0.0 0.0 0.0 0.0
478 1 62.2574764817 69.712020186 0.0 0.0 0.0 0.0
479 1 70.8658764817 69.107320186 0.0 0.0 0.0 0.0
480 1 74.0279764817 66.728820186 0.0 0.0 0.0 0.0
481 1 4.4558464817 71.327320186 0.0 0.0 0.0 0.0
482 1 9.4548764817 70.926120186 0.0 0.0 0.0 0.0
483 1 12.3799764817 71.475420186 0.0 0.0 0.0 0.0
484 1 18.5008764817 72.335620186 0.0 0.0 0.0 0.0
485 1 21.4968764817 72.059720186 0.0 0.0 0.0 0.0
486 1 28.9609764817 72.104520186 0.0 0.0 0.0 0.0
487 1 34.5568764817 72.385020186 0.0 0.0 0.0 0.0
488 1 38.8303764817 73.172220186 0.0 0.0 0.0 0.0
489 1 43.8965764817 73.803720186 0.0 0.0 0.0 0.0
490 1 48.6278764817 72.934720186 0.0 0.0 0.0 0.0
491 1 53.0599764817 72.682720186 0.0 0.0 0.0 0.0
492 1 58.1468764817 72.401920186 0.0 0.0 0.0 0.0
493 1 64.2261764817 71.944120186 0.0 0.0 0.0 0.0
494 1 68.6941764817 71.180420186 0.0 0.0 0.0 0.0
495 1 75.9512764817 71.830020186 0.0 0.0 0.0 0.0
496 1 76.8372764817 76.782520186 0.0 0.0 0.0 0.0
497 1 2.7810164817 77.117820186 0.0 0.0 0.0 0.0
498 1 6.2596764817 73.745220186 0.0 0.0 0.0 0.0
499 1 14.6495764817 76.246020186 0.0 0.0 0.0 0.0
500 1 20.1479764817 76.559520186 0.0 0.0 0.0 0.0
501 1 25.2176764817 76.324020186 0.0 0.0 0.0 0.0
502 1 29.8374764817 77.197220186 0.0 0.0 0.0 0.0
503 1 32.8265764817 77.314920186 0.0 0.0 0.0 0.0
504 1 40.4720764817 77.827620186 0.0 0.0 0.0 0.0
505 1 46.1273764817 77.684320186 0.0 0.0 0.0 0.0
506 1 51.3344764817 77.219420186 0.0 0.0 0.0 0.0
507 1 56.5170764817 77.036520186 0.0 0.0 0.0 0.0
508 1 61.6749764817 76.655320186 0.0 0.0 0.0 0.0
509 1 66.9863764817 76.016320186 0.0 0.0 0.0 0.0
510 1 71.9173764817 75.796920186 0.0 0.0 0.0 0.0
511 1 3.3386464817 80.051920186 0.0 0.0 0.0 0.0
512 1 8.1601964817 78.517820186 0.0 0.0 0.0 0.0
513 1 13.9432764817 79.176220186 0.0 0.0 0.0 0.0
514 1 21.5039764817 79.240120186 0.0 0.0 0.0 0.0
515 1 24.5272764817 79.263820186 0.0 0.0 0.0 0.0
516 1 29.4303764817 80.176320186 0.0 0.0 0.0 0.0
517 1 34.8220764817 82.133720186 0.0 0.0 0.0 0.0
518 1 40.5827764817 80.832720186 0.0 0.0 0.0 0.0
519 1 46.0694764817 80.682020186 0.0 0.0 0.0 0.0
520 1 51.7542764817 80.192520186 0.0 0.0 0.0 0.0
521 1 57.0599764817 80.009520186 0.0 0.0 0.0 0.0
522 1 61.8881764817 79.671420186 0.0 0.0 0.0 0.0
523 1 66.8388764817 79.030020186 0.0 0.0 0.0 0.0
524 1 71.3417764817 78.794020186 0.0 0.0 0.0 0.0
525 1 76.2307764817 79.740820186 0.0 0.0 0.0 0.0
526 1 1.1290764817 82.042120186 0.0 0.0 0.0 0.0
527 1 6.2216564817 80.805920186 0.0 0.0 0.0 0.0
528 1 10.9489764817 79.675920186 0.0 0.0 0.0 0.0
529 1 16.3039764817 81.080520186 0.0 0.0 0.0 0.0
530 1 19.3203764817 81.300420186 0.0 0.0 0.0 0.0
531 1 26.6646764817 81.408320186 0.0 0.0 0.0 0.0
532 1 32.4448764817 80.289620186 0.0 0.0 0.0 0.0
533 1 37.8625764817 82.148620186 0.0 0.0 0.0 0.0
534 1 43.3677764817 82.042520186 0.0 0.0 0.0 0.0
535 1 48.9959764817 81.398120186 0.0 0.0 0.0 0.0
536 1 54.4648764817 81.526420186 0.0 0.0 0.0 0.0
537 1 59.6080764817 81.642020186 0.0 0.0 0.0 0.0
538 1 64.5838764817 81.014220186 0.0 0.0 0.0 0.0
539 1 69.1759764817 80.916120186 0.0 0.0 0.0 0.0
540 1 73.4735764817 80.906720186 0.0 0.0 0.0 0.0
541 2 1.3917664817 0.708785185988 0.0 0.0 0.0 0.0
542 2 2.3244464817 3.45145018599 0.0 0.0 0.0 0.0
543 2 0.00355648170118 2.51218018599 0.0 0.0 0.0 0.0
544 2 6.4671464817 82.275620186 0.0 0.0 0.0 0.0
545 2 8.4257964817 0.278538385988 0.0 0.0 0.0 0.0
546 2 6.3617964817 2.20944018599 0.0 0.0 0.0 0.0
547 2 10.5261764817 0.963657185988 0.0 0.0 0.0 0.0
548 2 12.3717764817 2.78842018599 0.0 0.0 0.0 0.0
549 2 9.8074764817 3.38432018599 0.0 0.0 0.0 0.0
550 2 16.0841764817 82.578520186 0.0 0.0 0.0 0.0
551 2 17.2184764817 2.21654018599 0.0 0.0 0.0 0.0
552 2 14.8784764817 2.19653018599 0.0 0.0 0.0 0.0
553 2 20.0366764817 82.630120186 0.0 0.0 0.0 0.0
554 2 22.0256764817 1.85448018599 0.0 0.0 0.0 0.0
555 2 19.5907764817 2.21043018599 0.0 0.0 0.0 0.0
556 2 26.3236764817 0.0751391859882 0.0 0.0 0.0 0.0
557 2 27.1211764817 2.55630018599 0.0 0.0 0.0 0.0
558 2 24.6033764817 2.17689018599 0.0 0.0 0.0 0.0
559 2 32.2062764817 2.89169018599 0.0 0.0 0.0 0.0
560 2 34.7497764817 2.71065018599 0.0 0.0 0.0 0.0
561 2 34.0336764817 0.617024185988 0.0 0.0 0.0 0.0
562 2 38.3894764817 0.753176185988 0.0 0.0 0.0 0.0
563 2 40.1111764817 2.93223018599 0.0 0.0 0.0 0.0
564 2 37.4605764817 2.86870018599 0.0 0.0 0.0 0.0
565 2 45.3795764817 2.69599018599 0.0 0.0 0.0 0.0
566 2 43.6392764817 0.720620185988 0.0 0.0 0.0 0.0
567 2 42.7025764817 3.03990018599 0.0 0.0 0.0 0.0
568 2 49.2068764817 0.0712151859882 0.0 0.0 0.0 0.0
569 2 50.7963764817 2.09037018599 0.0 0.0 0.0 0.0
570 2 48.0720764817 2.25594018599 0.0 0.0 0.0 0.0
571 2 54.7522764817 0.194602985988 0.0 0.0 0.0 0.0
572 2 56.2725764817 2.46544018599 0.0 0.0 0.0 0.0
573 2 53.5773764817 2.23623018599 0.0 0.0 0.0 0.0
574 2 59.8987764817 0.319030485988 0.0 0.0 0.0 0.0
575 2 61.6222764817 2.33987018599 0.0 0.0 0.0 0.0
576 2 58.8982764817 2.61442018599 0.0 0.0 0.0 0.0
577 2 64.3217764817 2.01136018599 0.0 0.0 0.0 0.0
578 2 65.0254764817 82.456020186 0.0 0.0 0.0 0.0
579 2 67.0497764817 1.22206418599 0.0 0.0 0.0 0.0
580 2 68.9624764817 82.423020186 0.0 0.0 0.0 0.0
581 2 69.6518764817 2.19882018599 0.0 0.0 0.0 0.0
582 2 72.0218764817 2.03899018599 0.0 0.0 0.0 0.0
583 2 74.4342764817 1.95812018599 0.0 0.0 0.0 0.0
584 2 73.2817764817 82.405720186 0.0 0.0 0.0 0.0
585 2 75.5996764817 4.38813018599 0.0 0.0 0.0 0.0
586 2 76.8541764817 6.65297018599 0.0 0.0 0.0 0.0
587 2 74.0165764817 5.88430018599 0.0 0.0 0.0 0.0
588 2 4.5379364817 4.31023018599 0.0 0.0 0.0 0.0
589 2 2.2599764817 6.04323018599 0.0 0.0 0.0 0.0
590 2 10.2158764817 7.96573018599 0.0 0.0 0.0 0.0
591 2 9.7710764817 5.61916018599 0.0 0.0 0.0 0.0
592 2 12.3824764817 6.49800018599 0.0 0.0 0.0 0.0
593 2 13.9384764817 4.71532018599 0.0 0.0 0.0 0.0
594 2 15.1517764817 6.99350018599 0.0 0.0 0.0 0.0
595 2 18.5819764817 4.61823018599 0.0 0.0 0.0 0.0
596 2 20.4670764817 5.94169018599 0.0 0.0 0.0 0.0
597 2 17.7672764817 7.04514018599 0.0 0.0 0.0 0.0
598 2 22.9754764817 6.64014018599 0.0 0.0 0.0 0.0
599 2 25.4977764817 6.86512018599 0.0 0.0 0.0 0.0
600 2 24.4453764817 9.05927018599 0.0 0.0 0.0 0.0
601 2 29.6531764817 3.73552018599 0.0 0.0 0.0 0.0
602 2 27.5321764817 5.04737018599 0.0 0.0 0.0 0.0
603 2 35.7419764817 4.85813018599 0.0 0.0 0.0 0.0
604 2 36.5599764817 7.10266018599 0.0 0.0 0.0 0.0
605 2 33.8507764817 6.53535018599 0.0 0.0 0.0 0.0
606 2 41.0991764817 5.23717018599 0.0 0.0 0.0 0.0
607 2 41.1689764817 8.07524018599 0.0 0.0 0.0 0.0
608 2 39.1994764817 7.11879018599 0.0 0.0 0.0 0.0
609 2 47.7855764817 6.82781018599 0.0 0.0 0.0 0.0