# input file

1350 atoms
2 atom types

0.0 79.0503418633 xlo xhi
0.0 80.2625698266 ylo yhi
-10.0 10.0 zlo zhi
0.0 0.0 0.0 xy xz yz

Masses

1 28.0855 #Si
2 15.9994 #O

Atoms

1 1 3.4964987085 80.1954849133 0.0
2 1 10.6131087085 0.340264913306 0.0
3 1 13.6492087085 0.444594913306 0.0
4 1 19.1917087085 0.580044913306 0.0
5 1 24.4565087085 1.61050491331 0.0
6 1 28.8658087085 2.13657491331 0.0
7 1 34.1310087085 1.99680491331 0.0
8 1 39.9162087085 1.97034491331 0.0
9 1 47.7728087085 1.43361491331 0.0
10 1 50.7805087085 1.60805491331 0.0
11 1 55.9139087085 2.44887491331 0.0
12 1 61.3469087085 2.76224491331 0.0
13 1 69.2499087085 1.35515491331 0.0
14 1 72.2735087085 1.08918491331 0.0
15 1 0.498311708501 0.0477349133063 0.0
16 1 0.825515708501 4.82442491331 0.0
17 1 6.4367387085 6.14362491331 0.0
18 1 9.3897087085 5.43084491331 0.0
19 1 17.4110087085 4.56013491331 0.0
20 1 20.3612087085 5.25874491331 0.0
21 1 26.7578087085 6.85297491331 0.0
22 1 32.2984087085 6.32161491331 0.0
23 1 38.4110087085 7.19181491331 0.0
24 1 41.2548087085 6.15908491331 0.0
25 1 48.2162087085 5.43240491331 0.0
26 1 51.2504087085 5.97544491331 0.0
27 1 58.0198087085 7.01054491331 0.0
28 1 63.0376087085 7.71751491331 0.0
29 1 66.5937087085 5.53522491331 0.0
30 1 74.9505087085 5.65333491331 0.0
31 1 2.8265287085 10.7295849133 0.0
32 1 7.1365787085 11.0663849133 0.0
33 1 12.2210087085 9.62808491331 0.0
34 1 17.1576087085 8.99848491331 0.0
35 1 21.5435087085 8.06580491331 0.0
36 1 28.7231087085 10.6401849133 0.0
37 1 33.5834087085 10.9381849133 0.0
38 1 37.2568087085 11.9200849133 0.0
39 1 42.4890087085 10.8660849133 0.0
40 1 49.5064087085 12.3580849133 0.0
41 1 53.1375087085 8.37742491331 0.0
42 1 60.2566087085 11.9586849133 0.0
43 1 64.7681087085 10.1807849133 0.0
44 1 72.1333087085 9.02278491331 0.0
45 1 79.0489087085 9.65848491331 0.0
46 1 77.7619087085 14.9290849133 0.0
47 1 6.8557487085 15.2113849133 0.0
48 1 9.8140087085 14.6621849133 0.0
49 1 16.7674087085 13.2879849133 0.0
50 1 19.7475087085 13.5981849133 0.0
51 1 25.5678087085 14.5269849133 0.0
52 1 30.4152087085 15.5421849133 0.0
53 1 35.5783087085 18.3178849133 0.0
54 1 40.3700087085 15.6610849133 0.0
55 1 44.7098087085 12.8600849133 0.0
56 1 52.9188087085 14.1810849133 0.0
57 1 57.5092087085 15.1555849133 0.0
58 1 62.0347087085 14.4116849133 0.0
59 1 69.5766087085 13.4646849133 0.0
60 1 74.8329087085 15.6058849133 0.0
61 1 0.208619708501 20.0771849133 0.0
62 1 3.5294187085 18.3548849133 0.0
63 1 13.4467087085 19.0492849133 0.0
64 1 16.3979087085 18.6512849133 0.0
65 1 20.4256087085 16.6085849133 0.0
66 1 24.3015087085 21.7637849133 0.0
67 1 34.5505087085 21.1412849133 0.0
68 1 41.2931087085 19.5103849133 0.0
69 1 44.0912087085 18.4108849133 0.0
70 1 49.5258087085 18.1925849133 0.0
71 1 54.7133087085 19.4709849133 0.0
72 1 58.8212087085 17.8982849133 0.0
73 1 66.4445087085 18.1084849133 0.0
74 1 70.9738087085 19.8534849133 0.0
75 1 74.7779087085 20.9644849133 0.0
76 1 77.4803087085 25.3749849133 0.0
77 1 3.5458287085 24.2391849133 0.0
78 1 8.5400487085 23.6492849133 0.0
79 1 14.1340087085 25.4064849133 0.0
80 1 19.2455087085 22.5601849133 0.0
81 1 26.6902087085 23.5809849133 0.0
82 1 29.6569087085 23.9871849133 0.0
83 1 36.5160087085 25.8060849133 0.0
84 1 39.8657087085 23.6464849133 0.0
85 1 47.5087087085 22.4893849133 0.0
86 1 52.0000087085 25.4247849133 0.0
87 1 57.6249087085 23.6582849133 0.0
88 1 64.6854087085 22.5728849133 0.0
89 1 67.5365087085 23.5831849133 0.0
90 1 72.1147087085 25.5307849133 0.0
91 1 1.5478287085 29.2231849133 0.0
92 1 7.0700287085 28.4383849133 0.0
93 1 12.7702087085 28.1128849133 0.0
94 1 17.4098087085 27.8241849133 0.0
95 1 21.9449087085 26.9066849133 0.0
96 1 26.3201087085 26.5534849133 0.0
97 1 33.4435087085 29.2734849133 0.0
98 1 41.6691087085 28.4950849133 0.0
99 1 44.2219087085 26.9136849133 0.0
100 1 49.5274087085 27.1934849133 0.0
101 1 55.6578087085 28.2205849133 0.0
102 1 61.0926087085 28.0038849133 0.0
103 1 64.0835087085 28.1944849133 0.0
104 1 69.8868087085 29.1205849133 0.0
105 1 75.2767087085 29.7625849133 0.0
106 1 78.5812087085 33.8293849133 0.0
107 1 4.6096987085 32.9418849133 0.0
108 1 9.7429587085 32.2805849133 0.0
109 1 15.0990087085 32.9147849133 0.0
110 1 20.2136087085 32.3402849133 0.0
111 1 25.0425087085 31.7203849133 0.0
112 1 30.1745087085 32.6574849133 0.0
113 1 34.5573087085 32.0624849133 0.0
114 1 41.3935087085 33.7607849133 0.0
115 1 45.8135087085 31.3441849133 0.0
116 1 50.6423087085 29.9551849133 0.0
117 1 56.9598087085 33.5227849133 0.0
118 1 61.8365087085 33.5418849133 0.0
119 1 65.2454087085 31.0442849133 0.0
120 1 72.3441087085 33.7506849133 0.0
121 1 2.7121987085 37.8681849133 0.0
122 1 7.4546987085 37.1468849133 0.0
123 1 12.2625087085 38.5804849133 0.0
124 1 18.0879087085 37.2619849133 0.0
125 1 24.5650087085 36.3429849133 0.0
126 1 27.5720087085 36.6706849133 0.0
127 1 32.5415087085 37.3856849133 0.0
128 1 38.0339087085 38.1139849133 0.0
129 1 44.3436087085 37.0309849133 0.0
130 1 49.1811087085 35.1114849133 0.0
131 1 52.3409087085 38.5936849133 0.0
132 1 60.3288087085 38.0739849133 0.0
133 1 65.2073087085 37.1038849133 0.0
134 1 69.6409087085 37.3751849133 0.0
135 1 73.9262087085 36.3131849133 0.0
136 1 78.1627087085 41.5331849133 0.0
137 1 4.5079787085 42.2883849133 0.0
138 1 11.1752087085 41.4017849133 0.0
139 1 15.6640087085 43.8132849133 0.0
140 1 20.9532087085 41.7313849133 0.0
141 1 25.7117087085 41.6477849133 0.0
142 1 30.4497087085 41.7358849133 0.0
143 1 35.5791087085 41.8921849133 0.0
144 1 40.1348087085 40.2663849133 0.0
145 1 49.4897087085 39.4409849133 0.0
146 1 54.8484087085 40.1785849133 0.0
147 1 58.2048087085 42.5156849133 0.0
148 1 62.9864087085 42.2679849133 0.0
149 1 67.8372087085 42.2792849133 0.0
150 1 72.6265087085 41.8346849133 0.0
151 1 2.0638187085 48.1534849133 0.0
152 1 6.2844287085 44.7462849133 0.0
153 1 13.7006087085 46.0475849133 0.0
154 1 19.1909087085 46.4675849133 0.0
155 1 24.1632087085 46.4078849133 0.0
156 1 28.8804087085 46.6085849133 0.0
157 1 33.8698087085 46.3249849133 0.0
158 1 39.3809087085 45.6414849133 0.0
159 1 45.8639087085 45.0021849133 0.0
160 1 48.8590087085 44.8715849133 0.0
161 1 54.4402087085 45.9723849133 0.0
162 1 61.7809087085 48.4443849133 0.0
163 1 66.0213087085 49.3871849133 0.0
164 1 70.8380087085 46.9164849133 0.0
165 1 76.1589087085 45.7881849133 0.0
166 1 1.1147387085 51.0237849133 0.0
167 1 5.6625787085 50.5278849133 0.0
168 1 10.6733087085 49.2511849133 0.0
169 1 16.3362087085 50.3450849133 0.0
170 1 21.6346087085 51.0710849133 0.0
171 1 25.2650087085 53.8246849133 0.0
172 1 32.6094087085 51.0757849133 0.0
173 1 38.4499087085 49.7086849133 0.0
174 1 41.3839087085 50.4073849133 0.0
175 1 46.8434087085 50.0326849133 0.0
176 1 52.2313087085 49.2267849133 0.0
177 1 56.5363087085 48.1290849133 0.0
178 1 64.3925087085 51.9256849133 0.0
179 1 69.0599087085 52.4109849133 0.0
180 1 74.4258087085 50.5988849133 0.0
181 1 3.3931587085 55.8011849133 0.0
182 1 10.4584087085 53.7142849133 0.0
183 1 13.4740087085 53.6106849133 0.0
184 1 18.4744087085 56.2578849133 0.0
185 1 28.1587087085 54.5371849133 0.0
186 1 31.9518087085 56.4482849133 0.0
187 1 35.9877087085 55.9577849133 0.0
188 1 39.9304087085 54.7573849133 0.0
189 1 43.3345087085 52.7495849133 0.0
190 1 51.0074087085 53.5511849133 0.0
191 1 55.6447087085 56.0579849133 0.0
192 1 60.4987087085 54.2718849133 0.0
193 1 65.2912087085 57.1246849133 0.0
194 1 71.9416087085 55.4971849133 0.0
195 1 76.8015087085 54.7256849133 0.0
196 1 78.6135087085 58.9587849133 0.0
197 1 5.8366287085 61.0505849133 0.0
198 1 12.1201087085 58.4434849133 0.0
199 1 17.5532087085 59.0838849133 0.0
200 1 21.2794087085 57.2723849133 0.0
201 1 28.1904087085 57.5314849133 0.0
202 1 32.9695087085 61.0585849133 0.0
203 1 40.6723087085 59.6285849133 0.0
204 1 43.5360087085 58.6348849133 0.0
205 1 48.7266087085 58.1337849133 0.0
206 1 54.2263087085 58.7089849133 0.0
207 1 59.2535087085 59.5782849133 0.0
208 1 64.1942087085 59.9797849133 0.0
209 1 68.8402087085 60.3026849133 0.0
210 1 73.4362087085 59.5711849133 0.0
211 1 1.7270287085 61.0104849133 0.0
212 1 9.6174087085 63.7776849133 0.0
213 1 14.6459087085 62.8993849133 0.0
214 1 19.8828087085 63.0519849133 0.0
215 1 24.8424087085 63.7433849133 0.0
216 1 29.1936087085 64.1431849133 0.0
217 1 33.9193087085 63.9090849133 0.0
218 1 41.0475087085 64.9284849133 0.0
219 1 47.8886087085 62.5075849133 0.0
220 1 50.9130087085 62.6104849133 0.0
221 1 55.9454087085 63.6829849133 0.0
222 1 61.1760087085 64.5733849133 0.0
223 1 66.1544087085 65.0845849133 0.0
224 1 71.6382087085 64.8280849133 0.0
225 1 76.8452087085 63.5731849133 0.0
226 1 0.907128708501 66.8675849133 0.0
227 1 6.3563187085 66.9943849133 0.0
228 1 13.9857087085 67.3964849133 0.0
229 1 16.9801087085 67.4066849133 0.0
230 1 22.1018087085 67.9855849133 0.0
231 1 26.9025087085 70.7199849133 0.0
232 1 32.0950087085 68.9171849133 0.0
233 1 37.2210087085 69.2951849133 0.0
234 1 43.5120087085 68.5839849133 0.0
235 1 48.8342087085 67.8034849133 0.0
236 1 53.4869087085 67.7224849133 0.0
237 1 57.6412087085 70.8298849133 0.0
238 1 63.2446087085 69.6308849133 0.0
239 1 69.4340087085 69.2341849133 0.0
240 1 76.9686087085 67.4021849133 0.0
241 1 3.6092387085 71.2731849133 0.0
242 1 8.5132087085 71.7309849133 0.0
243 1 13.5787087085 71.8750849133 0.0
244 1 19.1356087085 72.2055849133 0.0
245 1 24.8488087085 72.8938849133 0.0
246 1 29.9121087085 73.9945849133 0.0
247 1 35.1332087085 73.6857849133 0.0
248 1 38.8725087085 71.8033849133 0.0
249 1 46.1917087085 72.4575849133 0.0
250 1 51.0655087085 72.8115849133 0.0
251 1 56.3971087085 73.5862849133 0.0
252 1 61.1317087085 74.1180849133 0.0
253 1 64.8070087085 72.2587849133 0.0
254 1 72.1351087085 73.1187849133 0.0
255 1 77.1119087085 72.2729849133 0.0
256 1 77.9003087085 2.54175491331 0.0
257 1 5.5692587085 2.09726491331 0.0
258 1 8.5610987085 2.53648491331 0.0
259 1 16.3989087085 1.72496491331 0.0
260 1 21.5513087085 2.47343491331 0.0
261 1 26.4160087085 3.86938491331 0.0
262 1 31.5287087085 3.43401491331 0.0
263 1 34.9533087085 4.87550491331 0.0
264 1 42.6134087085 3.44695491331 0.0
265 1 45.7162087085 3.62844491331 0.0
266 1 53.0755087085 3.55735491331 0.0
267 1 58.5382087085 4.00438491331 0.0
268 1 63.6567087085 4.76584491331 0.0
269 1 69.3796087085 4.37273491331 0.0
270 1 74.8858087085 2.64586491331 0.0
271 1 3.8587687085 4.56583491331 0.0
272 1 5.1610787085 8.84554491331 0.0
273 1 12.2006087085 6.62676491331 0.0
274 1 15.2492087085 6.64250491331 0.0
275 1 24.4694087085 8.82649491331 0.0
276 1 29.6352087085 7.77283491331 0.0
277 1 37.8892087085 4.23765491331 0.0
278 1 36.0747087085 9.17318491331 0.0
279 1 43.5493087085 8.07009491331 0.0
280 1 46.5394087085 7.91237491331 0.0
281 1 56.0327087085 9.29948491331 0.0
282 1 60.3194087085 8.94825491331 0.0
283 1 67.2315087085 8.48774491331 0.0
284 1 71.9453087085 6.02447491331 0.0
285 1 77.7188087085 6.93670491331 0.0
286 1 77.1485087085 11.9797849133 0.0
287 1 4.8365187085 12.9830849133 0.0
288 1 10.0558087085 11.6842849133 0.0
289 1 14.9056087085 10.9559849133 0.0
290 1 19.7856087085 10.5325849133 0.0
291 1 25.8419087085 11.5139849133 0.0
292 1 31.0214087085 12.5571849133 0.0
293 1 34.8491087085 13.6615849133 0.0
294 1 40.1246087085 12.6847849133 0.0
295 1 46.9370087085 10.8727849133 0.0
296 1 52.2795087085 11.2551849133 0.0
297 1 57.2599087085 12.1173849133 0.0
298 1 64.7838087085 13.1987849133 0.0
299 1 69.4990087085 10.4554849133 0.0
300 1 74.2532087085 11.1446849133 0.0
301 1 0.777621708501 17.1347849133 0.0
302 1 6.5114887085 18.1825849133 0.0
303 1 12.3464087085 16.2686849133 0.0
304 1 15.3018087085 15.8685849133 0.0
305 1 23.4381087085 16.6441849133 0.0
306 1 27.6049087085 16.7580849133 0.0
307 1 33.3543087085 16.2722849133 0.0
308 1 38.6147087085 18.1036849133 0.0
309 1 43.3711087085 15.5300849133 0.0
310 1 50.1285087085 15.2649849133 0.0
311 1 54.8340087085 16.4737849133 0.0
312 1 61.7867087085 17.4339849133 0.0
313 1 67.0805087085 15.1521849133 0.0
314 1 72.5764087085 13.6328849133 0.0
315 1 73.4998087085 18.2740849133 0.0
316 1 77.3828087085 22.3897849133 0.0
317 1 2.9393587085 21.2921849133 0.0
318 1 8.2025187085 20.6672849133 0.0
319 1 11.1720087085 20.9492849133 0.0
320 1 19.2809087085 19.4770849133 0.0
321 1 25.4223087085 18.9076849133 0.0
322 1 32.5893087085 23.4230849133 0.0
323 1 37.0002087085 22.8536849133 0.0
324 1 42.4908087085 22.2520849133 0.0
325 1 46.8613087085 19.5623849133 0.0
326 1 51.7964087085 20.1553849133 0.0
327 1 57.4843087085 20.6271849133 0.0
328 1 63.8598087085 19.6388849133 0.0
329 1 68.1023087085 20.6169849133 0.0
330 1 72.2626087085 22.5484849133 0.0
331 1 1.2993487085 26.2356849133 0.0
332 1 6.2419787085 25.5574849133 0.0
333 1 11.5280087085 23.9081849133 0.0
334 1 17.1168087085 24.7965849133 0.0
335 1 22.0130087085 23.8221849133 0.0
336 1 29.2693087085 26.9595849133 0.0
337 1 33.5809087085 26.2727849133 0.0
338 1 39.3776087085 26.5889849133 0.0
339 1 44.9225087085 23.9981849133 0.0
340 1 50.4856087085 22.8445849133 0.0
341 1 55.0445087085 25.2781849133 0.0
342 1 60.2882087085 25.1273849133 0.0
343 1 63.3180087085 25.2492849133 0.0
344 1 69.1794087085 26.1663849133 0.0
345 1 74.8406087085 26.8004849133 0.0
346 1 78.0739087085 30.8708849133 0.0
347 1 4.4657087085 29.9544849133 0.0
348 1 9.9702087085 29.2763849133 0.0
349 1 15.1948087085 29.8875849133 0.0
350 1 20.0432087085 29.2815849133 0.0
351 1 24.3194087085 28.7752849133 0.0
352 1 30.4923087085 29.6873849133 0.0
353 1 37.5112087085 32.5117849133 0.0
354 1 40.1255087085 31.0606849133 0.0
355 1 46.7726087085 28.4687849133 0.0
356 1 53.5831087085 30.3764849133 0.0
357 1 57.4964087085 30.5790849133 0.0
358 1 60.4535087085 30.8997849133 0.0
359 1 68.1899087085 31.6035849133 0.0
360 1 72.4422087085 30.7428849133 0.0
361 1 2.3371687085 34.8893849133 0.0
362 1 7.3481187085 34.1344849133 0.0
363 1 12.2393087085 33.9415849133 0.0
364 1 17.8325087085 34.2319849133 0.0
365 1 22.8778087085 33.8046849133 0.0
366 1 27.3671087085 33.6590849133 0.0
367 1 32.6340087085 34.3737849133 0.0
368 1 38.7917087085 35.2180849133 0.0
369 1 44.3645087085 34.0056849133 0.0
370 1 48.6680087085 32.1862849133 0.0
371 1 54.0036087085 33.3373849133 0.0
372 1 59.3936087085 35.2469849133 0.0
373 1 64.7719087085 34.0707849133 0.0
374 1 69.4119087085 34.3676849133 0.0
375 1 76.9221087085 36.3214849133 0.0
376 1 78.8529087085 38.6201849133 0.0
377 1 5.3388287085 39.3510849133 0.0
378 1 10.3582087085 36.3098849133 0.0
379 1 15.2896087085 38.4932849133 0.0
380 1 20.7681087085 38.7528849133 0.0
381 1 23.7895087085 39.2387849133 0.0
382 1 29.8377087085 38.7389849133 0.0
383 1 35.1394087085 38.9188849133 0.0
384 1 43.1087087085 39.7867849133 0.0
385 1 47.3003087085 37.4193849133 0.0
386 1 52.1138087085 35.6330849133 0.0
387 1 57.7584087085 39.5731849133 0.0
388 1 63.0823087085 39.2470849133 0.0
389 1 67.3250087085 39.2762849133 0.0
390 1 72.2768087085 38.8276849133 0.0
391 1 1.6124087085 43.2087849133 0.0
392 1 9.1441487085 43.6888849133 0.0
393 1 14.1764087085 41.2744849133 0.0
394 1 18.6228087085 43.5583849133 0.0
395 1 23.3755087085 43.5105849133 0.0
396 1 28.0836087085 43.6138849133 0.0
397 1 32.9869087085 43.4218849133 0.0
398 1 38.4704087085 42.7699849133 0.0
399 1 45.0282087085 42.1203849133 0.0
400 1 48.0238087085 42.0150849133 0.0
401 1 55.2906087085 43.1207849133 0.0
402 1 60.6637087085 44.1880849133 0.0
403 1 65.3964087085 44.0480849133 0.0
404 1 70.4034087085 43.8944849133 0.0
405 1 75.4624087085 42.8614849133 0.0
406 1 0.134536708501 45.8448849133 0.0
407 1 5.0284087085 47.5498849133 0.0
408 1 10.7156087085 46.2544849133 0.0
409 1 16.3572087085 47.3937849133 0.0
410 1 21.6874087085 48.0848849133 0.0
411 1 26.4164087085 48.3874849133 0.0
412 1 31.5068087085 48.2115849133 0.0
413 1 36.7898087085 47.1883849133 0.0
414 1 41.8297087085 47.4385849133 0.0
415 1 44.8134087085 47.7945849133 0.0
416 1 51.4775087085 46.3353849133 0.0
417 1 59.2626087085 46.8512849133 0.0
418 1 64.3648087085 46.8877849133 0.0
419 1 69.0166087085 49.3697849133 0.0
420 1 73.7783087085 47.6536849133 0.0
421 1 3.5993487085 52.7589849133 0.0
422 1 8.5566387085 51.3752849133 0.0
423 1 13.3516087085 50.6260849133 0.0
424 1 18.7714087085 52.0728849133 0.0
425 1 24.6597087085 50.8822849133 0.0
426 1 30.9832087085 53.5953849133 0.0
427 1 34.8722087085 53.1304849133 0.0
428 1 37.8174087085 52.6136849133 0.0
429 1 46.3235087085 52.9888849133 0.0
430 1 49.7266087085 50.8343849133 0.0
431 1 54.8844087085 50.6353849133 0.0
432 1 61.4348087085 51.4215849133 0.0
433 1 67.6025087085 55.1253849133 0.0
434 1 72.0717087085 52.5032849133 0.0
435 1 77.2199087085 51.7470849133 0.0
436 1 0.409130708501 56.0926849133 0.0
437 1 8.0759887085 59.0717849133 0.0
438 1 9.7569187085 56.6105849133 0.0
439 1 16.4779087085 54.0464849133 0.0
440 1 24.1888087085 56.6388849133 0.0
441 1 30.6634087085 59.1564849133 0.0
442 1 34.2488087085 58.3577849133 0.0
443 1 38.6138087085 57.4244849133 0.0
444 1 42.7743087085 55.7005849133 0.0
445 1 48.4586087085 55.1332849133 0.0
446 1 54.0253087085 53.5197849133 0.0
447 1 58.6070087085 56.6203849133 0.0
448 1 63.4559087085 54.7707849133 0.0
449 1 69.5912087085 57.3698849133 0.0
450 1 74.6142087085 56.7998849133 0.0
451 1 3.8030287085 58.8296849133 0.0
452 1 10.4304087085 60.9010849133 0.0
453 1 14.6984087085 59.9114849133 0.0
454 1 20.3501087085 60.1109849133 0.0
455 1 27.1660087085 61.8762849133 0.0
456 1 25.7458087085 59.2119849133 0.0
457 1 36.9276087085 64.0135849133 0.0
458 1 39.4541087085 62.3845849133 0.0
459 1 46.2987087085 59.9210849133 0.0
460 1 51.3561087085 59.6280849133 0.0
461 1 56.4665087085 60.7206849133 0.0
462 1 61.5761087085 61.5317849133 0.0
463 1 66.3802087085 62.0551849133 0.0
464 1 71.4286087085 61.8136849133 0.0
465 1 76.1886087085 60.6746849133 0.0
466 1 0.783743708501 63.8688849133 0.0
467 1 6.6209987085 63.9813849133 0.0
468 1 12.3971087085 64.8650849133 0.0
469 1 17.2265087085 64.4203849133 0.0
470 1 22.1370087085 64.9940849133 0.0
471 1 26.8264087085 65.9655849133 0.0
472 1 31.6650087085 65.9035849133 0.0
473 1 38.5137087085 66.5643849133 0.0
474 1 43.9744087085 65.6308849133 0.0
475 1 46.9965087085 65.3819849133 0.0
476 1 53.1046087085 64.7162849133 0.0
477 1 58.2928087085 65.5807849133 0.0
478 1 63.4922087085 66.5728849133 0.0
479 1 68.9562087085 66.2563849133 0.0
480 1 74.5900087085 65.5386849133 0.0
481 1 3.6008787085 68.2544849133 0.0
482 1 8.8450987085 68.7506849133 0.0
483 1 11.8033087085 69.4261849133 0.0
484 1 19.3699087085 69.2212849133 0.0
485 1 25.0707087085 68.3757849133 0.0
486 1 29.8928087085 70.9805849133 0.0
487 1 34.5558087085 70.6906849133 0.0
488 1 41.7512087085 71.0050849133 0.0
489 1 46.3626087085 69.4863849133 0.0
490 1 51.1981087085 69.7284849133 0.0
491 1 56.5047087085 68.0334849133 0.0
492 1 60.6381087085 71.1441849133 0.0
493 1 67.7737087085 71.7590849133 0.0
494 1 72.3072087085 70.1277849133 0.0
495 1 75.3055087085 69.8827849133 0.0
496 1 1.0169387085 72.7888849133 0.0
497 1 5.9197887085 73.2185849133 0.0
498 1 11.0108087085 73.4050849133 0.0
499 1 16.2973087085 73.2253849133 0.0
500 1 21.8841087085 73.4488849133 0.0
501 1 27.0381087085 74.9471849133 0.0
502 1 32.6059087085 75.3564849133 0.0
503 1 38.0113087085 74.6912849133 0.0
504 1 43.3879087085 73.5076849133 0.0
505 1 48.4452087085 74.4024849133 0.0
506 1 53.5486087085 74.5897849133 0.0
507 1 58.5721087085 75.6874849133 0.0
508 1 63.9406087085 75.1976849133 0.0
509 1 69.3828087085 74.3031849133 0.0
510 1 74.8950087085 74.2802849133 0.0
511 1 6.6904987085 76.1404849133 0.0
512 1 11.5699087085 76.3382849133 0.0
513 1 16.7801087085 76.2042849133 0.0
514 1 21.9869087085 76.4481849133 0.0
515 1 26.5012087085 79.6183849133 0.0
516 1 32.4314087085 78.3726849133 0.0
517 1 40.0310087085 76.9997849133 0.0
518 1 43.0756087085 76.4837849133 0.0
519 1 48.1364087085 78.7223849133 0.0
520 1 53.8787087085 77.6170849133 0.0
521 1 59.0057087085 78.6801849133 0.0
522 1 64.3194087085 78.2545849133 0.0
523 1 69.4360087085 77.3123849133 0.0
524 1 75.0756087085 77.2614849133 0.0
525 1 1.2841087085 75.7762849133 0.0
526 1 3.9066387085 77.2362849133 0.0
527 1 9.0817587085 77.9958849133 0.0
528 1 14.2111087085 77.7578849133 0.0
529 1 19.3188087085 77.8352849133 0.0
530 1 24.9300087085 77.0807849133 0.0
531 1 29.5475087085 79.4727849133 0.0
532 1 35.2939087085 79.4943849133 0.0
533 1 38.3769087085 79.5727849133 0.0
534 1 46.1645087085 76.4614849133 0.0
535 1 51.1408087085 78.8918849133 0.0
536 1 56.1378087085 79.6772849133 0.0
537 1 61.7676087085 79.9860849133 0.0
538 1 67.1977087085 79.3431849133 0.0
539 1 72.2741087085 78.3551849133 0.0
540 1 78.0445087085 77.7186849133 0.0
541 2 3.7639887085 78.7238849133 0.0
542 2 4.6011887085 0.942244913306 0.0
543 2 1.9979587085 0.0762749133063 0.0
544 2 9.6178187085 1.47213491331 0.0
545 2 9.7631687085 79.3457849133 0.0
546 2 12.1260087085 0.507584913306 0.0
547 2 13.9897087085 79.2380849133 0.0
548 2 14.9825087085 1.18034491331 0.0
549 2 19.2837087085 79.3373849133 0.0
550 2 20.3957087085 1.49299491331 0.0
551 2 17.7654087085 1.06865491331 0.0
552 2 25.3221087085 2.84749491331 0.0
553 2 25.4665087085 0.479674913306 0.0
554 2 22.9840087085 1.97765491331 0.0
555 2 29.2635087085 0.695714913306 0.0
556 2 27.6506087085 3.00091491331 0.0
557 2 30.1684087085 2.85629491331 0.0
558 2 34.7779087085 0.657384913306 0.0
559 2 34.6132087085 3.41017491331 0.0
560 2 32.7146087085 2.51719491331 0.0
561 2 39.1892087085 0.617024913306 0.0
562 2 41.3544087085 2.52694491331 0.0
563 2 38.8768087085 3.09633491331 0.0
564 2 46.6402087085 2.41358491331 0.0
565 2 47.7906087085 80.1903849133 0.0
566 2 49.2684087085 1.73083491331 0.0
567 2 51.0864087085 0.135104913306 0.0
568 2 51.9394087085 2.55553491331 0.0
569 2 54.5169087085 3.07728491331 0.0
570 2 57.2266087085 3.22043491331 0.0
571 2 55.9876087085 0.929654913306 0.0
572 2 61.6053087085 1.25290491331 0.0
573 2 62.5518087085 3.72001491331 0.0
574 2 59.9362087085 3.37539491331 0.0
575 2 69.2432087085 2.87138491331 0.0
576 2 68.1284087085 0.314454913306 0.0
577 2 70.7694087085 1.23807491331 0.0
578 2 72.3546087085 79.8515849133 0.0
579 2 73.5792087085 1.87399491331 0.0
580 2 78.7066087085 1.27822491331 0.0
581 2 78.7596087085 79.0358849133 0.0
582 2 78.9058087085 3.66544491331 0.0
583 2 2.3476587085 4.74881491331 0.0
584 2 78.8659087085 5.95018491331 0.0
585 2 5.7950287085 7.50184491331 0.0
586 2 5.1276787085 5.38518491331 0.0
587 2 7.9307287085 5.89536491331 0.0
588 2 9.0664587085 3.95205491331 0.0
589 2 10.8139087085 5.98150491331 0.0
590 2 16.2735087085 5.53771491331 0.0
591 2 16.8498087085 3.16317491331 0.0
592 2 18.8691087085 4.96969491331 0.0
593 2 20.9678087085 6.65396491331 0.0
594 2 21.0617087085 3.91051491331 0.0
595 2 26.5177087085 5.36220491331 0.0
596 2 28.2185087085 7.22392491331 0.0
597 2 25.5912087085 7.80954491331 0.0
598 2 33.7721087085 5.85677491331 0.0
599 2 31.8067087085 4.89981491331 0.0
600 2 31.0325087085 7.16776491331 0.0
601 2 37.1990087085 8.13083491331 0.0
602 2 38.1763087085 5.71019491331 0.0
603 2 39.9070087085 6.84668491331 0.0
604 2 42.4290087085 7.09594491331 0.0
605 2 41.9104087085 4.79131491331 0.0
606 2 47.4540087085 6.74233491331 0.0
607 2 46.9586087085 4.55116491331 0.0
608 2 49.7409087085 5.67140491331 0.0
609 2 52.2388087085 4.82150491331 0.0
610 2 52.1644087085 7.21431491331 0.0
611 2 59.1964087085 7.95633491331 0.0
612 2 58.2557087085 5.51042491331 0.0
613 2 56.9462087085 8.08651491331 0.0
614 2 63.2953087085 6.23914491331 0.0
615 2 63.8610087085 8.97988491331 0.0
616 2 61.6496087085 8.27188491331 0.0
617 2 67.9728087085 4.92254491331 0.0
618 2 66.9132087085 7.01980491331 0.0
619 2 65.1775087085 4.98436491331 0.0
620 2 76.2918087085 6.38653491331 0.0
621 2 74.9120087085 4.14845491331 0.0
622 2 73.4508087085 5.85481491331 0.0
623 2 1.4172687085 10.1931849133 0.0
624 2 3.6399887085 12.0339849133 0.0
625 2 3.8853887085 9.64488491331 0.0
626 2 6.2765387085 9.84998491331 0.0
627 2 8.6080487085 11.2908849133 0.0
628 2 6.0461287085 12.0881849133 0.0
629 2 12.1227087085 8.13874491331 0.0
630 2 13.5412087085 10.3478849133 0.0
631 2 11.1186087085 10.6420849133 0.0
632 2 16.2551087085 7.78057491331 0.0
633 2 18.4732087085 9.74508491331 0.0
634 2 16.0264087085 9.97618491331 0.0
635 2 23.0196087085 8.41367491331 0.0
636 2 20.7273087085 9.33738491331 0.0
637 2 29.2522087085 9.23118491331 0.0
638 2 29.8231087085 11.6510849133 0.0
639 2 27.2910087085 11.0905849133 0.0
640 2 34.6513087085 9.82188491331 0.0
641 2 34.1816087085 12.3213849133 0.0
642 2 32.2164087085 11.6153849133 0.0
643 2 38.7034087085 12.2464849133 0.0
644 2 36.7694087085 10.5074849133 0.0
645 2 36.2018087085 12.9904849133 0.0
646 2 42.9748087085 9.45938491331 0.0
647 2 43.5870087085 11.8742849133 0.0
648 2 41.2371087085 11.6900849133 0.0
649 2 48.2458087085 11.5810849133 0.0
650 2 50.8363087085 11.6781849133 0.0
651 2 49.5892087085 13.8598849133 0.0
652 2 54.6096087085 8.77094491331 0.0
653 2 52.6533087085 9.81448491331 0.0
654 2 60.3836087085 10.4532849133 0.0
655 2 61.0990087085 13.2131849133 0.0
656 2 58.7622087085 12.0399849133 0.0
657 2 64.7677087085 11.6873849133 0.0
658 2 66.0462087085 9.40138491331 0.0
659 2 71.9829087085 7.53508491331 0.0
660 2 73.3225087085 9.95628491331 0.0
661 2 70.8275087085 9.76048491331 0.0
662 2 78.1135087085 10.8361849133 0.0
663 2 78.3575087085 8.31512491331 0.0
664 2 76.3067087085 15.3455849133 0.0
665 2 78.8693087085 15.9640849133 0.0
666 2 77.5826087085 13.4270849133 0.0
667 2 6.7434487085 16.7061849133 0.0
668 2 5.6908187085 14.2455849133 0.0
669 2 8.3434987085 14.9453849133 0.0
670 2 10.0591087085 13.1799849133 0.0
671 2 11.0544087085 15.5147849133 0.0
672 2 16.0502087085 14.5940849133 0.0
673 2 15.7518087085 12.1909849133 0.0
674 2 18.2472087085 13.4461849133 0.0
675 2 19.9663087085 12.0514849133 0.0
676 2 20.0988087085 15.0923849133 0.0
677 2 25.6278087085 13.0143849133 0.0
678 2 26.6835087085 15.5502849133 0.0
679 2 24.3624087085 15.4444849133 0.0
680 2 31.8524087085 16.0836849133 0.0
681 2 30.6912087085 14.0410849133 0.0
682 2 29.0631087085 16.2559849133 0.0
683 2 34.4400087085 17.3251849133 0.0
684 2 37.1022087085 18.2083849133 0.0
685 2 34.9765087085 19.7045849133 0.0
686 2 40.1734087085 14.1762849133 0.0
687 2 41.8754087085 15.6492849133 0.0
688 2 39.3968087085 16.8008849133 0.0
689 2 45.8825087085 11.9366849133 0.0
690 2 44.1541087085 14.2513849133 0.0
691 2 52.8431087085 12.6705849133 0.0
692 2 51.5618087085 14.8242849133 0.0
693 2 53.8815087085 15.3190849133 0.0
694 2 57.3056087085 13.6512849133 0.0
695 2 56.1639087085 15.8116849133 0.0
696 2 58.2670087085 16.4834849133 0.0
697 2 63.4242087085 13.8344849133 0.0
698 2 61.9300087085 15.9174849133 0.0
699 2 71.0735087085 13.6868849133 0.0
700 2 69.4438087085 11.9587849133 0.0
701 2 68.3884087085 14.3882849133 0.0
702 2 74.1849087085 16.9592849133 0.0
703 2 73.6697087085 14.6602849133 0.0
704 2 0.297428708501 18.5757849133 0.0
705 2 1.5222287085 20.8003849133 0.0
706 2 78.3030087085 21.2178849133 0.0
707 2 5.0141787085 18.2143849133 0.0
708 2 3.4002987085 19.8612849133 0.0
709 2 2.2510787085 17.5337849133 0.0
710 2 12.3507087085 20.0487849133 0.0
711 2 12.7547087085 17.7132849133 0.0
712 2 14.9472087085 19.0917849133 0.0
713 2 15.9922087085 17.1975849133 0.0
714 2 17.8037087085 19.1297849133 0.0
715 2 21.9414087085 16.6389849133 0.0
716 2 19.8996087085 18.0609849133 0.0
717 2 25.5482087085 22.6233849133 0.0
718 2 24.8407087085 20.3254849133 0.0
719 2 23.1227087085 22.7511849133 0.0
720 2 33.4575087085 22.1879849133 0.0
721 2 35.8373087085 21.9278849133 0.0
722 2 41.8821087085 20.8914849133 0.0
723 2 39.8931087085 18.9468849133 0.0
724 2 42.6833087085 18.9145849133 0.0
725 2 43.9047087085 16.9236849133 0.0
726 2 45.4681087085 19.0060849133 0.0
727 2 48.1549087085 18.7977849133 0.0
728 2 50.7043087085 19.1218849133 0.0
729 2 49.7515087085 16.7086849133 0.0
730 2 54.7489087085 17.9651849133 0.0
731 2 56.0451087085 20.1519849133 0.0
732 2 53.2716087085 19.8937849133 0.0
733 2 60.3204087085 17.7569849133 0.0
734 2 58.2346087085 19.3054849133 0.0
735 2 66.8022087085 16.6386849133 0.0
736 2 65.1066087085 18.7928849133 0.0
737 2 67.2957087085 19.3491849133 0.0
738 2 69.5132087085 20.1127849133 0.0
739 2 71.4944087085 21.2684849133 0.0
740 2 72.1042087085 18.8607849133 0.0
741 2 74.3069087085 19.5435849133 0.0
742 2 76.0728087085 21.6769849133 0.0
743 2 73.6038087085 21.8831849133 0.0
744 2 77.4504087085 23.8743849133 0.0
745 2 78.9041087085 25.8343849133 0.0
746 2 76.1589087085 26.0764849133 0.0
747 2 3.3124987085 22.7494849133 0.0
748 2 4.8929987085 24.9026849133 0.0
749 2 2.4108587085 25.2272849133 0.0
750 2 8.1843987085 22.1776849133 0.0
751 2 10.0100087085 23.9992849133 0.0
752 2 7.4059087085 24.6162849133 0.0
753 2 12.8488087085 24.6015849133 0.0
754 2 15.5821087085 24.9632849133 0.0
755 2 13.4503087085 26.7646849133 0.0
756 2 19.3093087085 21.0183849133 0.0
757 2 18.1200087085 23.6355849133 0.0
758 2 20.6252087085 23.1963849133 0.0
759 2 28.2097087085 23.5524849133 0.0
760 2 26.3357087085 25.0492849133 0.0
761 2 31.0822087085 23.5175849133 0.0
762 2 29.6277087085 25.5031849133 0.0
763 2 36.6747087085 24.3169849133 0.0
764 2 37.8767087085 26.4477849133 0.0
765 2 35.0754087085 26.1338849133 0.0
766 2 41.2020087085 23.0143849133 0.0
767 2 39.7451087085 25.1351849133 0.0
768 2 38.4980087085 23.0097849133 0.0
769 2 47.1466087085 21.0313849133 0.0
770 2 48.9807087085 22.7684849133 0.0
771 2 46.2738087085 23.3424849133 0.0
772 2 51.2822087085 24.0997849133 0.0
773 2 53.5184087085 25.3108849133 0.0
774 2 50.7505087085 26.3009849133 0.0
775 2 57.6264087085 22.1370849133 0.0
776 2 58.9758087085 24.3716849133 0.0
777 2 56.2965087085 24.4114849133 0.0
778 2 63.9511087085 23.8862849133 0.0
779 2 64.1879087085 21.1309849133 0.0
780 2 66.0882087085 23.1404849133 0.0
781 2 68.2861087085 24.9204849133 0.0
782 2 67.9364087085 22.1119849133 0.0
783 2 72.1663087085 24.0302849133 0.0
784 2 73.4566087085 26.2097849133 0.0
785 2 70.6597087085 25.8664849133 0.0
786 2 1.4352187085 27.7257849133 0.0
787 2 0.287604708501 30.0496849133 0.0
788 2 3.0089287085 29.5771849133 0.0
789 2 6.6513387085 26.9936849133 0.0