# input file

1350 atoms
2 atom types

0.0 77.9955460342 xlo xhi
0.0 82.0493172687 ylo yhi
-10.0 10.0 zlo zhi
0.0 0.0 0.0 xy xz yz

Masses

1 28.0855 #Si
2 15.9994 #O

Atoms

1 1 3.49088079396 1.91980863436 0.0
2 1 8.44350079396 0.793241634361 0.0
3 1 13.439610794 81.4800586344 0.0
4 1 18.923710794 81.3914586344 0.0
5 1 25.781410794 81.9472586344 0.0
6 1 28.700610794 0.708084634361 0.0
7 1 33.506610794 2.32760863436 0.0
8 1 39.040210794 2.96157863436 0.0
9 1 43.617410794 4.03974863436 0.0
10 1 48.768910794 2.03350863436 0.0
11 1 53.858410794 1.77107863436 0.0
12 1 59.032410794 2.10883863436 0.0
13 1 64.361110794 1.88603863436 0.0
14 1 69.848810794 2.06872863436 0.0
15 1 75.744410794 1.47956863436 0.0
16 1 77.509610794 7.76418863436 0.0
17 1 6.90993079396 5.98381863436 0.0
18 1 12.588410794 4.34808863436 0.0
19 1 15.457510794 3.49521863436 0.0
20 1 20.052510794 4.39252863436 0.0
21 1 24.848210794 5.09535863436 0.0
22 1 31.428010794 8.51611863436 0.0
23 1 36.762110794 6.73360863436 0.0
24 1 41.876610794 9.78417863436 0.0
25 1 47.169410794 7.09359863436 0.0
26 1 51.757910794 8.85723863436 0.0
27 1 56.962810794 6.50367863436 0.0
28 1 62.106710794 6.37454863436 0.0
29 1 68.012310794 6.25247863436 0.0
30 1 73.572510794 5.33238863436 0.0
31 1 2.13393079396 9.15587863436 0.0
32 1 8.51726079396 8.54944863436 0.0
33 1 17.195710794 11.1299586344 0.0
34 1 15.976610794 8.38224863436 0.0
35 1 22.327810794 9.45275863436 0.0
36 1 26.932310794 7.26316863436 0.0
37 1 34.650510794 11.5734586344 0.0
38 1 40.245910794 12.3403586344 0.0
39 1 45.455510794 12.0637586344 0.0
40 1 50.530810794 11.6232586344 0.0
41 1 56.085110794 11.2819586344 0.0
42 1 61.697710794 10.2124586344 0.0
43 1 64.176910794 8.53897863436 0.0
44 1 71.027010794 9.84478863436 0.0
45 1 76.009010794 10.3203586344 0.0
46 1 0.486240793956 14.6941586344 0.0
47 1 5.88584079396 13.7814586344 0.0
48 1 10.596210794 15.2650586344 0.0
49 1 15.004910794 16.1113586344 0.0
50 1 21.975110794 13.9542586344 0.0
51 1 24.765210794 12.8033586344 0.0
52 1 29.714710794 13.8611586344 0.0
53 1 35.910210794 15.7508586344 0.0
54 1 43.995910794 16.4929586344 0.0
55 1 47.392910794 19.3192586344 0.0
56 1 53.413910794 15.5809586344 0.0
57 1 58.566710794 15.5392586344 0.0
58 1 63.319810794 15.8658586344 0.0
59 1 70.062610794 14.5417586344 0.0
60 1 73.087310794 14.6640586344 0.0
61 1 2.46889079396 18.3207586344 0.0
62 1 6.99911079396 19.1060586344 0.0
63 1 12.988710794 23.1150586344 0.0
64 1 18.008610794 20.2449586344 0.0
65 1 23.169410794 21.6956586344 0.0
66 1 27.443910794 17.8721586344 0.0
67 1 34.381210794 19.9255586344 0.0
68 1 39.610210794 20.0171586344 0.0
69 1 46.905310794 22.3135586344 0.0
70 1 50.178010794 20.3221586344 0.0
71 1 56.941010794 19.8683586344 0.0
72 1 61.166010794 20.4613586344 0.0
73 1 64.773610794 18.5543586344 0.0
74 1 71.376110794 20.2605586344 0.0
75 1 77.464610794 18.5197586344 0.0
76 1 77.781410794 24.2489586344 0.0
77 1 4.47313079396 23.6247586344 0.0
78 1 8.68088079396 21.6023586344 0.0
79 1 17.111010794 25.1445586344 0.0
80 1 23.598510794 24.6848586344 0.0
81 1 28.440910794 25.6426586344 0.0
82 1 33.386210794 22.7550586344 0.0
83 1 38.377010794 22.7557586344 0.0
84 1 43.420510794 24.5699586344 0.0
85 1 48.479610794 24.9257586344 0.0
86 1 53.829410794 23.7624586344 0.0
87 1 58.627710794 25.1896586344 0.0
88 1 63.626410794 24.5252586344 0.0
89 1 68.711110794 25.1331586344 0.0
90 1 74.838310794 24.8286586344 0.0
91 1 2.93559079396 28.7745586344 0.0
92 1 7.85713079396 27.3429586344 0.0
93 1 11.791110794 25.8939586344 0.0
94 1 18.279310794 27.8741586344 0.0
95 1 28.009210794 28.6175586344 0.0
96 1 32.226510794 27.8065586344 0.0
97 1 35.176310794 27.3382586344 0.0
98 1 40.506510794 27.8578586344 0.0
99 1 43.169210794 29.1878586344 0.0
100 1 47.158210794 29.2231586344 0.0
101 1 54.877910794 28.8782586344 0.0
102 1 60.145610794 29.2986586344 0.0
103 1 65.384510794 29.3647586344 0.0
104 1 70.108410794 30.4248586344 0.0
105 1 75.377610794 30.0295586344 0.0
106 1 0.990740793956 33.3981586344 0.0
107 1 7.96572079396 31.8199586344 0.0
108 1 11.009510794 31.7139586344 0.0
109 1 15.778510794 32.5029586344 0.0
110 1 19.777310794 34.8781586344 0.0
111 1 25.082510794 32.6632586344 0.0
112 1 31.120210794 33.2224586344 0.0
113 1 36.437510794 33.1226586344 0.0
114 1 41.549010794 35.5163586344 0.0
115 1 47.221510794 35.1597586344 0.0
116 1 52.572210794 32.6710586344 0.0
117 1 57.575210794 35.2940586344 0.0
118 1 63.016110794 33.7883586344 0.0
119 1 66.758510794 37.2573586344 0.0
120 1 73.234810794 34.6538586344 0.0
121 1 3.92573079396 37.6010586344 0.0
122 1 8.29916079396 37.2420586344 0.0
123 1 13.615210794 37.0759586344 0.0
124 1 18.359010794 37.5272586344 0.0
125 1 24.780910794 36.7731586344 0.0
126 1 27.090710794 34.8993586344 0.0
127 1 34.169310794 37.4678586344 0.0
128 1 39.651410794 37.8704586344 0.0
129 1 47.303810794 38.1601586344 0.0
130 1 50.248010794 37.5456586344 0.0
131 1 55.904110794 37.7948586344 0.0
132 1 62.073010794 38.2090586344 0.0
133 1 64.776510794 39.5220586344 0.0
134 1 69.222210794 38.9790586344 0.0
135 1 76.112510794 37.7011586344 0.0
136 1 0.784680793956 41.2650586344 0.0
137 1 5.85116079396 42.4636586344 0.0
138 1 10.672510794 41.6257586344 0.0
139 1 16.974210794 42.1360586344 0.0
140 1 19.952210794 41.9428586344 0.0
141 1 24.639910794 42.4699586344 0.0
142 1 32.010110794 41.5387586344 0.0
143 1 35.031510794 41.3690586344 0.0
144 1 39.945910794 42.4304586344 0.0
145 1 45.088610794 42.7606586344 0.0
146 1 52.877210794 41.6552586344 0.0
147 1 57.292210794 43.3463586344 0.0
148 1 61.347710794 43.5417586344 0.0
149 1 65.598110794 42.4380586344 0.0
150 1 72.777610794 42.3750586344 0.0
151 1 1.48007079396 45.8129586344 0.0
152 1 6.32177079396 45.4586586344 0.0
153 1 11.143010794 46.2520586344 0.0
154 1 14.820410794 45.9200586344 0.0
155 1 21.841410794 47.0227586344 0.0
156 1 26.682110794 47.1287586344 0.0
157 1 31.169010794 49.4509586344 0.0
158 1 37.934110794 46.3736586344 0.0
159 1 40.721110794 45.3163586344 0.0
160 1 48.144710794 46.7104586344 0.0
161 1 52.467610794 46.3840586344 0.0
162 1 59.677410794 48.5723586344 0.0
163 1 64.217910794 50.2161586344 0.0
164 1 71.510310794 47.1708586344 0.0
165 1 74.511710794 44.8070586344 0.0
166 1 74.905510794 50.7753586344 0.0
167 1 1.59931079396 51.7173586344 0.0
168 1 7.28858079396 52.5871586344 0.0
169 1 13.072010794 51.4056586344 0.0
170 1 19.401110794 51.0131586344 0.0
171 1 23.937210794 53.9405586344 0.0
172 1 29.377910794 51.8780586344 0.0
173 1 34.098310794 52.7271586344 0.0
174 1 38.987610794 51.6323586344 0.0
175 1 46.980910794 50.3671586344 0.0
176 1 49.738910794 49.2355586344 0.0
177 1 54.622510794 51.7113586344 0.0
178 1 61.948010794 52.1968586344 0.0
179 1 66.298610794 54.2888586344 0.0
180 1 69.865510794 52.2691586344 0.0
181 1 77.887010794 58.7023586344 0.0
182 1 7.78666079396 55.5391586344 0.0
183 1 10.778910794 55.4704586344 0.0
184 1 14.995010794 53.7118586344 0.0
185 1 23.318110794 56.9045586344 0.0
186 1 27.859510794 56.4882586344 0.0
187 1 32.977310794 59.0477586344 0.0
188 1 37.623610794 56.6446586344 0.0
189 1 41.118110794 53.7553586344 0.0
190 1 48.222910794 55.8253586344 0.0
191 1 53.458710794 54.5301586344 0.0
192 1 58.160510794 56.0614586344 0.0
193 1 62.957510794 57.7513586344 0.0
194 1 68.345110794 59.2360586344 0.0
195 1 73.255910794 57.1850586344 0.0
196 1 76.960810794 61.6755586344 0.0
197 1 3.97464079396 61.0105586344 0.0
198 1 8.46797079396 59.7441586344 0.0
199 1 15.449510794 58.8182586344 0.0
200 1 20.834210794 61.1240586344 0.0
201 1 27.257010794 61.3060586344 0.0
202 1 32.725510794 62.0249586344 0.0
203 1 37.626810794 61.6069586344 0.0
204 1 41.701210794 59.5246586344 0.0
205 1 46.087910794 62.6250586344 0.0
206 1 50.822310794 59.4921586344 0.0
207 1 54.502310794 62.4871586344 0.0
208 1 59.994310794 61.4065586344 0.0
209 1 65.259510794 63.4659586344 0.0
210 1 71.273910794 62.6359586344 0.0
211 1 2.78710079396 65.6322586344 0.0
212 1 7.69963079396 64.9623586344 0.0
213 1 11.031410794 61.4072586344 0.0
214 1 18.943610794 63.4431586344 0.0
215 1 22.994010794 63.2243586344 0.0
216 1 30.381810794 65.7977586344 0.0
217 1 36.138510794 66.3968586344 0.0
218 1 41.751210794 65.0609586344 0.0
219 1 44.790710794 65.3574586344 0.0
220 1 49.466510794 64.9540586344 0.0
221 1 54.100210794 67.2319586344 0.0
222 1 58.985410794 68.0279586344 0.0
223 1 64.771310794 66.4183586344 0.0
224 1 69.026010794 68.5280586344 0.0
225 1 73.144510794 65.0643586344 0.0
226 1 2.18034079396 69.4664586344 0.0
227 1 5.25593079396 69.8900586344 0.0
228 1 12.240710794 66.9631586344 0.0
229 1 14.298610794 64.6850586344 0.0
230 1 20.679710794 70.5625586344 0.0
231 1 26.497010794 69.4023586344 0.0
232 1 32.257210794 69.8775586344 0.0
233 1 37.714810794 71.1929586344 0.0
234 1 42.611810794 71.4252586344 0.0
235 1 47.695710794 70.1331586344 0.0
236 1 52.737110794 69.9184586344 0.0
237 1 57.400510794 70.5553586344 0.0
238 1 61.409810794 69.7607586344 0.0
239 1 68.369410794 71.4370586344 0.0
240 1 73.215210794 73.1593586344 0.0
241 1 2.95725079396 74.6532586344 0.0
242 1 8.08984079396 73.7292586344 0.0
243 1 13.071310794 72.4483586344 0.0
244 1 18.939010794 73.0531586344 0.0
245 1 24.294010794 73.6396586344 0.0
246 1 29.726510794 73.5325586344 0.0
247 1 33.794710794 76.7530586344 0.0
248 1 39.321410794 75.9152586344 0.0
249 1 47.049610794 74.9934586344 0.0
250 1 51.767910794 74.3886586344 0.0
251 1 54.755210794 75.0528586344 0.0
252 1 60.209410794 75.2456586344 0.0
253 1 65.237810794 76.4900586344 0.0
254 1 71.013610794 75.2208586344 0.0
255 1 76.104510794 76.1344586344 0.0
256 1 0.528940793956 2.68379863436 0.0
257 1 6.33508079396 2.99302863436 0.0
258 1 11.340410794 1.60923863436 0.0
259 1 16.199810794 0.600001634361 0.0
260 1 20.983510794 1.54355863436 0.0
261 1 23.913310794 2.23598863436 0.0
262 1 30.567310794 3.11638863436 0.0
263 1 36.150310794 3.78686863436 0.0
264 1 40.922210794 5.29975863436 0.0
265 1 46.607510794 4.13909863436 0.0
266 1 51.369610794 3.54930863436 0.0
267 1 56.359910794 3.52036863436 0.0
268 1 61.763510794 3.40197863436 0.0
269 1 67.081510794 3.34168863436 0.0
270 1 72.860110794 2.43573863436 0.0
271 1 4.95660079396 8.25544863436 0.0
272 1 11.297810794 9.65396863436 0.0
273 1 13.163910794 7.30689863436 0.0
274 1 17.402710794 5.75996863436 0.0
275 1 22.193410794 6.47338863436 0.0
276 1 29.699810794 6.03947863436 0.0
277 1 34.419410794 8.58975863436 0.0
278 1 39.521110794 7.92282863436 0.0
279 1 44.860910794 9.11457863436 0.0
280 1 50.119010794 6.33529863436 0.0
281 1 54.774410794 8.57528863436 0.0
282 1 59.600110794 8.02600863436 0.0
283 1 67.116810794 9.17123863436 0.0
284 1 70.968210794 6.84340863436 0.0
285 1 76.566610794 4.96173863436 0.0
286 1 0.641580793956 11.7257586344 0.0
287 1 6.52680079396 10.8118586344 0.0
288 1 11.979910794 12.5847586344 0.0
289 1 14.935910794 13.1127586344 0.0
290 1 20.176610794 11.5510586344 0.0
291 1 25.313810794 9.83490863436 0.0
292 1 31.630710794 11.5277586344 0.0
293 1 37.282810794 13.0652586344 0.0
294 1 42.919710794 13.7027586344 0.0
295 1 48.114910794 13.4853586344 0.0
296 1 53.374110794 12.6017586344 0.0
297 1 58.820410794 12.5840586344 0.0
298 1 61.797110794 13.2073586344 0.0
299 1 68.727410794 11.7675586344 0.0
300 1 73.371910794 11.6889586344 0.0
301 1 3.38471079396 15.4674586344 0.0
302 1 7.72981079396 16.1663586344 0.0
303 1 12.424410794 17.6518586344 0.0
304 1 17.761210794 17.2663586344 0.0
305 1 20.701010794 16.6828586344 0.0
306 1 26.902410794 14.9052586344 0.0
307 1 30.265910794 16.8114586344 0.0
308 1 42.461610794 19.0787586344 0.0
309 1 47.001510794 16.3171586344 0.0
310 1 52.383210794 18.3583586344 0.0
311 1 56.018510794 17.0348586344 0.0
312 1 60.818510794 17.4927586344 0.0
313 1 67.629710794 19.4408586344 0.0
314 1 69.978110794 17.5785586344 0.0
315 1 75.786110794 16.0326586344 0.0
316 1 76.768410794 21.4258586344 0.0
317 1 4.39537079396 20.6106586344 0.0
318 1 11.485310794 20.5213586344 0.0
319 1 15.928410794 22.4122586344 0.0
320 1 20.952610794 19.6775586344 0.0
321 1 25.951010794 20.5211586344 0.0
322 1 33.246410794 17.1575586344 0.0
323 1 37.028810794 18.5230586344 0.0
324 1 43.994410794 21.6541586344 0.0
325 1 50.911810794 23.2222586344 0.0
326 1 54.127410794 20.7920586344 0.0
327 1 58.772510794 22.2142586344 0.0
328 1 63.953510794 21.4951586344 0.0
329 1 69.004210794 22.1158586344 0.0
330 1 73.829810794 22.0038586344 0.0
331 1 2.37716079396 25.7942586344 0.0
332 1 7.39489079396 24.3452586344 0.0
333 1 14.619110794 26.7964586344 0.0
334 1 22.948710794 27.6677586344 0.0
335 1 26.365610794 23.4953586344 0.0
336 1 31.338010794 24.9400586344 0.0
337 1 35.877910794 24.4187586344 0.0
338 1 40.455410794 24.8920586344 0.0
339 1 45.172510794 26.9873586344 0.0
340 1 49.719810794 27.7045586344 0.0
341 1 55.764610794 26.0334586344 0.0
342 1 61.313010794 26.5010586344 0.0
343 1 65.977810794 26.4031586344 0.0
344 1 70.634710794 27.4629586344 0.0
345 1 73.643210794 27.5695586344 0.0
346 1 0.396530793956 30.4408586344 0.0
347 1 5.87035079396 29.6041586344 0.0
348 1 10.568910794 28.6713586344 0.0
349 1 15.773110794 29.5235586344 0.0
350 1 20.657610794 29.6579586344 0.0
351 1 25.202610794 29.6591586344 0.0
352 1 30.510510794 30.2728586344 0.0
353 1 36.170110794 30.1542586344 0.0
354 1 39.125810794 30.4717586344 0.0
355 1 45.128210794 31.4299586344 0.0
356 1 51.993610794 29.7039586344 0.0
357 1 57.372710794 30.5450586344 0.0
358 1 62.740210794 30.8004586344 0.0
359 1 67.354310794 31.6435586344 0.0
360 1 72.847110794 31.6835586344 0.0
361 1 3.78423079396 34.6054586344 0.0
362 1 6.80623079396 34.5957586344 0.0
363 1 13.138110794 34.0006586344 0.0
364 1 18.781610794 32.0562586344 0.0
365 1 22.763610794 34.5682586344 0.0
366 1 29.887710794 35.9684586344 0.0
367 1 33.811410794 34.5067586344 0.0
368 1 39.410410794 33.4287586344 0.0
369 1 44.333110794 34.3232586344 0.0
370 1 50.172910794 34.5383586344 0.0
371 1 55.611010794 33.0004586344 0.0
372 1 60.594910794 35.5845586344 0.0
373 1 65.983110794 34.3368586344 0.0
374 1 71.711110794 37.2711586344 0.0
375 1 76.250010794 34.7117586344 0.0
376 1 1.03096079396 38.3115586344 0.0
377 1 6.27835079396 39.4744586344 0.0
378 1 10.995810794 38.6029586344 0.0
379 1 15.852210794 39.2252586344 0.0
380 1 20.898410794 39.1192586344 0.0
381 1 23.851510794 39.5904586344 0.0
382 1 31.386810794 38.5925586344 0.0
383 1 36.794910794 38.9091586344 0.0
384 1 41.741310794 40.0167586344 0.0
385 1 44.747310794 39.7848586344 0.0
386 1 53.032210794 38.6641586344 0.0
387 1 57.456110794 40.3608586344 0.0
388 1 60.420610794 40.6915586344 0.0
389 1 68.566610794 41.9524586344 0.0
390 1 73.712810794 39.5053586344 0.0
391 1 2.99844079396 43.2477586344 0.0
392 1 9.02796079396 44.1761586344 0.0
393 1 12.793810794 43.7446586344 0.0
394 1 17.682210794 45.1584586344 0.0
395 1 22.089910794 44.0384586344 0.0
396 1 27.105510794 44.1503586344 0.0
397 1 30.095010794 43.8815586344 0.0
398 1 37.135310794 43.4883586344 0.0
399 1 43.691510794 45.4165586344 0.0
400 1 50.857810794 43.8408586344 0.0
401 1 54.463410794 44.1854586344 0.0
402 1 59.203810794 45.6254586344 0.0
403 1 63.959310794 44.9803586344 0.0
404 1 70.467010794 44.2970586344 0.0
405 1 77.282610794 43.8070586344 0.0
406 1 74.473410794 47.7825586344 0.0
407 1 1.99484079396 48.7372586344 0.0
408 1 4.95835079396 48.2034586344 0.0
409 1 13.184510794 48.4182586344 0.0
410 1 18.990510794 47.9548586344 0.0
411 1 24.201910794 48.8712586344 0.0
412 1 29.677710794 46.8604586344 0.0
413 1 34.160110794 49.7410586344 0.0
414 1 37.130710794 49.2572586344 0.0
415 1 45.387510794 47.8680586344 0.0
416 1 47.902610794 43.7341586344 0.0
417 1 57.480910794 50.6845586344 0.0
418 1 62.602610794 47.6978586344 0.0
419 1 66.990010794 51.3845586344 0.0
420 1 71.942510794 50.1393586344 0.0
421 1 76.870910794 53.1451586344 0.0
422 1 4.61075079396 51.2102586344 0.0
423 1 10.287410794 52.5058586344 0.0
424 1 17.997310794 53.7625586344 0.0
425 1 22.426810794 51.3263586344 0.0
426 1 26.931510794 53.6255586344 0.0
427 1 31.433410794 54.0580586344 0.0
428 1 36.886410794 53.7604586344 0.0
429 1 43.972910794 54.6075586344 0.0
430 1 46.644310794 53.3092586344 0.0
431 1 52.718210794 49.3787586344 0.0
432 1 59.113410794 53.1960586344 0.0
433 1 63.371010794 54.8100586344 0.0
434 1 68.531610794 56.2653586344 0.0
435 1 71.218110794 54.9618586344 0.0
436 1 76.145710794 56.1700586344 0.0
437 1 2.93786079396 58.2206586344 0.0
438 1 5.99138079396 57.9225586344 0.0
439 1 13.635510794 56.4055586344 0.0
440 1 17.819110794 56.8383586344 0.0
441 1 25.788510794 58.6552586344 0.0
442 1 30.810810794 56.9792586344 0.0
443 1 35.966410794 59.1119586344 0.0
444 1 40.599610794 56.7258586344 0.0
445 1 45.549410794 57.1574586344 0.0
446 1 51.132310794 56.4757586344 0.0
447 1 55.279610794 56.9222586344 0.0
448 1 60.029110794 58.4127586344 0.0
449 1 65.324410794 59.5857586344 0.0
450 1 71.368410794 59.6104586344 0.0
451 1 1.68577079396 62.8776586344 0.0
452 1 6.72059079396 62.1538586344 0.0
453 1 14.059410794 61.5889586344 0.0
454 1 20.556210794 58.1228586344 0.0
455 1 25.891610794 63.9756586344 0.0
456 1 29.851110794 62.8354586344 0.0
457 1 35.331210794 63.5149586344 0.0
458 1 40.548110794 62.2945586344 0.0
459 1 44.648110794 60.0021586344 0.0
460 1 49.024310794 61.9604586344 0.0
461 1 53.824810794 59.5695586344 0.0
462 1 57.457310794 63.0381586344 0.0
463 1 63.009710794 61.5275586344 0.0
464 1 68.259910794 63.0080586344 0.0
465 1 76.173110794 64.6808586344 0.0
466 1 0.185801793956 67.0837586344 0.0
467 1 5.47572079396 66.9254586344 0.0
468 1 10.620810794 64.4179586344 0.0
469 1 17.094110794 65.7929586344 0.0
470 1 21.100210794 65.5207586344 0.0
471 1 27.461110794 66.5505586344 0.0
472 1 33.161410794 67.0224586344 0.0
473 1 40.233210794 69.5105586344 0.0
474 1 39.184710794 66.6923586344 0.0
475 1 47.291910794 67.0956586344 0.0
476 1 52.468010794 64.7226586344 0.0
477 1 56.838310794 65.9701586344 0.0
478 1 64.367810794 69.3965586344 0.0
479 1 67.700210794 65.9131586344 0.0
480 1 71.951710794 67.8781586344 0.0
481 1 1.10458079396 72.2742586344 0.0
482 1 8.23779079396 70.7122586344 0.0
483 1 11.255210794 69.9219586344 0.0
484 1 19.276610794 67.8869586344 0.0
485 1 23.733910794 70.6805586344 0.0
486 1 29.303310794 70.5611586344 0.0
487 1 34.695710794 71.6641586344 0.0
488 1 40.073910794 73.0407586344 0.0
489 1 45.567710794 72.2945586344 0.0
490 1 50.317510794 71.6881586344 0.0
491 1 54.834410794 72.0556586344 0.0
492 1 59.816710794 72.2866586344 0.0
493 1 65.412710794 72.2246586344 0.0
494 1 71.365310794 70.8428586344 0.0
495 1 76.218310794 73.1478586344 0.0
496 1 0.994770793956 76.9192586344 0.0
497 1 5.78515079396 75.6977586344 0.0
498 1 10.959710794 74.6425586344 0.0
499 1 15.924710794 73.6966586344 0.0
500 1 21.475310794 74.7453586344 0.0
501 1 27.044710794 74.9207586344 0.0
502 1 32.724010794 73.9527586344 0.0
503 1 36.720010794 77.4036586344 0.0
504 1 41.929110794 77.3620586344 0.0
505 1 44.937010794 77.1352586344 0.0
506 1 49.700210794 76.5758586344 0.0
507 1 57.418410794 76.5985586344 0.0
508 1 63.163910794 74.3351586344 0.0
509 1 68.239310794 76.4148586344 0.0
510 1 73.282510794 77.1604586344 0.0
511 1 5.85777079396 78.7317586344 0.0
512 1 10.842510794 77.6702586344 0.0
513 1 16.229110794 76.7368586344 0.0
514 1 21.768210794 77.7483586344 0.0
515 1 27.163810794 77.9289586344 0.0
516 1 32.484710794 79.4507586344 0.0
517 1 37.391410794 80.3301586344 0.0
518 1 43.150810794 81.1391586344 0.0
519 1 45.928010794 79.9717586344 0.0
520 1 51.194910794 79.2792586344 0.0
521 1 56.841210794 79.6057586344 0.0
522 1 64.806910794 79.4553586344 0.0
523 1 67.811510794 79.3908586344 0.0
524 1 73.072810794 80.1275586344 0.0
525 1 0.984490793956 79.9018586344 0.0
526 1 3.79595079396 80.9606586344 0.0
527 1 8.67140079396 79.8092586344 0.0
528 1 13.742810794 78.4819586344 0.0
529 1 18.805510794 78.3781586344 0.0
530 1 24.442310794 79.2253586344 0.0
531 1 29.501410794 79.8531586344 0.0
532 1 34.630710794 81.5722586344 0.0
533 1 40.395310794 79.9420586344 0.0
534 1 41.752210794 1.70900863436 0.0
535 1 48.745610794 81.0660586344 0.0
536 1 53.946210794 80.7355586344 0.0
537 1 59.490010794 81.1797586344 0.0
538 1 62.556710794 81.4600586344 0.0
539 1 70.240710794 81.1498586344 0.0
540 1 76.045910794 80.5726586344 0.0
541 2 3.70580079396 0.418612634361 0.0
542 2 4.87867079396 2.54884863436 0.0
543 2 2.01803079396 2.35999863436 0.0
544 2 8.54464079396 81.3263586344 0.0
545 2 9.88071079396 1.26326863436 0.0
546 2 7.38013079396 1.88203863436 0.0
547 2 13.592110794 79.9850586344 0.0
548 2 12.346510794 0.474496634361 0.0
549 2 14.842410794 82.0198586344 0.0
550 2 18.842710794 79.8952586344 0.0
551 2 20.035910794 0.371782634361 0.0
552 2 17.556410794 82.0251586344 0.0
553 2 24.853510794 1.07659863436 0.0
554 2 25.034610794 80.6290586344 0.0
555 2 27.218210794 0.374277634361 0.0
556 2 29.187510794 81.3247586344 0.0
557 2 29.591510794 1.94153863436 0.0
558 2 34.054910794 0.915148634361 0.0
559 2 34.798010794 3.13153863436 0.0
560 2 32.050510794 2.74948863436 0.0
561 2 40.284710794 2.08656863436 0.0
562 2 39.906810794 4.19523863436 0.0
563 2 37.554410794 3.19152863436 0.0
564 2 42.768310794 2.80747863436 0.0
565 2 42.373810794 4.90241863436 0.0
566 2 45.104910794 4.04152863436 0.0
567 2 48.743610794 0.528272634361 0.0
568 2 50.096710794 2.73408863436 0.0
569 2 47.634210794 3.03958863436 0.0
570 2 53.887910794 0.234832634361 0.0
571 2 55.112010794 2.65344863436 0.0
572 2 52.626110794 2.68755863436 0.0
573 2 57.695610794 2.80127863436 0.0
574 2 60.389910794 2.78132863436 0.0
575 2 59.187010794 0.612335634361 0.0
576 2 63.519410794 0.603210634361 0.0
577 2 63.101310794 2.72431863436 0.0
578 2 65.743610794 2.57674863436 0.0
579 2 69.960410794 0.565779634361 0.0
580 2 71.357510794 2.28745863436 0.0
581 2 68.466910794 2.68642863436 0.0
582 2 75.918810794 0.00850763436073 0.0
583 2 77.164010794 1.99617863436 0.0
584 2 74.283010794 1.88803863436 0.0
585 2 77.090610794 6.35401863436 0.0
586 2 0.902920793956 8.30847863436 0.0
587 2 76.571710794 8.93355863436 0.0
588 2 6.68029079396 4.48611863436 0.0
589 2 7.90545079396 7.15427863436 0.0
590 2 5.77635079396 7.00230863436 0.0
591 2 12.732310794 5.85579863436 0.0
592 2 11.819010794 3.04779863436 0.0
593 2 14.020610794 3.89154863436 0.0
594 2 15.910310794 2.07215863436 0.0
595 2 16.420110794 4.63185863436 0.0
596 2 20.420410794 2.94564863436 0.0
597 2 21.106610794 5.45520863436 0.0
598 2 18.740810794 5.10522863436 0.0
599 2 24.481810794 3.63238863436 0.0
600 2 25.954210794 6.10865863436 0.0
601 2 23.533910794 5.81691863436 0.0
602 2 30.586410794 7.27161863436 0.0
603 2 32.932410794 8.37959863436 0.0
604 2 31.326910794 10.0372586344 0.0
605 2 36.414610794 5.27160863436 0.0
606 2 38.091810794 7.44511863436 0.0
607 2 35.567710794 7.64025863436 0.0
608 2 43.335710794 9.34122863436 0.0
609 2 40.662710794 8.88338863436 0.0
610 2 41.049410794 11.0593586344 0.0
611 2 46.014410794 8.10412863436 0.0
612 2 48.672010794 6.81359863436 0.0
613 2 46.837610794 5.62109863436 0.0
614 2 50.975410794 7.57752863436 0.0
615 2 53.267810794 8.68932863436 0.0
616 2 51.011410794 10.1757586344 0.0
617 2 56.630410794 5.02259863436 0.0
618 2 55.793510794 7.46499863436 0.0
619 2 58.271510794 7.29471863436 0.0
620 2 63.302010794 7.29575863436 0.0
621 2 61.954310794 4.88963863436 0.0
622 2 60.797210794 7.11089863436 0.0
623 2 67.432110794 4.84027863436 0.0
624 2 67.558410794 7.70499863436 0.0
625 2 69.526510794 6.41256863436 0.0
626 2 72.306610794 6.15434863436 0.0
627 2 75.072810794 5.18051863436 0.0
628 2 73.152810794 3.89987863436 0.0
629 2 3.50676079396 8.60395863436 0.0
630 2 1.58097079396 10.5551586344 0.0
631 2 9.92041079396 9.06624863436 0.0
632 2 7.65508079396 9.79831863436 0.0
633 2 16.600110794 9.74522863436 0.0
634 2 16.097910794 12.1602586344 0.0
635 2 18.683110794 11.3662586344 0.0
636 2 14.561510794 7.87357863436 0.0
637 2 16.814410794 7.13068863436 0.0
638 2 23.816610794 9.63159863436 0.0
639 2 22.130410794 7.96465863436 0.0
640 2 21.208010794 10.4485586344 0.0
641 2 28.316710794 6.66228863436 0.0
642 2 26.241710794 8.62769863436 0.0
643 2 35.983710794 12.2764586344 0.0
644 2 34.678210794 10.0686586344 0.0
645 2 33.135510794 11.7522586344 0.0
646 2 41.511610794 13.1835586344 0.0
647 2 38.759210794 12.6904586344 0.0
648 2 45.265910794 10.5729586344 0.0
649 2 46.805110794 12.7280586344 0.0
650 2 44.167310794 12.8495586344 0.0
651 2 51.943210794 12.1598586344 0.0
652 2 49.335310794 12.5656586344 0.0
653 2 55.524910794 9.88495863436 0.0
654 2 57.501610794 11.8218586344 0.0
655 2 54.748410794 12.0028586344 0.0
656 2 61.925610794 11.6955586344 0.0
657 2 60.463010794 9.30325863436 0.0
658 2 63.009710794 9.48475863436 0.0
659 2 65.620610794 8.91755863436 0.0
660 2 71.023710794 8.35206863436 0.0
661 2 72.233410794 10.7281586344 0.0
662 2 69.882910794 10.8045586344 0.0
663 2 77.264610794 11.1274586344 0.0
664 2 74.682510794 10.9764586344 0.0
665 2 77.110510794 15.2939586344 0.0
666 2 1.93597079396 15.0676586344 0.0
667 2 0.595990793956 13.2022586344 0.0
668 2 6.21874079396 12.2994586344 0.0
669 2 6.83881079396 14.9527586344 0.0
670 2 4.57908079396 14.5561586344 0.0
671 2 11.204510794 13.8817586344 0.0
672 2 11.476410794 16.4839586344 0.0
673 2 9.15880079396 15.6962586344 0.0
674 2 16.399210794 16.6581586344 0.0
675 2 15.012610794 14.6114586344 0.0
676 2 13.774410794 16.9731586344 0.0
677 2 21.411110794 15.3564586344 0.0
678 2 20.985410794 12.8174586344 0.0
679 2 23.377810794 13.4083586344 0.0
680 2 25.189410794 11.3536586344 0.0
681 2 25.798610794 13.8938586344 0.0
682 2 30.631910794 12.6654586344 0.0
683 2 30.121210794 15.3112586344 0.0
684 2 28.246610794 14.2111586344 0.0
685 2 36.651110794 14.4466586344 0.0
686 2 36.633710794 17.0765586344 0.0
687 2 34.476410794 16.2689586344 0.0
688 2 43.346610794 15.1421586344 0.0
689 2 45.489310794 16.3830586344 0.0
690 2 43.200610794 17.7748586344 0.0
691 2 47.229310794 17.8199586344 0.0
692 2 48.836010794 19.7148586344 0.0
693 2 47.113810794 20.8057586344 0.0
694 2 53.344410794 14.1059586344 0.0
695 2 54.743210794 16.2802586344 0.0
696 2 52.685910794 16.9006586344 0.0
697 2 58.579210794 14.0638586344 0.0
698 2 59.676810794 16.5387586344 0.0
699 2 57.255910794 16.2180586344 0.0
700 2 62.704210794 14.4429586344 0.0
701 2 64.208110794 17.1321586344 0.0
702 2 62.065710794 16.6844586344 0.0
703 2 69.912610794 16.0705586344 0.0
704 2 69.255510794 13.2259586344 0.0
705 2 71.582010794 14.6513586344 0.0
706 2 73.304010794 13.1745586344 0.0
707 2 74.387910794 15.4555586344 0.0
708 2 0.967810793956 18.3859586344 0.0
709 2 3.33825079396 19.5414586344 0.0
710 2 3.08473079396 16.9490586344 0.0
711 2 7.87183079396 20.3323586344 0.0
712 2 7.35097079396 17.6333586344 0.0
713 2 5.66872079396 19.8075586344 0.0
714 2 14.460210794 22.7327586344 0.0
715 2 12.279610794 21.7917586344 0.0
716 2 12.216610794 24.4228586344 0.0
717 2 17.735110794 18.7695586344 0.0
718 2 19.517210794 20.1470586344 0.0
719 2 16.937010794 21.2934586344 0.0
720 2 22.039410794 20.7057586344 0.0
721 2 24.499610794 20.9634586344 0.0
722 2 23.145810794 23.2137586344 0.0
723 2 28.935910794 17.5419586344 0.0
724 2 26.979810794 16.4193586344 0.0
725 2 26.694810794 19.1956586344 0.0
726 2 33.670510794 18.6036586344 0.0
727 2 35.791410794 19.3874586344 0.0
728 2 33.790910794 21.3064586344 0.0
729 2 38.373510794 19.1677586344 0.0
730 2 41.012710794 19.4912586344 0.0
731 2 39.008110794 21.3995586344 0.0
732 2 47.555210794 23.6966586344 0.0
733 2 45.439310794 22.0150586344 0.0
734 2 51.190910794 19.2388586344 0.0
735 2 50.550110794 21.7679586344 0.0
736 2 56.561110794 18.4270586344 0.0
737 2 57.849210794 21.0404586344 0.0
738 2 55.552610794 20.4005586344 0.0
739 2 60.939710794 18.9791586344 0.0
740 2 60.028310794 21.4094586344 0.0
741 2 62.519510794 21.0509586344 0.0
742 2 66.242910794 18.8947586344 0.0
743 2 64.412810794 20.0465586344 0.0
744 2 70.900310794 18.8175586344 0.0
745 2 70.268510794 21.2924586344 0.0
746 2 72.651710794 21.0742586344 0.0
747 2 77.137710794 19.9792586344 0.0
748 2 76.486910794 17.3785586344 0.0
749 2 76.341210794 24.6986586344 0.0
750 2 1.04601079396 25.0644586344 0.0
751 2 77.474310794 22.7577586344 0.0
752 2 3.43496079396 24.7126586344 0.0
753 2 5.92092079396 24.0318586344 0.0
754 2 4.34117079396 22.1152586344 0.0
755 2 10.083210794 21.0628586344 0.0
756 2 8.14124079396 23.0216586344 0.0
757 2 15.803410794 25.8971586344 0.0
758 2 17.948310794 26.4000586344 0.0
759 2 16.694710794 23.7154586344 0.0
760 2 25.032310794 24.2014586344 0.0
761 2 23.181110794 26.1526586344 0.0
762 2 27.437710794 24.5372586344 0.0
763 2 29.857410794 25.1569586344 0.0
764 2 28.201610794 27.1256586344 0.0
765 2 34.635810794 23.5856586344 0.0
766 2 32.248810794 23.7429586344 0.0
767 2 39.432410794 23.8244586344 0.0
768 2 37.103710794 23.5530586344 0.0
769 2 43.601510794 23.0947586344 0.0
770 2 44.441110794 25.6763586344 0.0
771 2 41.936310794 24.7299586344 0.0
772 2 49.740310794 24.1184586344 0.0
773 2 49.077210794 26.3233586344 0.0
774 2 54.023910794 22.2790586344 0.0
775 2 54.777910794 24.9049586344 0.0
776 2 52.332510794 23.6618586344 0.0
777 2 58.672710794 23.6907586344 0.0
778 2 57.216610794 25.6805586344 0.0
779 2 59.966110794 25.8240586344 0.0
780 2 63.884010794 23.0239586344 0.0
781 2 64.826710794 25.4398586344 0.0
782 2 62.457810794 25.5110586344 0.0
783 2 67.338710794 25.7603586344 0.0
784 2 69.730710794 26.2544586344 0.0
785 2 68.860910794 23.6227586344 0.0
786 2 74.239410794 26.1942586344 0.0
787 2 74.137010794 23.4915586344 0.0
788 2 4.37721079396 29.2749586344 0.0
789 2 2.65650079396 27.2765586344 0.0
790 2 1.65180079396 29.5886586344 0.0
791 2 7.70225079396 25.8278586344 0.0
792 2 9.17141079396 28.0697586344 0.0
793 2 6.77244079396 28.3883586344 0.0
794 2 13.217110794 26.3541586344 0.0
795 2 11.162210794 27.2624586344 0.0
796 2 19.527710794 28.6665586344 0.0
797 2 17.100610794 28.8059586344 0.0
798 2 26.611710794 29.1479586344 0.0
799 2 29.195610794 29.5388586344 0.0
800 2 31.460110794 29.0977586344 0.0
801 2 31.772410794 26.3779586344 0.0
802 2 33.706810794 27.6207586344 0.0
803 2 35.640510794 25.9095586344 0.0
804 2 35.691710794 28.7444586344 0.0
805 2 39.756110794 29.1351586344 0.0