ITEM: TIMESTEP
0
ITEM: NUMBER OF ATOMS
1350
ITEM: BOX BOUNDS xy xz yz pp pp pp
0.0 77.9425353716 0
0.0 81.7601787947 0
-10.0 10.0 0
ITEM: ATOMS id type x y z vx vy vz
1 1 2.04589546264 3.63768939735 0.0 0.0 0.0 0.0
2 1 7.01388546264 3.93346939735 0.0 0.0 0.0 0.0
3 1 13.5964054626 2.46203939735 0.0 0.0 0.0 0.0
4 1 18.9445054626 1.36819939735 0.0 0.0 0.0 0.0
5 1 23.4496054626 0.43610839735 0.0 0.0 0.0 0.0
6 1 28.1985054626 80.6010893973 0.0 0.0 0.0 0.0
7 1 33.4120054626 81.4546893973 0.0 0.0 0.0 0.0
8 1 39.4606054626 81.7529893973 0.0 0.0 0.0 0.0
9 1 42.3247054626 0.82627939735 0.0 0.0 0.0 0.0
10 1 50.0300054626 0.43950239735 0.0 0.0 0.0 0.0
11 1 52.9430054626 1.28893939735 0.0 0.0 0.0 0.0
12 1 60.9645054626 3.27159939735 0.0 0.0 0.0 0.0
13 1 66.4528054626 2.92044939735 0.0 0.0 0.0 0.0
14 1 69.4430054626 2.31696939735 0.0 0.0 0.0 0.0
15 1 75.3114054626 2.41169939735 0.0 0.0 0.0 0.0
16 1 77.5320054626 7.68827939735 0.0 0.0 0.0 0.0
17 1 4.14865546264 8.38804939735 0.0 0.0 0.0 0.0
18 1 8.60712546264 6.51290939735 0.0 0.0 0.0 0.0
19 1 16.2409054626 6.07320939735 0.0 0.0 0.0 0.0
20 1 21.3616054626 5.74010939735 0.0 0.0 0.0 0.0
21 1 27.8033054626 3.82459939735 0.0 0.0 0.0 0.0
22 1 30.8020054626 3.77180939735 0.0 0.0 0.0 0.0
23 1 35.3078054626 5.30945939735 0.0 0.0 0.0 0.0
24 1 39.6620054626 4.88545939735 0.0 0.0 0.0 0.0
25 1 45.9033054626 7.12882939735 0.0 0.0 0.0 0.0
26 1 51.3023054626 6.84651939735 0.0 0.0 0.0 0.0
27 1 55.7092054626 8.65217939735 0.0 0.0 0.0 0.0
28 1 60.5641054626 8.13580939735 0.0 0.0 0.0 0.0
29 1 67.3517054626 8.87546939735 0.0 0.0 0.0 0.0
30 1 72.6464054626 6.14590939735 0.0 0.0 0.0 0.0
31 1 2.07759546264 12.8891893973 0.0 0.0 0.0 0.0
32 1 7.02238546264 12.1018893973 0.0 0.0 0.0 0.0
33 1 12.1660054626 10.6739893973 0.0 0.0 0.0 0.0
34 1 20.1064054626 10.1996893973 0.0 0.0 0.0 0.0
35 1 23.1167054626 10.2647893973 0.0 0.0 0.0 0.0
36 1 28.2043054626 9.25292939735 0.0 0.0 0.0 0.0
37 1 33.5216054626 9.19172939735 0.0 0.0 0.0 0.0
38 1 38.7998054626 9.96508939735 0.0 0.0 0.0 0.0
39 1 44.4009054626 9.77168939735 0.0 0.0 0.0 0.0
40 1 49.7244054626 9.51046939735 0.0 0.0 0.0 0.0
41 1 54.3847054626 11.3376893973 0.0 0.0 0.0 0.0
42 1 61.3309054626 14.1508893973 0.0 0.0 0.0 0.0
43 1 63.1021054626 9.77858939735 0.0 0.0 0.0 0.0
44 1 70.9457054626 9.99708939735 0.0 0.0 0.0 0.0
45 1 75.6496054626 11.2742893973 0.0 0.0 0.0 0.0
46 1 77.3897054626 18.8275893973 0.0 0.0 0.0 0.0
47 1 4.63861546264 17.1732893973 0.0 0.0 0.0 0.0
48 1 9.47010546264 15.7186893973 0.0 0.0 0.0 0.0
49 1 14.5930054626 14.9064893973 0.0 0.0 0.0 0.0
50 1 19.5863054626 14.7916893973 0.0 0.0 0.0 0.0
51 1 27.6474054626 13.7225893973 0.0 0.0 0.0 0.0
52 1 30.6662054626 13.6106893973 0.0 0.0 0.0 0.0
53 1 36.1497054626 14.0722893973 0.0 0.0 0.0 0.0
54 1 41.4809054626 14.1633893973 0.0 0.0 0.0 0.0
55 1 46.4799054626 14.1325893973 0.0 0.0 0.0 0.0
56 1 51.5835054626 14.9565893973 0.0 0.0 0.0 0.0
57 1 55.7151054626 14.0389893973 0.0 0.0 0.0 0.0
58 1 65.2856054626 15.4359893973 0.0 0.0 0.0 0.0
59 1 72.5818054626 16.1075893973 0.0 0.0 0.0 0.0
60 1 70.4400054626 13.9829893973 0.0 0.0 0.0 0.0
61 1 3.32586546264 22.1616893973 0.0 0.0 0.0 0.0
62 1 8.81150546264 20.7530893973 0.0 0.0 0.0 0.0
63 1 11.5974054626 19.6945893973 0.0 0.0 0.0 0.0
64 1 16.1044054626 19.3158893973 0.0 0.0 0.0 0.0
65 1 22.5005054626 18.8427893973 0.0 0.0 0.0 0.0
66 1 27.1561054626 18.1978893973 0.0 0.0 0.0 0.0
67 1 32.5475054626 18.0174893973 0.0 0.0 0.0 0.0
68 1 38.9828054626 18.6298893973 0.0 0.0 0.0 0.0
69 1 44.3552054626 18.9283893973 0.0 0.0 0.0 0.0
70 1 49.4731054626 18.9913893973 0.0 0.0 0.0 0.0
71 1 54.5564054626 19.5663893973 0.0 0.0 0.0 0.0
72 1 61.0616054626 19.3959893973 0.0 0.0 0.0 0.0
73 1 67.6993054626 20.5919893973 0.0 0.0 0.0 0.0
74 1 70.6525054626 21.0793893973 0.0 0.0 0.0 0.0
75 1 75.9402054626 21.4662893973 0.0 0.0 0.0 0.0
76 1 77.2901054626 25.9460893973 0.0 0.0 0.0 0.0
77 1 6.47557546264 26.7371893973 0.0 0.0 0.0 0.0
78 1 10.6741054626 26.3050893973 0.0 0.0 0.0 0.0
79 1 15.6393054626 23.9197893973 0.0 0.0 0.0 0.0
80 1 20.9597054626 24.1497893973 0.0 0.0 0.0 0.0
81 1 25.9702054626 23.2057893973 0.0 0.0 0.0 0.0
82 1 30.3993054626 22.3706893973 0.0 0.0 0.0 0.0
83 1 33.8762054626 20.7090893973 0.0 0.0 0.0 0.0
84 1 40.3023054626 21.3489893973 0.0 0.0 0.0 0.0
85 1 47.1350054626 23.5177893973 0.0 0.0 0.0 0.0
86 1 52.4835054626 23.7839893973 0.0 0.0 0.0 0.0
87 1 56.0381054626 22.1992893973 0.0 0.0 0.0 0.0
88 1 61.9071054626 26.6609893973 0.0 0.0 0.0 0.0
89 1 67.0238054626 27.4587893973 0.0 0.0 0.0 0.0
90 1 72.4521054626 25.6419893973 0.0 0.0 0.0 0.0
91 1 1.43571546264 30.9008893973 0.0 0.0 0.0 0.0
92 1 4.39830546264 28.8380893973 0.0 0.0 0.0 0.0
93 1 12.4918054626 28.7404893973 0.0 0.0 0.0 0.0
94 1 19.2245054626 26.5791893973 0.0 0.0 0.0 0.0
95 1 23.8042054626 28.1497893973 0.0 0.0 0.0 0.0
96 1 29.3071054626 27.6071893973 0.0 0.0 0.0 0.0
97 1 33.9433054626 26.5349893973 0.0 0.0 0.0 0.0
98 1 38.1982054626 28.9833893973 0.0 0.0 0.0 0.0
99 1 43.8987054626 27.5951893973 0.0 0.0 0.0 0.0
100 1 50.6711054626 27.8400893973 0.0 0.0 0.0 0.0
101 1 56.1084054626 28.0434893973 0.0 0.0 0.0 0.0
102 1 61.3034054626 29.6052893973 0.0 0.0 0.0 0.0
103 1 66.4747054626 30.4045893973 0.0 0.0 0.0 0.0
104 1 71.9486054626 32.0273893973 0.0 0.0 0.0 0.0
105 1 74.5739054626 30.5778893973 0.0 0.0 0.0 0.0
106 1 1.04443546264 34.6368893973 0.0 0.0 0.0 0.0
107 1 5.80873546264 34.3925893973 0.0 0.0 0.0 0.0
108 1 10.9179054626 34.0865893973 0.0 0.0 0.0 0.0
109 1 17.1798054626 32.1331893973 0.0 0.0 0.0 0.0
110 1 20.1931054626 31.9142893973 0.0 0.0 0.0 0.0
111 1 25.9053054626 31.8876893973 0.0 0.0 0.0 0.0
112 1 31.4277054626 31.8852893973 0.0 0.0 0.0 0.0
113 1 36.7358054626 31.6517893973 0.0 0.0 0.0 0.0
114 1 41.9785054626 31.9245893973 0.0 0.0 0.0 0.0
115 1 45.9896054626 29.8047893973 0.0 0.0 0.0 0.0
116 1 53.3996054626 34.1532893973 0.0 0.0 0.0 0.0
117 1 58.7514054626 33.1734893973 0.0 0.0 0.0 0.0
118 1 63.5092054626 34.5148893973 0.0 0.0 0.0 0.0
119 1 68.9129054626 36.4548893973 0.0 0.0 0.0 0.0
120 1 74.1209054626 36.5210893973 0.0 0.0 0.0 0.0
121 1 4.27347546264 39.2335893973 0.0 0.0 0.0 0.0
122 1 8.72143546264 41.1849893973 0.0 0.0 0.0 0.0
123 1 13.8184054626 38.7760893973 0.0 0.0 0.0 0.0
124 1 18.1974054626 37.4253893973 0.0 0.0 0.0 0.0
125 1 23.7128054626 35.8143893973 0.0 0.0 0.0 0.0
126 1 28.3953054626 37.9853893973 0.0 0.0 0.0 0.0
127 1 33.8372054626 36.2824893973 0.0 0.0 0.0 0.0
128 1 39.5369054626 36.2302893973 0.0 0.0 0.0 0.0
129 1 46.4015054626 35.2320893973 0.0 0.0 0.0 0.0
130 1 53.2540054626 37.1373893973 0.0 0.0 0.0 0.0
131 1 56.1429054626 37.9126893973 0.0 0.0 0.0 0.0
132 1 60.2867054626 38.5648893973 0.0 0.0 0.0 0.0
133 1 64.9047054626 39.2337893973 0.0 0.0 0.0 0.0
134 1 70.1463054626 39.2012893973 0.0 0.0 0.0 0.0
135 1 77.7580054626 39.8146893973 0.0 0.0 0.0 0.0
136 1 1.86030546264 44.5214893973 0.0 0.0 0.0 0.0
137 1 8.65838546264 44.1928893973 0.0 0.0 0.0 0.0
138 1 13.6514054626 46.1267893973 0.0 0.0 0.0 0.0
139 1 17.3119054626 42.9323893973 0.0 0.0 0.0 0.0
140 1 21.7774054626 40.4805893973 0.0 0.0 0.0 0.0
141 1 27.2547054626 40.7411893973 0.0 0.0 0.0 0.0
142 1 31.8936054626 40.9550893973 0.0 0.0 0.0 0.0
143 1 35.0372054626 39.0683893973 0.0 0.0 0.0 0.0
144 1 41.6346054626 38.3545893973 0.0 0.0 0.0 0.0
145 1 45.5904054626 42.7338893973 0.0 0.0 0.0 0.0
146 1 52.0210054626 41.7920893973 0.0 0.0 0.0 0.0
147 1 57.3834054626 43.4050893973 0.0 0.0 0.0 0.0
148 1 61.8965054626 43.7857893973 0.0 0.0 0.0 0.0
149 1 69.0416054626 43.2130893973 0.0 0.0 0.0 0.0
150 1 74.3533054626 43.5141893973 0.0 0.0 0.0 0.0
151 1 4.13019546264 46.5509893973 0.0 0.0 0.0 0.0
152 1 11.8843054626 48.5557893973 0.0 0.0 0.0 0.0
153 1 16.8828054626 51.1650893973 0.0 0.0 0.0 0.0
154 1 21.8739054626 45.6618893973 0.0 0.0 0.0 0.0
155 1 24.7275054626 44.7594893973 0.0 0.0 0.0 0.0
156 1 30.0735054626 45.6402893973 0.0 0.0 0.0 0.0
157 1 35.4422054626 45.0306893973 0.0 0.0 0.0 0.0
158 1 40.2119054626 43.8954893973 0.0 0.0 0.0 0.0
159 1 44.1298054626 47.3177893973 0.0 0.0 0.0 0.0
160 1 47.6926054626 44.8654893973 0.0 0.0 0.0 0.0
161 1 53.4725054626 49.2176893973 0.0 0.0 0.0 0.0
162 1 57.6656054626 46.4494893973 0.0 0.0 0.0 0.0
163 1 64.1517054626 45.7346893973 0.0 0.0 0.0 0.0
164 1 71.1051054626 47.6148893973 0.0 0.0 0.0 0.0
165 1 75.7099054626 48.0546893973 0.0 0.0 0.0 0.0
166 1 77.1237054626 52.5879893973 0.0 0.0 0.0 0.0
167 1 4.35357546264 52.2049893973 0.0 0.0 0.0 0.0
168 1 9.02628546264 52.3253893973 0.0 0.0 0.0 0.0
169 1 13.5340054626 53.7242893973 0.0 0.0 0.0 0.0
170 1 18.2563054626 48.4781893973 0.0 0.0 0.0 0.0
171 1 26.5667054626 49.3914893973 0.0 0.0 0.0 0.0
172 1 32.0467054626 49.5922893973 0.0 0.0 0.0 0.0
173 1 39.9804054626 48.7265893973 0.0 0.0 0.0 0.0
174 1 42.7778054626 49.9861893973 0.0 0.0 0.0 0.0
175 1 48.1168054626 50.5942893973 0.0 0.0 0.0 0.0
176 1 52.3041054626 53.8840893973 0.0 0.0 0.0 0.0
177 1 57.6278054626 52.1041893973 0.0 0.0 0.0 0.0
178 1 64.6252054626 51.0403893973 0.0 0.0 0.0 0.0
179 1 67.6475054626 51.1357893973 0.0 0.0 0.0 0.0
180 1 71.6335054626 54.2644893973 0.0 0.0 0.0 0.0
181 1 2.32319546264 56.8359893973 0.0 0.0 0.0 0.0
182 1 7.31835546264 57.1404893973 0.0 0.0 0.0 0.0
183 1 10.2882054626 57.8086893973 0.0 0.0 0.0 0.0
184 1 17.2418054626 57.0769893973 0.0 0.0 0.0 0.0
185 1 24.6047054626 53.2657893973 0.0 0.0 0.0 0.0
186 1 27.6477054626 53.3327893973 0.0 0.0 0.0 0.0
187 1 35.3009054626 53.8843893973 0.0 0.0 0.0 0.0
188 1 38.2840054626 53.6365893973 0.0 0.0 0.0 0.0
189 1 45.9509054626 54.7211893973 0.0 0.0 0.0 0.0
190 1 51.6165054626 56.8254893973 0.0 0.0 0.0 0.0
191 1 54.6105054626 57.0379893973 0.0 0.0 0.0 0.0
192 1 60.1546054626 56.2834893973 0.0 0.0 0.0 0.0
193 1 65.2696054626 56.2968893973 0.0 0.0 0.0 0.0
194 1 70.1088054626 56.8320893973 0.0 0.0 0.0 0.0
195 1 75.1074054626 57.1915893973 0.0 0.0 0.0 0.0
196 1 77.9159054626 61.4950893973 0.0 0.0 0.0 0.0
197 1 5.22690546264 65.7112893973 0.0 0.0 0.0 0.0
198 1 8.61419546264 63.3623893973 0.0 0.0 0.0 0.0
199 1 12.4387054626 60.0083893973 0.0 0.0 0.0 0.0
200 1 19.9766054626 60.1009893973 0.0 0.0 0.0 0.0
201 1 25.8349054626 57.1163893973 0.0 0.0 0.0 0.0
202 1 28.6967054626 56.1491893973 0.0 0.0 0.0 0.0
203 1 36.9745054626 58.1367893973 0.0 0.0 0.0 0.0
204 1 39.9239054626 58.7914893973 0.0 0.0 0.0 0.0
205 1 44.4068054626 58.8968893973 0.0 0.0 0.0 0.0
206 1 50.1276054626 62.1858893973 0.0 0.0 0.0 0.0
207 1 55.8401054626 59.7795893973 0.0 0.0 0.0 0.0
208 1 61.3080054626 63.3892893973 0.0 0.0 0.0 0.0
209 1 68.8719054626 61.1372893973 0.0 0.0 0.0 0.0
210 1 71.9525054626 61.5695893973 0.0 0.0 0.0 0.0
211 1 2.61535546264 67.1797893973 0.0 0.0 0.0 0.0
212 1 10.6747054626 68.0111893973 0.0 0.0 0.0 0.0
213 1 12.7575054626 65.8030893973 0.0 0.0 0.0 0.0
214 1 17.6429054626 64.9027893973 0.0 0.0 0.0 0.0
215 1 22.9972054626 63.6691893973 0.0 0.0 0.0 0.0
216 1 27.9735054626 62.2286893973 0.0 0.0 0.0 0.0
217 1 32.7366054626 63.2902893973 0.0 0.0 0.0 0.0
218 1 37.0901054626 63.2835893973 0.0 0.0 0.0 0.0
219 1 42.5242054626 63.9064893973 0.0 0.0 0.0 0.0
220 1 49.0127054626 65.0198893973 0.0 0.0 0.0 0.0
221 1 52.8101054626 63.5848893973 0.0 0.0 0.0 0.0
222 1 59.1320054626 67.1193893973 0.0 0.0 0.0 0.0
223 1 62.2315054626 69.9863893973 0.0 0.0 0.0 0.0
224 1 69.2374054626 65.5264893973 0.0 0.0 0.0 0.0
225 1 74.9661054626 65.3803893973 0.0 0.0 0.0 0.0
226 1 76.0274054626 72.5492893973 0.0 0.0 0.0 0.0
227 1 3.22895546264 72.0936893973 0.0 0.0 0.0 0.0
228 1 7.18616546264 70.9898893973 0.0 0.0 0.0 0.0
229 1 17.0930054626 69.7034893973 0.0 0.0 0.0 0.0
230 1 19.6605054626 67.1702893973 0.0 0.0 0.0 0.0
231 1 25.4506054626 67.2957893973 0.0 0.0 0.0 0.0
232 1 30.8575054626 67.3178893973 0.0 0.0 0.0 0.0
233 1 35.7581054626 68.2331893973 0.0 0.0 0.0 0.0
234 1 38.7418054626 67.6736893973 0.0 0.0 0.0 0.0
235 1 44.0298054626 66.5559893973 0.0 0.0 0.0 0.0
236 1 51.8396054626 69.3910893973 0.0 0.0 0.0 0.0
237 1 58.0415054626 69.9417893973 0.0 0.0 0.0 0.0
238 1 65.1976054626 69.8161893973 0.0 0.0 0.0 0.0
239 1 68.9631054626 70.6707893973 0.0 0.0 0.0 0.0
240 1 72.9650054626 69.3519893973 0.0 0.0 0.0 0.0
241 1 1.76418546264 76.6270893973 0.0 0.0 0.0 0.0
242 1 7.32412546264 77.9560893973 0.0 0.0 0.0 0.0
243 1 11.0820054626 73.9148893973 0.0 0.0 0.0 0.0
244 1 18.5480054626 74.8349893973 0.0 0.0 0.0 0.0
245 1 22.5255054626 72.1522893973 0.0 0.0 0.0 0.0
246 1 28.0309054626 71.5151893973 0.0 0.0 0.0 0.0
247 1 33.6884054626 75.5981893973 0.0 0.0 0.0 0.0
248 1 39.5408054626 73.7678893973 0.0 0.0 0.0 0.0
249 1 44.1010054626 73.0523893973 0.0 0.0 0.0 0.0
250 1 49.4451054626 72.7533893973 0.0 0.0 0.0 0.0
251 1 53.2778054626 72.0827893973 0.0 0.0 0.0 0.0
252 1 59.0458054626 77.5320893973 0.0 0.0 0.0 0.0
253 1 67.2467054626 75.3476893973 0.0 0.0 0.0 0.0
254 1 70.1978054626 74.7101893973 0.0 0.0 0.0 0.0
255 1 74.8254054626 75.2853893973 0.0 0.0 0.0 0.0
256 1 77.2104054626 4.71866939735 0.0 0.0 0.0 0.0
257 1 4.42384546264 5.42386939735 0.0 0.0 0.0 0.0
258 1 13.3048054626 5.46045939735 0.0 0.0 0.0 0.0
259 1 16.5176054626 3.09981939735 0.0 0.0 0.0 0.0
260 1 21.5818054626 2.76316939735 0.0 0.0 0.0 0.0
261 1 26.3460054626 1.19602939735 0.0 0.0 0.0 0.0
262 1 30.5950054626 0.72444939735 0.0 0.0 0.0 0.0
263 1 34.9012054626 2.32036939735 0.0 0.0 0.0 0.0
264 1 37.8700054626 2.48659939735 0.0 0.0 0.0 0.0
265 1 42.4424054626 3.80108939735 0.0 0.0 0.0 0.0
266 1 48.0342054626 2.73021939735 0.0 0.0 0.0 0.0
267 1 53.1930054626 4.38713939735 0.0 0.0 0.0 0.0
268 1 58.9850054626 5.55061939735 0.0 0.0 0.0 0.0
269 1 63.8167054626 4.42763939735 0.0 0.0 0.0 0.0
270 1 72.3746054626 3.15073939735 0.0 0.0 0.0 0.0
271 1 1.59568546264 9.92508939735 0.0 0.0 0.0 0.0
272 1 7.04253546264 9.09503939735 0.0 0.0 0.0 0.0
273 1 11.3580054626 7.74881939735 0.0 0.0 0.0 0.0
274 1 18.9019054626 7.45138939735 0.0 0.0 0.0 0.0
275 1 23.8698054626 7.36426939735 0.0 0.0 0.0 0.0
276 1 26.7710054626 6.62866939735 0.0 0.0 0.0 0.0
277 1 32.5015054626 6.31932939735 0.0 0.0 0.0 0.0
278 1 37.7189054626 7.14617939735 0.0 0.0 0.0 0.0
279 1 45.3946054626 4.16827939735 0.0 0.0 0.0 0.0
280 1 48.5540054626 5.69487939735 0.0 0.0 0.0 0.0
281 1 55.9479054626 5.65492939735 0.0 0.0 0.0 0.0
282 1 58.3253054626 10.1046893973 0.0 0.0 0.0 0.0
283 1 64.7899054626 7.30052939735 0.0 0.0 0.0 0.0
284 1 69.8671054626 7.23471939735 0.0 0.0 0.0 0.0
285 1 74.6463054626 8.42667939735 0.0 0.0 0.0 0.0
286 1 77.1932054626 13.8460893973 0.0 0.0 0.0 0.0
287 1 4.79935546264 14.1574893973 0.0 0.0 0.0 0.0
288 1 9.95130546264 12.7462893973 0.0 0.0 0.0 0.0
289 1 14.9235054626 11.9280893973 0.0 0.0 0.0 0.0
290 1 17.9336054626 12.2645893973 0.0 0.0 0.0 0.0
291 1 25.9582054626 11.2430893973 0.0 0.0 0.0 0.0
292 1 30.8827054626 10.6163893973 0.0 0.0 0.0 0.0
293 1 35.9663054626 11.0414893973 0.0 0.0 0.0 0.0
294 1 41.6372054626 11.1158893973 0.0 0.0 0.0 0.0
295 1 47.1051054626 11.1402893973 0.0 0.0 0.0 0.0
296 1 51.4672054626 11.9540893973 0.0 0.0 0.0 0.0
297 1 58.5408054626 13.0909893973 0.0 0.0 0.0 0.0
298 1 63.9514054626 12.6989893973 0.0 0.0 0.0 0.0
299 1 68.4818054626 11.6818893973 0.0 0.0 0.0 0.0
300 1 72.8593054626 12.2403893973 0.0 0.0 0.0 0.0
301 1 2.45219546264 19.2601893973 0.0 0.0 0.0 0.0
302 1 7.51966546264 18.0281893973 0.0 0.0 0.0 0.0
303 1 12.2597054626 16.7827893973 0.0 0.0 0.0 0.0
304 1 17.1284054626 16.5026893973 0.0 0.0 0.0 0.0
305 1 22.4184054626 15.8434893973 0.0 0.0 0.0 0.0
306 1 25.4330054626 15.7409893973 0.0 0.0 0.0 0.0
307 1 33.2990054626 15.1047893973 0.0 0.0 0.0 0.0
308 1 38.7970054626 15.5943893973 0.0 0.0 0.0 0.0
309 1 43.9904054626 15.8872893973 0.0 0.0 0.0 0.0
310 1 48.8020054626 16.0600893973 0.0 0.0 0.0 0.0
311 1 54.1236054626 16.5809893973 0.0 0.0 0.0 0.0
312 1 62.6213054626 16.8346893973 0.0 0.0 0.0 0.0
313 1 67.4265054626 17.5893893973 0.0 0.0 0.0 0.0
314 1 70.3870054626 18.1045893973 0.0 0.0 0.0 0.0
315 1 75.5979054626 16.3966893973 0.0 0.0 0.0 0.0
316 1 0.477735462644 23.1704893973 0.0 0.0 0.0 0.0
317 1 5.89866546264 23.7990893973 0.0 0.0 0.0 0.0
318 1 8.93129546264 23.7682893973 0.0 0.0 0.0 0.0
319 1 13.9919054626 21.4367893973 0.0 0.0 0.0 0.0
320 1 17.7484054626 21.7933893973 0.0 0.0 0.0 0.0
321 1 25.0925054626 20.3465893973 0.0 0.0 0.0 0.0
322 1 29.8974054626 19.4015893973 0.0 0.0 0.0 0.0
323 1 36.8385054626 20.7155893973 0.0 0.0 0.0 0.0
324 1 43.2559054626 21.7590893973 0.0 0.0 0.0 0.0
325 1 46.9067054626 20.5149893973 0.0 0.0 0.0 0.0
326 1 51.8520054626 20.8341893973 0.0 0.0 0.0 0.0
327 1 58.9422054626 21.5119893973 0.0 0.0 0.0 0.0
328 1 62.8210054626 21.8024893973 0.0 0.0 0.0 0.0
329 1 65.6389054626 22.7462893973 0.0 0.0 0.0 0.0
330 1 73.1789054626 22.7126893973 0.0 0.0 0.0 0.0
331 1 1.56956546264 27.9306893973 0.0 0.0 0.0 0.0
332 1 8.78924546264 28.6413893973 0.0 0.0 0.0 0.0
333 1 16.2527054626 26.8470893973 0.0 0.0 0.0 0.0
334 1 20.6590054626 21.1880893973 0.0 0.0 0.0 0.0
335 1 23.7457054626 25.1771893973 0.0 0.0 0.0 0.0
336 1 28.5508054626 24.7082893973 0.0 0.0 0.0 0.0
337 1 33.1178054626 23.6203893973 0.0 0.0 0.0 0.0
338 1 38.1242054626 23.4283893973 0.0 0.0 0.0 0.0
339 1 44.3384054626 24.5936893973 0.0 0.0 0.0 0.0
340 1 49.7472054626 24.9985893973 0.0 0.0 0.0 0.0
341 1 55.2022054626 25.1141893973 0.0 0.0 0.0 0.0
342 1 60.7112054626 23.9223893973 0.0 0.0 0.0 0.0
343 1 64.7093054626 25.5861893973 0.0 0.0 0.0 0.0
344 1 70.0067054626 27.3969893973 0.0 0.0 0.0 0.0
345 1 74.7590054626 27.5651893973 0.0 0.0 0.0 0.0
346 1 76.8821054626 32.4985893973 0.0 0.0 0.0 0.0
347 1 4.28798546264 31.8144893973 0.0 0.0 0.0 0.0
348 1 10.5658054626 31.0653893973 0.0 0.0 0.0 0.0
349 1 15.3507054626 29.7087893973 0.0 0.0 0.0 0.0
350 1 20.9463054626 29.0231893973 0.0 0.0 0.0 0.0
351 1 26.6598054626 29.0070893973 0.0 0.0 0.0 0.0
352 1 32.0209054626 28.8974893973 0.0 0.0 0.0 0.0
353 1 36.9510054626 26.2316893973 0.0 0.0 0.0 0.0
354 1 41.2290054626 29.0139893973 0.0 0.0 0.0 0.0
355 1 48.9729054626 30.3010893973 0.0 0.0 0.0 0.0
356 1 53.3300054626 29.2206893973 0.0 0.0 0.0 0.0
357 1 58.3354054626 30.1565893973 0.0 0.0 0.0 0.0
358 1 63.6644054626 31.5030893973 0.0 0.0 0.0 0.0
359 1 69.4714054626 30.3565893973 0.0 0.0 0.0 0.0
360 1 71.5324054626 34.9902893973 0.0 0.0 0.0 0.0
361 1 3.52069546264 36.3238893973 0.0 0.0 0.0 0.0
362 1 8.44135546264 35.8180893973 0.0 0.0 0.0 0.0
363 1 13.4279054626 35.7831893973 0.0 0.0 0.0 0.0
364 1 16.3458054626 35.0311893973 0.0 0.0 0.0 0.0
365 1 23.0504054626 32.8944893973 0.0 0.0 0.0 0.0
366 1 28.6349054626 33.1642893973 0.0 0.0 0.0 0.0
367 1 34.1391054626 33.2550893973 0.0 0.0 0.0 0.0
368 1 39.2851054626 33.2503893973 0.0 0.0 0.0 0.0
369 1 44.9066054626 32.6121893973 0.0 0.0 0.0 0.0
370 1 51.6413054626 31.7105893973 0.0 0.0 0.0 0.0
371 1 56.3083054626 34.9038893973 0.0 0.0 0.0 0.0
372 1 60.6684054626 35.5364893973 0.0 0.0 0.0 0.0
373 1 65.8831054626 36.3815893973 0.0 0.0 0.0 0.0
374 1 74.8006054626 39.4306893973 0.0 0.0 0.0 0.0
375 1 77.0828054626 36.8947893973 0.0 0.0 0.0 0.0
376 1 2.29607546264 41.5210893973 0.0 0.0 0.0 0.0
377 1 7.21966546264 38.5872893973 0.0 0.0 0.0 0.0
378 1 11.7069054626 40.9104893973 0.0 0.0 0.0 0.0
379 1 16.5821054626 39.9852893973 0.0 0.0 0.0 0.0
380 1 21.2194054626 37.5300893973 0.0 0.0 0.0 0.0
381 1 26.7304054626 35.5177893973 0.0 0.0 0.0 0.0
382 1 31.3803054626 37.9879893973 0.0 0.0 0.0 0.0
383 1 37.9825054626 38.7679893973 0.0 0.0 0.0 0.0
384 1 44.4862054626 37.5256893973 0.0 0.0 0.0 0.0
385 1 48.3126054626 37.5557893973 0.0 0.0 0.0 0.0
386 1 50.9327054626 38.9999893973 0.0 0.0 0.0 0.0
387 1 57.8743054626 40.3886893973 0.0 0.0 0.0 0.0
388 1 62.3246054626 40.7848893973 0.0 0.0 0.0 0.0
389 1 67.5376054626 40.6454893973 0.0 0.0 0.0 0.0
390 1 72.4272054626 41.1830893973 0.0 0.0 0.0 0.0
391 1 7.15262546264 46.8170893973 0.0 0.0 0.0 0.0
392 1 11.6507054626 43.8996893973 0.0 0.0 0.0 0.0
393 1 16.6527054626 45.8917893973 0.0 0.0 0.0 0.0
394 1 20.3031054626 43.0940893973 0.0 0.0 0.0 0.0
395 1 24.4674054626 41.7765893973 0.0 0.0 0.0 0.0
396 1 29.4893054626 42.7141893973 0.0 0.0 0.0 0.0
397 1 34.6636054626 42.0794893973 0.0 0.0 0.0 0.0
398 1 40.0677054626 40.9004893973 0.0 0.0 0.0 0.0
399 1 46.3668054626 39.8353893973 0.0 0.0 0.0 0.0
400 1 50.6336054626 44.4330893973 0.0 0.0 0.0 0.0
401 1 54.4057054626 43.5958893973 0.0 0.0 0.0 0.0
402 1 60.6551054626 46.5441893973 0.0 0.0 0.0 0.0
403 1 67.0974054626 45.4569893973 0.0 0.0 0.0 0.0
404 1 71.6336054626 44.6982893973 0.0 0.0 0.0 0.0
405 1 76.8381054626 45.2365893973 0.0 0.0 0.0 0.0
406 1 0.214653462644 49.7787893973 0.0 0.0 0.0 0.0
407 1 3.20126546264 49.4179893973 0.0 0.0 0.0 0.0
408 1 8.95492546264 49.2765893973 0.0 0.0 0.0 0.0
409 1 13.9113054626 50.7630893973 0.0 0.0 0.0 0.0
410 1 21.2718054626 48.6053893973 0.0 0.0 0.0 0.0
411 1 27.1909054626 46.4701893973 0.0 0.0 0.0 0.0
412 1 32.8924054626 46.6906893973 0.0 0.0 0.0 0.0
413 1 38.2695054626 46.1912893973 0.0 0.0 0.0 0.0
414 1 43.1530054626 44.4795893973 0.0 0.0 0.0 0.0
415 1 47.0849054626 47.7862893973 0.0 0.0 0.0 0.0
416 1 53.0020054626 46.2484893973 0.0 0.0 0.0 0.0
417 1 56.4977054626 49.2726893973 0.0 0.0 0.0 0.0
418 1 62.9672054626 48.4875893973 0.0 0.0 0.0 0.0
419 1 68.1919054626 48.2163893973 0.0 0.0 0.0 0.0
420 1 73.1790054626 49.7386893973 0.0 0.0 0.0 0.0
421 1 1.87448546264 53.8842893973 0.0 0.0 0.0 0.0
422 1 6.65147546264 54.1649893973 0.0 0.0 0.0 0.0
423 1 10.7566054626 54.8156893973 0.0 0.0 0.0 0.0
424 1 16.4923054626 54.1569893973 0.0 0.0 0.0 0.0
425 1 23.7191054626 50.3894893973 0.0 0.0 0.0 0.0
426 1 29.2446054626 50.7773893973 0.0 0.0 0.0 0.0
427 1 34.7287054626 50.9544893973 0.0 0.0 0.0 0.0
428 1 37.7226054626 50.6970893973 0.0 0.0 0.0 0.0
429 1 45.3062054626 51.7520893973 0.0 0.0 0.0 0.0
430 1 51.1075054626 51.1163893973 0.0 0.0 0.0 0.0
431 1 55.3213054626 54.1036893973 0.0 0.0 0.0 0.0
432 1 60.4310054626 53.3113893973 0.0 0.0 0.0 0.0
433 1 63.4527054626 53.8133893973 0.0 0.0 0.0 0.0
434 1 70.6652054626 51.4515893973 0.0 0.0 0.0 0.0
435 1 74.6289054626 54.2434893973 0.0 0.0 0.0 0.0
436 1 77.7852054626 58.5065893973 0.0 0.0 0.0 0.0
437 1 3.04801546264 61.2130893973 0.0 0.0 0.0 0.0
438 1 4.69292546264 58.6553893973 0.0 0.0 0.0 0.0
439 1 15.4722054626 59.5790893973 0.0 0.0 0.0 0.0
440 1 20.2711054626 57.1087893973 0.0 0.0 0.0 0.0
441 1 23.0710054626 55.8687893973 0.0 0.0 0.0 0.0
442 1 31.4083054626 57.5240893973 0.0 0.0 0.0 0.0
443 1 34.3150054626 56.6922893973 0.0 0.0 0.0 0.0
444 1 40.3548054626 55.8129893973 0.0 0.0 0.0 0.0
445 1 43.3116054626 56.1103893973 0.0 0.0 0.0 0.0
446 1 47.0943054626 57.5401893973 0.0 0.0 0.0 0.0
447 1 58.6824054626 58.8720893973 0.0 0.0 0.0 0.0
448 1 62.7197054626 57.8362893973 0.0 0.0 0.0 0.0
449 1 67.5379054626 58.3608893973 0.0 0.0 0.0 0.0
450 1 72.4907054626 58.6356893973 0.0 0.0 0.0 0.0
451 1 5.65471546264 62.7537893973 0.0 0.0 0.0 0.0
452 1 8.16341546264 66.3395893973 0.0 0.0 0.0 0.0
453 1 11.6141054626 62.9532893973 0.0 0.0 0.0 0.0
454 1 17.5021054626 61.8478893973 0.0 0.0 0.0 0.0
455 1 22.9068054626 60.7071893973 0.0 0.0 0.0 0.0
456 1 25.8539054626 60.1025893973 0.0 0.0 0.0 0.0
457 1 32.5619054626 60.3024893973 0.0 0.0 0.0 0.0
458 1 35.5304054626 60.7286893973 0.0 0.0 0.0 0.0
459 1 42.1453054626 60.8849893973 0.0 0.0 0.0 0.0
460 1 49.6631054626 59.1529893973 0.0 0.0 0.0 0.0
461 1 55.7174054626 62.7851893973 0.0 0.0 0.0 0.0
462 1 61.2419054626 60.4129893973 0.0 0.0 0.0 0.0
463 1 64.0735054626 64.6208893973 0.0 0.0 0.0 0.0
464 1 66.9679054626 63.5252893973 0.0 0.0 0.0 0.0
465 1 74.9471054626 62.3750893973 0.0 0.0 0.0 0.0
466 1 77.5287054626 66.9999893973 0.0 0.0 0.0 0.0
467 1 4.59059546264 69.4539893973 0.0 0.0 0.0 0.0
468 1 10.1939054626 71.0043893973 0.0 0.0 0.0 0.0
469 1 15.5357054626 67.0573893973 0.0 0.0 0.0 0.0
470 1 22.5667054626 66.6044893973 0.0 0.0 0.0 0.0
471 1 25.8899054626 64.3519893973 0.0 0.0 0.0 0.0
472 1 30.0043054626 64.4363893973 0.0 0.0 0.0 0.0
473 1 34.9256054626 65.3450893973 0.0 0.0 0.0 0.0
474 1 39.6544054626 64.8075893973 0.0 0.0 0.0 0.0
475 1 47.0055054626 67.3005893973 0.0 0.0 0.0 0.0
476 1 51.7072054626 66.3762893973 0.0 0.0 0.0 0.0
477 1 58.3902054626 64.2160893973 0.0 0.0 0.0 0.0
478 1 62.1524054626 66.9837893973 0.0 0.0 0.0 0.0
479 1 67.5906054626 68.0268893973 0.0 0.0 0.0 0.0
480 1 72.1311054626 66.4536893973 0.0 0.0 0.0 0.0
481 1 0.796145462644 73.7940893973 0.0 0.0 0.0 0.0
482 1 5.78190546264 73.6355893973 0.0 0.0 0.0 0.0
483 1 14.0541054626 74.3595893973 0.0 0.0 0.0 0.0
484 1 16.4934054626 72.6293893973 0.0 0.0 0.0 0.0
485 1 20.1088054626 70.1677893973 0.0 0.0 0.0 0.0
486 1 28.1399054626 68.5547893973 0.0 0.0 0.0 0.0
487 1 32.9878054626 69.4534893973 0.0 0.0 0.0 0.0
488 1 41.5460054626 71.4832893973 0.0 0.0 0.0 0.0
489 1 41.6567054626 68.4719893973 0.0 0.0 0.0 0.0
490 1 48.8476054626 69.7617893973 0.0 0.0 0.0 0.0
491 1 56.2741054626 72.3712893973 0.0 0.0 0.0 0.0
492 1 60.1206054626 72.1100893973 0.0 0.0 0.0 0.0
493 1 66.5709054626 72.4519893973 0.0 0.0 0.0 0.0
494 1 71.6034054626 72.0359893973 0.0 0.0 0.0 0.0
495 1 75.9541054626 69.5551893973 0.0 0.0 0.0 0.0
496 1 76.8513054626 77.4967893973 0.0 0.0 0.0 0.0
497 1 4.75515546264 76.4492893973 0.0 0.0 0.0 0.0
498 1 10.0851054626 76.7837893973 0.0 0.0 0.0 0.0
499 1 16.0862054626 76.5607893973 0.0 0.0 0.0 0.0
500 1 21.5713054626 75.0116893973 0.0 0.0 0.0 0.0
501 1 25.4809054626 73.1037893973 0.0 0.0 0.0 0.0
502 1 31.0336054626 71.7712893973 0.0 0.0 0.0 0.0
503 1 36.6076054626 74.6605893973 0.0 0.0 0.0 0.0
504 1 42.1468054626 75.3188893973 0.0 0.0 0.0 0.0
505 1 46.8679054626 74.2613893973 0.0 0.0 0.0 0.0
506 1 51.7908054626 74.7257893973 0.0 0.0 0.0 0.0
507 1 58.3689054626 74.5614893973 0.0 0.0 0.0 0.0
508 1 62.0661054626 77.9025893973 0.0 0.0 0.0 0.0
509 1 65.0617054626 77.4142893973 0.0 0.0 0.0 0.0
510 1 72.2750054626 76.8545893973 0.0 0.0 0.0 0.0
511 1 7.96505546264 80.8739893973 0.0 0.0 0.0 0.0
512 1 10.7577054626 79.7338893973 0.0 0.0 0.0 0.0
513 1 15.9075054626 79.5516893973 0.0 0.0 0.0 0.0
514 1 23.6242054626 77.2541893973 0.0 0.0 0.0 0.0
515 1 27.7154054626 75.2200893973 0.0 0.0 0.0 0.0
516 1 30.7585054626 74.7582893973 0.0 0.0 0.0 0.0
517 1 37.1082054626 77.6055893973 0.0 0.0 0.0 0.0
518 1 44.4485054626 77.2703893973 0.0 0.0 0.0 0.0
519 1 47.4493054626 77.2213893973 0.0 0.0 0.0 0.0
520 1 52.4636054626 77.7710893973 0.0 0.0 0.0 0.0
521 1 57.4106054626 80.1295893973 0.0 0.0 0.0 0.0
522 1 62.2343054626 80.8979893973 0.0 0.0 0.0 0.0
523 1 66.9497054626 79.7657893973 0.0 0.0 0.0 0.0
524 1 72.4256054626 79.8510893973 0.0 0.0 0.0 0.0
525 1 77.6145054626 0.42982239735 0.0 0.0 0.0 0.0
526 1 2.71417546264 0.73242939735 0.0 0.0 0.0 0.0
527 1 5.74676546264 1.16653939735 0.0 0.0 0.0 0.0
528 1 13.3827054626 81.2149893973 0.0 0.0 0.0 0.0
529 1 18.8603054626 80.1415893973 0.0 0.0 0.0 0.0
530 1 21.8299054626 79.6618893973 0.0 0.0 0.0 0.0
531 1 26.5778054626 78.0113893973 0.0 0.0 0.0 0.0
532 1 34.2765054626 78.5608893973 0.0 0.0 0.0 0.0
533 1 39.8317054626 78.8116893973 0.0 0.0 0.0 0.0
534 1 42.7022054626 79.6512893973 0.0 0.0 0.0 0.0
535 1 49.7781054626 79.1708893973 0.0 0.0 0.0 0.0
536 1 54.3240054626 80.2680893973 0.0 0.0 0.0 0.0
537 1 59.5808054626 0.54320639735 0.0 0.0 0.0 0.0
538 1 65.0113054626 0.28579539735 0.0 0.0 0.0 0.0
539 1 69.6670054626 81.0712893973 0.0 0.0 0.0 0.0
540 1 75.4291054626 80.1286893973 0.0 0.0 0.0 0.0
541 2 2.39362546264 2.19691939735 0.0 0.0 0.0 0.0
542 2 3.20917546264 4.56399939735 0.0 0.0 0.0 0.0
543 2 0.650645462644 4.13757939735 0.0 0.0 0.0 0.0
544 2 6.47448546264 2.51409939735 0.0 0.0 0.0 0.0
545 2 7.98516546264 5.12230939735 0.0 0.0 0.0 0.0
546 2 5.72650546264 4.70956939735 0.0 0.0 0.0 0.0
547 2 13.2093054626 3.93829939735 0.0 0.0 0.0 0.0
548 2 15.0899054626 2.65796939735 0.0 0.0 0.0 0.0
549 2 13.3669054626 0.96919939735 0.0 0.0 0.0 0.0
550 2 18.8925054626 81.6447893973 0.0 0.0 0.0 0.0
551 2 17.7141054626 2.21516939735 0.0 0.0 0.0 0.0
552 2 20.2451054626 2.09126939735 0.0 0.0 0.0 0.0
553 2 22.6712054626 80.9162893973 0.0 0.0 0.0 0.0
554 2 24.8978054626 0.81460939735 0.0 0.0 0.0 0.0
555 2 22.5958054626 1.67035939735 0.0 0.0 0.0 0.0
556 2 27.4422054626 79.2721893973 0.0 0.0 0.0 0.0
557 2 29.4663054626 81.4593893973 0.0 0.0 0.0 0.0
558 2 27.2281054626 81.7518893973 0.0 0.0 0.0 0.0
559 2 33.8130054626 79.9974893973 0.0 0.0 0.0 0.0
560 2 34.1760054626 1.00554939735 0.0 0.0 0.0 0.0
561 2 31.9732054626 0.11620439735 0.0 0.0 0.0 0.0
562 2 38.5760054626 1.17768939735 0.0 0.0 0.0 0.0
563 2 39.4619054626 80.2730893973 0.0 0.0 0.0 0.0
564 2 40.8717054626 0.47447839735 0.0 0.0 0.0 0.0
565 2 42.7821054626 81.1497893973 0.0 0.0 0.0 0.0
566 2 42.4535054626 2.29887939735 0.0 0.0 0.0 0.0
567 2 48.9628054626 1.53608939735 0.0 0.0 0.0 0.0
568 2 49.8155054626 80.6922893973 0.0 0.0 0.0 0.0
569 2 51.4710054626 0.89890939735 0.0 0.0 0.0 0.0
570 2 53.7179054626 81.7010893973 0.0 0.0 0.0 0.0
571 2 53.1000054626 2.83760939735 0.0 0.0 0.0 0.0
572 2 59.9351054626 4.38141939735 0.0 0.0 0.0 0.0
573 2 60.2007054626 1.94934939735 0.0 0.0 0.0 0.0
574 2 62.4185054626 3.80204939735 0.0 0.0 0.0 0.0
575 2 65.1842054626 3.75617939735 0.0 0.0 0.0 0.0
576 2 65.7200054626 1.59927939735 0.0 0.0 0.0 0.0
577 2 67.9821054626 2.79188939735 0.0 0.0 0.0 0.0
578 2 70.9012054626 2.77053939735 0.0 0.0 0.0 0.0
579 2 69.5505054626 0.80983939735 0.0 0.0 0.0 0.0
580 2 73.8021054626 2.60048939735 0.0 0.0 0.0 0.0
581 2 76.1392054626 3.68102939735 0.0 0.0 0.0 0.0
582 2 76.4642054626 1.44019939735 0.0 0.0 0.0 0.0
583 2 0.544285462644 8.84971939735 0.0 0.0 0.0 0.0
584 2 77.4267054626 6.19525939735 0.0 0.0 0.0 0.0
585 2 76.0787054626 7.99729939735 0.0 0.0 0.0 0.0
586 2 4.21661546264 6.89497939735 0.0 0.0 0.0 0.0
587 2 5.57234546264 8.80664939735 0.0 0.0 0.0 0.0
588 2 2.89503546264 9.17899939735 0.0 0.0 0.0 0.0
589 2 10.0038054626 7.08890939735 0.0 0.0 0.0 0.0
590 2 7.83240546264 7.81863939735 0.0 0.0 0.0 0.0
591 2 16.5329054626 4.59514939735 0.0 0.0 0.0 0.0
592 2 14.7401054626 5.95481939735 0.0 0.0 0.0 0.0
593 2 17.5036054626 6.89119939735 0.0 0.0 0.0 0.0
594 2 21.5139054626 4.25241939735 0.0 0.0 0.0 0.0
595 2 22.6518054626 6.49768939735 0.0 0.0 0.0 0.0
596 2 20.0903054626 6.52641939735 0.0 0.0 0.0 0.0
597 2 27.2426054626 5.21405939735 0.0 0.0 0.0 0.0
598 2 27.0248054626 2.53954939735 0.0 0.0 0.0 0.0