# input file

1350 atoms
2 atom types

0.0 78.1259527138 xlo xhi
0.0 82.1401976634 ylo yhi
-10.0 10.0 zlo zhi
0.0 0.0 0.0 xy xz yz

Masses

1 28.0855 #Si
2 15.9994 #O

Atoms

1 1 1.84103413374 2.33103883169 0.0
2 1 6.85956413374 3.26122883169 0.0
3 1 14.0107141337 4.64844883169 0.0
4 1 18.5161141337 0.99669883169 0.0
5 1 22.7088141337 3.85331883169 0.0
6 1 27.3424141337 1.06565883169 0.0
7 1 33.0371141337 1.06869883169 0.0
8 1 38.1992141337 2.19705883169 0.0
9 1 43.7624141337 1.53671883169 0.0
10 1 49.2214141337 0.79713183169 0.0
11 1 53.8099141337 0.15856383169 0.0
12 1 59.0201141337 81.8129988317 0.0
13 1 65.5264141337 0.50079683169 0.0
14 1 68.1282141337 2.03228883169 0.0
15 1 74.5083141337 2.70081883169 0.0
16 1 0.0299561337434 6.61714883169 0.0
17 1 4.69513413374 7.25127883169 0.0
18 1 8.89506413374 5.46553883169 0.0
19 1 17.5549141337 6.35443883169 0.0
20 1 21.8729141337 6.76371883169 0.0
21 1 26.3280141337 6.56831883169 0.0
22 1 30.7908141337 5.07055883169 0.0
23 1 35.0744141337 8.30090883169 0.0
24 1 42.2141141337 5.80694883169 0.0
25 1 47.8255141337 5.19387883169 0.0
26 1 53.8288141337 4.53963883169 0.0
27 1 56.8061141337 4.30699883169 0.0
28 1 62.1458141337 6.77434883169 0.0
29 1 64.8080141337 5.39864883169 0.0
30 1 68.6035141337 8.05434883169 0.0
31 1 2.11110413374 11.7444988317 0.0
32 1 7.54871413374 11.1544988317 0.0
33 1 15.2925141337 10.5015988317 0.0
34 1 18.1874141337 11.3574988317 0.0
35 1 23.8190141337 11.6731988317 0.0
36 1 29.0761141337 10.6137988317 0.0
37 1 34.3642141337 11.2132988317 0.0
38 1 37.9237141337 9.19213883169 0.0
39 1 44.9942141337 9.51860883169 0.0
40 1 50.3182141337 9.92109883169 0.0
41 1 55.3093141337 9.73778883169 0.0
42 1 60.5681141337 12.2203988317 0.0
43 1 64.8767141337 11.1748988317 0.0
44 1 71.5962141337 7.94447883169 0.0
45 1 75.0295141337 12.7977988317 0.0
46 1 1.10166413374 16.3827988317 0.0
47 1 4.02023413374 15.5920988317 0.0
48 1 9.32906413374 15.3125988317 0.0
49 1 14.5860141337 15.4307988317 0.0
50 1 18.9869141337 14.2902988317 0.0
51 1 26.3428141337 15.4859988317 0.0
52 1 31.4913141337 15.3024988317 0.0
53 1 39.1320141337 14.4476988317 0.0
54 1 42.1338141337 14.0120988317 0.0
55 1 47.7935141337 14.0033988317 0.0
56 1 53.5028141337 14.4207988317 0.0
57 1 58.7846141337 16.5863988317 0.0
58 1 65.6097141337 15.5192988317 0.0
59 1 68.2854141337 14.0715988317 0.0
60 1 73.4670141337 15.3602988317 0.0
61 1 0.756924133743 21.6933988317 0.0
62 1 7.72065413374 19.6639988317 0.0
63 1 12.1429141337 22.1509988317 0.0
64 1 17.4412141337 19.8815988317 0.0
65 1 22.8301141337 19.6227988317 0.0
66 1 28.2098141337 19.8759988317 0.0
67 1 32.5150141337 19.3416988317 0.0
68 1 38.6939141337 19.2946988317 0.0
69 1 46.6831141337 17.5543988317 0.0
70 1 49.6691141337 18.0135988317 0.0
71 1 57.5523141337 19.3201988317 0.0
72 1 60.3094141337 20.4858988317 0.0
73 1 65.7927141337 21.1353988317 0.0
74 1 71.7374141337 18.9227988317 0.0
75 1 73.3568141337 23.8851988317 0.0
76 1 77.2454141337 26.2761988317 0.0
77 1 3.60326413374 22.8910988317 0.0
78 1 9.45641413374 23.5827988317 0.0
79 1 15.1989141337 24.9776988317 0.0
80 1 20.7776141337 24.1567988317 0.0
81 1 26.2632141337 24.0186988317 0.0
82 1 32.4529141337 24.0735988317 0.0
83 1 34.2636141337 21.7265988317 0.0
84 1 40.6483141337 21.5538988317 0.0
85 1 47.3613141337 22.5639988317 0.0
86 1 50.3104141337 25.5217988317 0.0
87 1 55.6903141337 23.5309988317 0.0
88 1 61.4364141337 23.2630988317 0.0
89 1 67.4973141337 28.6410988317 0.0
90 1 72.5572141337 26.8181988317 0.0
91 1 2.45671413374 30.5319988317 0.0
92 1 6.28571413374 28.0626988317 0.0
93 1 10.4260141337 26.4265988317 0.0
94 1 16.8391141337 27.4731988317 0.0
95 1 23.1602141337 28.3000988317 0.0
96 1 27.9880141337 28.8315988317 0.0
97 1 31.1923141337 27.4924988317 0.0
98 1 38.6020141337 27.0980988317 0.0
99 1 44.2157141337 27.5135988317 0.0
100 1 50.8585141337 30.2731988317 0.0
101 1 56.1034141337 28.7341988317 0.0
102 1 60.2694141337 29.8008988317 0.0
103 1 66.7723141337 31.6291988317 0.0
104 1 71.3536141337 31.9431988317 0.0
105 1 76.0946141337 31.2254988317 0.0
106 1 1.13520413374 35.7282988317 0.0
107 1 7.40700413374 33.1609988317 0.0
108 1 10.1468141337 31.9513988317 0.0
109 1 15.2116141337 32.8466988317 0.0
110 1 20.6274141337 32.9786988317 0.0
111 1 26.1309141337 33.1323988317 0.0
112 1 31.3003141337 33.3016988317 0.0
113 1 36.6411141337 31.8630988317 0.0
114 1 41.8808141337 31.2402988317 0.0
115 1 46.2319141337 29.7230988317 0.0
116 1 55.5049141337 31.6479988317 0.0
117 1 58.4092141337 32.1520988317 0.0
118 1 61.9818141337 32.2121988317 0.0
119 1 67.6802141337 34.5194988317 0.0
120 1 74.0747141337 36.3606988317 0.0
121 1 4.15534413374 40.0315988317 0.0
122 1 8.29532413374 38.5515988317 0.0
123 1 12.9150141337 36.9429988317 0.0
124 1 16.8370141337 35.4226988317 0.0
125 1 23.9205141337 37.1209988317 0.0
126 1 29.1267141337 37.6453988317 0.0
127 1 32.9102141337 35.8401988317 0.0
128 1 40.9632141337 35.5661988317 0.0
129 1 43.9468141337 35.2111988317 0.0
130 1 50.5971141337 36.2528988317 0.0
131 1 53.5316141337 36.8814988317 0.0
132 1 59.2511141337 37.4009988317 0.0
133 1 64.4873141337 39.4605988317 0.0
134 1 70.2189141337 40.5385988317 0.0
135 1 76.9327141337 40.4837988317 0.0
136 1 1.71740413374 44.5408988317 0.0
137 1 8.76566413374 43.5596988317 0.0
138 1 11.5252141337 42.3687988317 0.0
139 1 16.3691141337 41.1638988317 0.0
140 1 22.8425141337 41.2681988317 0.0
141 1 25.8501141337 41.7381988317 0.0
142 1 31.5417141337 41.6969988317 0.0
143 1 36.0800141337 40.5691988317 0.0
144 1 40.3315141337 43.8631988317 0.0
145 1 45.2564141337 40.9046988317 0.0
146 1 50.8459141337 42.6239988317 0.0
147 1 56.4569141337 40.9963988317 0.0
148 1 60.4827141337 44.3770988317 0.0
149 1 65.0600141337 42.4748988317 0.0
150 1 72.1201141337 42.8549988317 0.0
151 1 3.23637413374 48.8629988317 0.0
152 1 8.18084413374 49.0441988317 0.0
153 1 15.4211141337 46.2347988317 0.0
154 1 18.4214141337 46.1928988317 0.0
155 1 23.1326141337 49.4843988317 0.0
156 1 29.3364141337 45.7261988317 0.0
157 1 35.0726141337 45.9297988317 0.0
158 1 39.6228141337 46.8046988317 0.0
159 1 44.3170141337 45.9342988317 0.0
160 1 50.0744141337 45.5257988317 0.0
161 1 55.2180141337 45.1649988317 0.0
162 1 59.6471141337 48.6841988317 0.0
163 1 62.9373141337 51.0332988317 0.0
164 1 70.6991141337 47.9240988317 0.0
165 1 76.0474141337 48.0952988317 0.0
166 1 0.726794133743 52.7823988317 0.0
167 1 4.50252413374 55.8534988317 0.0
168 1 12.2141141337 52.4196988317 0.0
169 1 15.1337141337 51.7227988317 0.0
170 1 23.1252141337 52.5100988317 0.0
171 1 26.0230141337 50.3584988317 0.0
172 1 31.2797141337 49.5481988317 0.0
173 1 36.6095141337 51.3552988317 0.0
174 1 43.6986141337 50.8369988317 0.0
175 1 48.6201141337 51.3019988317 0.0
176 1 53.9131141337 49.6180988317 0.0
177 1 58.8545141337 51.5900988317 0.0
178 1 65.9032141337 51.4222988317 0.0
179 1 69.5782141337 52.8553988317 0.0
180 1 74.4103141337 52.2234988317 0.0
181 1 2.72302413374 58.3046988317 0.0
182 1 7.63251413374 58.3508988317 0.0
183 1 12.4085141337 57.1091988317 0.0
184 1 17.5593141337 56.5886988317 0.0
185 1 22.4983141337 59.2788988317 0.0
186 1 28.1177141337 55.6676988317 0.0
187 1 33.7255141337 54.4121988317 0.0
188 1 37.8822141337 57.3158988317 0.0
189 1 47.2457141337 53.9426988317 0.0
190 1 53.5275141337 53.7386988317 0.0
191 1 54.9340141337 57.8009988317 0.0
192 1 60.7892141337 56.5551988317 0.0
193 1 66.6342141337 57.2182988317 0.0
194 1 72.5628141337 57.2132988317 0.0
195 1 75.6055141337 57.4302988317 0.0
196 1 0.153076133743 62.3680988317 0.0
197 1 7.02209413374 62.4028988317 0.0
198 1 10.0245141337 62.2983988317 0.0
199 1 15.3215141337 61.3649988317 0.0
200 1 20.8059141337 61.7628988317 0.0
201 1 25.3647141337 60.2664988317 0.0
202 1 32.7654141337 58.5176988317 0.0
203 1 40.7962141337 58.3283988317 0.0
204 1 47.1985141337 60.2967988317 0.0
205 1 46.3442141337 57.4480988317 0.0
206 1 53.1414141337 60.2184988317 0.0
207 1 57.8413141337 61.0178988317 0.0
208 1 63.3553141337 60.7866988317 0.0
209 1 68.3531141337 62.8636988317 0.0
210 1 72.8525141337 62.8025988317 0.0
211 1 2.59723413374 67.6089988317 0.0
212 1 6.93213413374 67.2497988317 0.0
213 1 12.3375141337 66.0760988317 0.0
214 1 18.2909141337 65.7629988317 0.0
215 1 22.7184141337 64.0764988317 0.0
216 1 32.0392141337 63.0097988317 0.0
217 1 35.0446141337 62.4402988317 0.0
218 1 39.9913141337 63.7204988317 0.0
219 1 46.8939141337 64.1425988317 0.0
220 1 49.9092141337 63.8064988317 0.0
221 1 53.9842141337 67.2126988317 0.0
222 1 61.7807141337 64.9145988317 0.0
223 1 64.6081141337 65.9557988317 0.0
224 1 70.7618141337 67.7809988317 0.0
225 1 76.0285141337 66.8807988317 0.0
226 1 0.447334133743 72.0351988317 0.0
227 1 5.92530413374 72.3657988317 0.0
228 1 11.6260141337 70.2173988317 0.0
229 1 14.0661141337 68.5039988317 0.0
230 1 21.2949141337 69.6220988317 0.0
231 1 26.0461141337 68.6484988317 0.0
232 1 31.1898141337 68.3215988317 0.0
233 1 36.4981141337 67.7218988317 0.0
234 1 41.9690141337 68.9188988317 0.0
235 1 44.9663141337 69.4627988317 0.0
236 1 53.7404141337 70.1977988317 0.0
237 1 56.7178141337 70.1914988317 0.0
238 1 61.5604141337 69.8393988317 0.0
239 1 65.8773141337 68.7203988317 0.0
240 1 73.3448141337 71.6353988317 0.0
241 1 2.61684413374 76.4547988317 0.0
242 1 8.22032413374 76.6267988317 0.0
243 1 14.6677141337 74.0755988317 0.0
244 1 17.7288141337 73.8976988317 0.0
245 1 23.0999141337 73.8379988317 0.0
246 1 27.8982141337 72.9383988317 0.0
247 1 33.1268141337 72.4153988317 0.0
248 1 37.2391141337 74.8745988317 0.0
249 1 41.1577141337 74.6005988317 0.0
250 1 46.1567141337 73.9199988317 0.0
251 1 50.0894141337 72.7739988317 0.0
252 1 58.7235141337 74.6626988317 0.0
253 1 64.5007141337 74.2569988317 0.0
254 1 69.9715141337 75.3164988317 0.0
255 1 75.2090141337 76.2371988317 0.0
256 1 77.3319141337 3.73326883169 0.0
257 1 4.07380413374 4.32305883169 0.0
258 1 11.2160141337 3.57623883169 0.0
259 1 16.7733141337 3.46049883169 0.0
260 1 21.5221141337 1.07940883169 0.0
261 1 25.7105141337 3.61536883169 0.0
262 1 30.1945141337 2.10464883169 0.0
263 1 35.3099141337 3.05781883169 0.0
264 1 41.1214141337 3.01134883169 0.0
265 1 46.6751141337 2.39525883169 0.0
266 1 51.7779141337 2.35246883169 0.0
267 1 56.5502141337 1.33186883169 0.0
268 1 60.5986141337 2.20859883169 0.0
269 1 63.5326141337 2.70011883169 0.0
270 1 73.2576141337 5.44057883169 0.0
271 1 2.12012413374 8.75633883169 0.0
272 1 7.55420413374 8.14835883169 0.0
273 1 14.8066141337 7.53650883169 0.0
274 1 19.5081141337 8.62839883169 0.0
275 1 24.1774141337 8.67585883169 0.0
276 1 29.1424141337 7.59488883169 0.0
277 1 33.7466141337 5.61401883169 0.0
278 1 40.8162141337 8.46258883169 0.0
279 1 45.1292141337 6.52646883169 0.0
280 1 50.3231141337 6.93339883169 0.0
281 1 53.3074141337 7.46541883169 0.0
282 1 59.6848141337 5.06382883169 0.0
283 1 62.2571141337 9.75071883169 0.0
284 1 67.7986141337 5.09745883169 0.0
285 1 75.3477141337 7.58971883169 0.0
286 1 77.9208141337 13.6633988317 0.0
287 1 4.95166413374 12.7241988317 0.0
288 1 10.2537141337 12.4677988317 0.0
289 1 13.2638141337 12.7133988317 0.0
290 1 22.0014141337 14.0991988317 0.0
291 1 26.7095141337 12.4953988317 0.0
292 1 31.5650141337 12.3000988317 0.0
293 1 37.2321141337 12.1081988317 0.0
294 1 42.4011141337 11.0121988317 0.0
295 1 47.5601141337 11.0372988317 0.0
296 1 52.8831141337 11.4897988317 0.0
297 1 57.5767141337 11.7477988317 0.0
298 1 63.2208141337 13.6751988317 0.0
299 1 67.8758141337 11.0314988317 0.0
300 1 73.7130141337 10.0854988317 0.0
301 1 77.5944141337 18.9324988317 0.0
302 1 6.74110413374 16.8406988317 0.0
303 1 11.9275141337 16.8086988317 0.0
304 1 17.2761141337 16.8161988317 0.0
305 1 23.5676141337 16.6793988317 0.0
306 1 28.9610141337 16.9571988317 0.0
307 1 34.1057141337 16.7876988317 0.0
308 1 37.1417141337 16.7157988317 0.0
309 1 44.9762141337 15.0890988317 0.0
310 1 50.5829141337 15.1721988317 0.0
311 1 56.5233141337 14.5702988317 0.0
312 1 61.5753141337 17.7741988317 0.0
313 1 64.5565141337 18.3457988317 0.0
314 1 70.5573141337 16.1172988317 0.0
315 1 74.6575141337 18.1238988317 0.0
316 1 76.3648141337 23.4068988317 0.0
317 1 6.62222413374 22.4479988317 0.0
318 1 10.7176141337 19.5323988317 0.0
319 1 15.1790141337 21.9566988317 0.0
320 1 20.2073141337 21.1658988317 0.0
321 1 25.4702141337 21.1052988317 0.0
322 1 30.6042141337 21.6744988317 0.0
323 1 37.2015141337 21.8798988317 0.0
324 1 43.4715141337 22.4386988317 0.0
325 1 45.4778141337 20.2610988317 0.0
326 1 51.9258141337 20.0089988317 0.0
327 1 54.8631141337 20.6419988317 0.0
328 1 64.4016141337 23.8129988317 0.0
329 1 68.2292141337 22.9317988317 0.0
330 1 71.0771141337 21.8849988317 0.0
331 1 1.79993413374 27.6075988317 0.0
332 1 4.22498413374 25.8513988317 0.0
333 1 13.2859141337 27.3008988317 0.0
334 1 19.7695141337 27.0220988317 0.0
335 1 23.5491141337 25.3143988317 0.0
336 1 28.6300141337 25.9066988317 0.0
337 1 34.0420141337 26.6561988317 0.0
338 1 39.1188141337 24.1399988317 0.0
339 1 45.3434141337 24.7545988317 0.0
340 1 50.3258141337 22.5356988317 0.0
341 1 53.3020141337 25.3709988317 0.0
342 1 58.6117141337 24.2924988317 0.0
343 1 66.8224141337 25.6359988317 0.0
344 1 70.4913141337 29.0306988317 0.0
345 1 75.1206141337 28.3827988317 0.0
346 1 0.517864133743 32.7942988317 0.0
347 1 5.40691413374 30.9282988317 0.0
348 1 9.10802413374 29.1080988317 0.0
349 1 14.9708141337 29.8146988317 0.0
350 1 20.6443141337 29.9245988317 0.0
351 1 25.3942141337 30.2530988317 0.0
352 1 30.5305141337 30.4035988317 0.0
353 1 36.1491141337 28.8470988317 0.0
354 1 41.3388141337 28.3022988317 0.0
355 1 48.7794141337 28.1250988317 0.0
356 1 53.1606141337 28.3490988317 0.0
357 1 58.7073141337 27.2726988317 0.0
358 1 64.5465141337 33.6586988317 0.0
359 1 70.6073141337 34.8666988317 0.0
360 1 73.9954141337 33.3440988317 0.0
361 1 3.82586413374 37.0511988317 0.0
362 1 6.64441413374 36.0522988317 0.0
363 1 12.4162141337 33.9563988317 0.0
364 1 19.8029141337 35.9215988317 0.0
365 1 23.3554141337 34.1907988317 0.0
366 1 28.6674141337 34.6953988317 0.0
367 1 35.6946141337 34.7453988317 0.0
368 1 39.4434141337 32.9734988317 0.0
369 1 44.6894141337 32.3010988317 0.0
370 1 50.6715141337 33.2631988317 0.0
371 1 53.5833141337 33.9059988317 0.0
372 1 60.1352141337 34.5570988317 0.0
373 1 65.4391141337 36.5432988317 0.0
374 1 71.4236141337 37.7609988317 0.0
375 1 76.8410141337 37.4955988317 0.0
376 1 1.59513413374 41.5605988317 0.0
377 1 6.90540413374 41.2035988317 0.0
378 1 11.1674141337 39.3781988317 0.0
379 1 15.6520141337 38.2010988317 0.0
380 1 21.3284141337 38.5951988317 0.0
381 1 26.3869141337 38.8054988317 0.0
382 1 31.9228141337 38.6965988317 0.0
383 1 36.6503141337 37.6092988317 0.0
384 1 39.5838141337 38.2244988317 0.0
385 1 45.2743141337 37.9025988317 0.0
386 1 48.2543141337 38.0997988317 0.0
387 1 56.3097141337 38.0163988317 0.0
388 1 61.4730141337 39.4127988317 0.0
389 1 68.0762141337 42.6702988317 0.0
390 1 75.1117141337 42.8563988317 0.0
391 1 4.29124413374 46.0657988317 0.0
392 1 7.29066413374 46.1717988317 0.0
393 1 14.3475141337 43.4085988317 0.0
394 1 18.6150141337 43.1902988317 0.0
395 1 21.5132141337 43.9682988317 0.0
396 1 28.6997141337 42.7901988317 0.0
397 1 34.2808141337 42.9929988317 0.0
398 1 39.0203141337 41.1624988317 0.0
399 1 43.2486141337 43.1409988317 0.0
400 1 48.2603141337 41.0859988317 0.0
401 1 53.8589141337 42.4923988317 0.0
402 1 59.4072141337 41.5900988317 0.0
403 1 63.4096141337 45.0696988317 0.0
404 1 70.0139141337 44.9824988317 0.0
405 1 76.9284141337 45.2392988317 0.0
406 1 0.384910133743 49.8064988317 0.0
407 1 5.63602413374 50.6629988317 0.0
408 1 11.1371141337 49.6279988317 0.0
409 1 14.0532141337 48.9091988317 0.0
410 1 21.3394141337 46.9971988317 0.0
411 1 28.4439141337 48.5910988317 0.0
412 1 32.1724141337 46.6953988317 0.0
413 1 36.9989141337 48.3064988317 0.0
414 1 42.2993141337 48.1785988317 0.0
415 1 47.2444141337 46.5445988317 0.0
416 1 52.7597141337 46.8653988317 0.0
417 1 58.0602141337 46.1503988317 0.0
418 1 62.5845141337 48.0140988317 0.0
419 1 68.5649141337 50.0389988317 0.0
420 1 73.3480141337 49.3916988317 0.0
421 1 3.72107413374 52.9766988317 0.0
422 1 7.48120413374 55.3804988317 0.0
423 1 10.4416141337 54.8304988317 0.0
424 1 17.5207141337 53.5802988317 0.0
425 1 20.5031141337 53.9737988317 0.0
426 1 26.0352141337 53.3872988317 0.0
427 1 33.6085141337 51.4324988317 0.0
428 1 44.2256141337 53.8105988317 0.0
429 1 46.3393141337 49.3970988317 0.0
430 1 51.5891141337 51.4765988317 0.0
431 1 55.8733141337 51.8807988317 0.0
432 1 61.1579141337 53.5144988317 0.0
433 1 66.9317141337 54.2335988317 0.0
434 1 72.2172141337 54.2423988317 0.0
435 1 76.3952141337 54.4985988317 0.0
436 1 77.9968141337 59.3348988317 0.0
437 1 5.17016413374 60.0448988317 0.0
438 1 10.4400141337 59.3499988317 0.0
439 1 15.1383141337 58.3607988317 0.0
440 1 20.5394141337 56.9784988317 0.0
441 1 27.9498141337 58.7060988317 0.0
442 1 31.1502141337 55.9647988317 0.0
443 1 36.7454141337 54.4430988317 0.0
444 1 43.3902141337 56.7075988317 0.0
445 1 49.1466141337 56.2677988317 0.0
446 1 52.2143141337 56.4227988317 0.0
447 1 58.0130141337 57.9789988317 0.0
448 1 63.6157141337 57.7835988317 0.0
449 1 70.5631141337 60.8498988317 0.0
450 1 69.6114141337 58.0039988317 0.0
451 1 2.23049413374 64.6004988317 0.0
452 1 5.22746413374 64.7776988317 0.0
453 1 12.8970141337 63.1456988317 0.0
454 1 17.9759141337 62.7756988317 0.0
455 1 25.6079141337 63.2824988317 0.0
456 1 30.4540141337 60.4339988317 0.0
457 1 35.6559141337 59.4385988317 0.0
458 1 41.7598141337 61.2367988317 0.0
459 1 44.7282141337 62.0177988317 0.0
460 1 50.1742141337 60.8209988317 0.0
461 1 55.1471141337 62.4434988317 0.0
462 1 60.6590141337 62.1206988317 0.0
463 1 65.3670141337 63.0420988317 0.0
464 1 70.6175141337 64.8028988317 0.0
465 1 75.6730141337 63.8804988317 0.0
466 1 78.1126141337 69.0570988317 0.0
467 1 4.96542413374 69.4970988317 0.0
468 1 9.88061413374 67.7841988317 0.0
469 1 17.0461141337 68.4902988317 0.0
470 1 21.1594141337 66.6274988317 0.0
471 1 27.2226141337 65.8371988317 0.0
472 1 30.2383141337 65.4597988317 0.0
473 1 37.0957141337 64.7065988317 0.0
474 1 42.0750141337 65.9138988317 0.0
475 1 45.0252141337 66.4657988317 0.0
476 1 52.8670141337 64.4408988317 0.0
477 1 56.9803141337 67.2212988317 0.0
478 1 59.9708141337 67.2811988317 0.0
479 1 68.6508141337 69.8992988317 0.0
480 1 73.6176141337 68.6550988317 0.0
481 1 3.10564413374 73.4838988317 0.0
482 1 8.69969413374 73.6559988317 0.0
483 1 11.7274141337 73.2060988317 0.0
484 1 18.6443141337 71.0277988317 0.0
485 1 23.9909141337 70.9154988317 0.0
486 1 28.7028141337 70.0382988317 0.0
487 1 33.9820141337 69.4817988317 0.0
488 1 39.0408141337 72.4807988317 0.0
489 1 38.9892141337 69.4722988317 0.0
490 1 47.4490141337 71.2308988317 0.0
491 1 53.1075141337 73.1266988317 0.0
492 1 59.2609141337 71.7364988317 0.0
493 1 64.2240141337 71.2357988317 0.0
494 1 70.4183141337 72.3410988317 0.0
495 1 75.8412141337 73.3028988317 0.0
496 1 77.9183141337 77.5632988317 0.0
497 1 5.38397413374 77.6682988317 0.0
498 1 10.9585141337 77.8944988317 0.0
499 1 13.8023141337 76.9375988317 0.0
500 1 20.4291141337 75.3433988317 0.0
501 1 25.8260141337 75.1331988317 0.0
502 1 30.6376141337 74.1261988317 0.0
503 1 34.2764141337 75.2016988317 0.0
504 1 39.3499141337 76.9838988317 0.0
505 1 43.8761141337 75.8348988317 0.0
506 1 48.7232141337 75.4366988317 0.0
507 1 55.6745141337 74.8091988317 0.0
508 1 61.6789141337 75.3921988317 0.0
509 1 67.0252141337 75.9816988317 0.0
510 1 72.3414141337 77.2109988317 0.0
511 1 4.97698413374 80.6399988317 0.0
512 1 12.3182141337 80.5704988317 0.0
513 1 15.1599141337 79.6056988317 0.0
514 1 20.5895141337 78.3908988317 0.0
515 1 27.1969141337 77.8343988317 0.0
516 1 30.1353141337 77.1036988317 0.0
517 1 34.5042141337 80.5808988317 0.0
518 1 40.0020141337 79.9115988317 0.0
519 1 44.9706141337 78.6320988317 0.0
520 1 50.3447141337 80.1396988317 0.0
521 1 55.8506141337 77.8105988317 0.0
522 1 61.7057141337 78.3864988317 0.0
523 1 67.2284141337 79.0022988317 0.0
524 1 72.0346141337 80.2208988317 0.0
525 1 77.3517141337 80.5182988317 0.0
526 1 2.08264413374 81.4909988317 0.0
527 1 7.38285413374 0.31213983169 0.0
528 1 10.3613141337 0.69440083169 0.0
529 1 18.1217141337 80.1519988317 0.0
530 1 22.8064141337 80.4749988317 0.0
531 1 25.8461141337 80.5518988317 0.0
532 1 33.0207141337 77.9480988317 0.0
533 1 37.4077141337 81.4315988317 0.0
534 1 42.8862141337 80.7986988317 0.0
535 1 47.9633141337 78.3296988317 0.0
536 1 53.2565141337 79.3615988317 0.0
537 1 58.7133141337 78.8392988317 0.0
538 1 64.3485141337 79.8744988317 0.0
539 1 69.2172141337 81.3274988317 0.0
540 1 74.6061141337 81.8179988317 0.0
541 2 2.00507413374 0.85264883169 0.0
542 2 2.94417413374 3.34844883169 0.0
543 2 0.478414133743 2.94253883169 0.0
544 2 7.08112413374 1.78565883169 0.0
545 2 5.44525413374 3.73121883169 0.0
546 2 7.86032413374 4.37189883169 0.0
547 2 12.6294141337 4.07179883169 0.0
548 2 15.3123141337 3.87412883169 0.0
549 2 14.1783141337 6.15757883169 0.0
550 2 20.0160141337 1.10287883169 0.0
551 2 18.2523141337 81.6561988317 0.0
552 2 17.5917141337 2.19550883169 0.0
553 2 22.1844141337 5.27852883169 0.0
554 2 22.0878141337 2.47882883169 0.0
555 2 24.2058141337 3.68139883169 0.0
556 2 26.6300141337 81.8620988317 0.0
557 2 28.8072141337 1.49335883169 0.0
558 2 26.5119141337 2.33775883169 0.0
559 2 33.6694141337 81.8383988317 0.0
560 2 34.1831141337 2.05215883169 0.0
561 2 31.5814141337 1.48211883169 0.0
562 2 37.8298141337 0.73615183169 0.0
563 2 36.7920141337 2.77303883169 0.0
564 2 39.6534141337 2.63007883169 0.0
565 2 43.3649141337 0.08008683169 0.0
566 2 45.2138141337 1.98663883169 0.0
567 2 42.4376141337 2.26494883169 0.0
568 2 49.7660141337 81.5355988317 0.0
569 2 50.4203141337 1.72504883169 0.0
570 2 47.8813141337 1.47708883169 0.0
571 2 53.5912141337 80.8291988317 0.0
572 2 52.7597141337 1.21342883169 0.0
573 2 55.1882141337 0.73051083169 0.0
574 2 58.8605141337 80.3392988317 0.0
575 2 59.9387141337 0.86567383169 0.0
576 2 57.7352141337 0.43910783169 0.0
577 2 64.8599141337 81.2966988317 0.0
578 2 64.4825141337 1.56474883169 0.0
579 2 66.8235141337 1.25957883169 0.0
580 2 68.8712141337 0.67081083169 0.0
581 2 68.1294141337 3.57778883169 0.0
582 2 73.6855141337 3.98620883169 0.0
583 2 75.9392141337 3.19121883169 0.0
584 2 74.4711141337 1.19223883169 0.0
585 2 77.8141141337 5.16006883169 0.0
586 2 76.7827141337 7.21765883169 0.0
587 2 1.08069413374 7.67632883169 0.0
588 2 4.30717413374 5.80034883169 0.0
589 2 6.11066413374 7.71941883169 0.0
590 2 3.45913413374 8.08886883169 0.0
591 2 10.1448141337 4.63236883169 0.0
592 2 8.38707413374 6.88505883169 0.0
593 2 17.3716141337 4.85562883169 0.0
594 2 18.5447141337 7.46732883169 0.0
595 2 16.2068141337 7.00101883169 0.0
596 2 20.7179141337 7.72776883169 0.0
597 2 23.0188141337 7.72850883169 0.0
598 2 25.3156141337 7.68431883169 0.0
599 2 27.7330141337 7.08136883169 0.0
600 2 26.0981141337 5.07821883169 0.0
601 2 30.4057141337 3.61068883169 0.0
602 2 32.2691141337 5.36950883169 0.0
603 2 30.0094141337 6.36166883169 0.0
604 2 34.3904141337 6.97241883169 0.0
605 2 36.5638141337 8.55479883169 0.0
606 2 34.5569141337 9.71440883169 0.0
607 2 41.5886141337 4.44746883169 0.0
608 2 43.7026141337 6.04309883169 0.0
609 2 41.4582141337 7.10938883169 0.0
610 2 47.2945141337 3.77584883169 0.0
611 2 49.1326141337 5.97815883169 0.0
612 2 46.4843141337 5.89631883169 0.0
613 2 53.6262141337 6.00836883169 0.0
614 2 52.7043141337 3.53877883169 0.0
615 2 55.3262141337 4.48202883169 0.0
616 2 56.7631141337 2.80350883169 0.0
617 2 58.1810141337 4.91469883169 0.0
618 2 62.1125141337 8.26748883169 0.0
619 2 60.8565141337 5.99787883169 0.0
620 2 63.5357141337 6.20560883169 0.0
621 2 64.1728141337 4.03988883169 0.0
622 2 66.2980141337 5.31108883169 0.0
623 2 70.1090141337 8.02700883169 0.0
624 2 68.2201141337 6.57152883169 0.0
625 2 68.2413141337 9.54528883169 0.0
626 2 2.02673413374 10.2441988317 0.0
627 2 3.55229413374 12.1600988317 0.0
628 2 0.926124133743 12.6625988317 0.0
629 2 6.25935413374 11.9584988317 0.0
630 2 8.95099413374 11.7091988317 0.0
631 2 7.61041413374 9.64596883169 0.0
632 2 14.2316141337 11.5637988317 0.0
633 2 14.9032141337 9.04039883169 0.0
634 2 16.7264141337 10.9662988317 0.0
635 2 18.9827141337 10.0499988317 0.0
636 2 18.5502141337 12.8270988317 0.0
637 2 25.2751141337 12.0522988317 0.0
638 2 23.9180141337 10.1609988317 0.0
639 2 22.8325141337 12.8233988317 0.0
640 2 29.1715141337 9.10704883169 0.0
641 2 27.8727141337 11.5328988317 0.0
642 2 30.3445141337 11.4291988317 0.0
643 2 35.7308141337 11.8642988317 0.0
644 2 32.9704141337 11.7628988317 0.0
645 2 39.3375141337 8.71408883169 0.0
646 2 37.7120141337 10.6826988317 0.0
647 2 46.2833141337 10.2756988317 0.0
648 2 45.0780141337 8.02821883169 0.0
649 2 43.7421141337 10.3293988317 0.0
650 2 50.1953141337 8.43485883169 0.0
651 2 51.5821141337 10.7329988317 0.0
652 2 48.9414141337 10.4842988317 0.0
653 2 56.5677141337 10.6003988317 0.0
654 2 54.4201141337 8.49630883169 0.0
655 2 54.1151141337 10.6509988317 0.0
656 2 61.2907141337 10.8919988317 0.0
657 2 61.7714141337 13.1788988317 0.0
658 2 59.0787141337 11.9778988317 0.0
659 2 63.6653141337 10.2809988317 0.0
660 2 66.3619141337 11.0460988317 0.0
661 2 64.1143141337 12.4647988317 0.0
662 2 72.2387141337 6.56551883169 0.0
663 2 72.5026141337 9.16537883169 0.0
664 2 74.3252141337 11.4609988317 0.0
665 2 76.4911141337 13.1858988317 0.0
666 2 74.1941141337 14.0480988317 0.0
667 2 0.333709133743 17.6810988317 0.0
668 2 0.365782133743 15.0603988317 0.0
669 2 2.59316413374 16.0794988317 0.0
670 2 4.53634413374 14.1744988317 0.0
671 2 5.33843413374 16.3272988317 0.0
672 2 9.72461413374 13.8736988317 0.0
673 2 10.6382141337 16.0437988317 0.0
674 2 7.99582413374 16.0010988317 0.0
675 2 13.9945141337 14.0363988317 0.0
676 2 15.9130141337 16.1376988317 0.0
677 2 13.2996141337 16.2241988317 0.0
678 2 20.4992141337 14.2134988317 0.0
679 2 18.2040141337 15.5943988317 0.0
680 2 26.5884141337 13.9981988317 0.0
681 2 24.9905141337 16.1533988317 0.0
682 2 27.6518141337 16.2208988317 0.0
683 2 31.4767141337 13.8001988317 0.0
684 2 32.8671141337 15.9162988317 0.0
685 2 30.2481141337 16.1685988317 0.0
686 2 38.1599141337 15.6027988317 0.0
687 2 38.1927141337 13.2588988317 0.0
688 2 40.6476141337 14.3468988317 0.0
689 2 42.2453141337 12.5019988317 0.0
690 2 43.5266141337 14.6363988317 0.0
691 2 49.2070141337 14.5306988317 0.0
692 2 47.6669141337 12.5183988317 0.0
693 2 46.3633141337 14.4733988317 0.0
694 2 53.1733141337 12.9495988317 0.0
695 2 54.9992141337 14.6633988317 0.0
696 2 52.0644141337 14.8959988317 0.0
697 2 57.6895141337 15.5386988317 0.0
698 2 60.2767141337 16.9406988317 0.0
699 2 58.0403141337 17.9029988317 0.0
700 2 65.2310141337 16.9871988317 0.0
701 2 64.3178141337 14.7150988317 0.0
702 2 66.9577141337 14.8259988317 0.0
703 2 68.2382141337 12.5338988317 0.0
704 2 69.4272141337 15.0974988317 0.0
705 2 74.2127141337 16.6723988317 0.0
706 2 71.9762141337 15.5805988317 0.0
707 2 0.170684133743 20.2777988317 0.0
708 2 77.6022141337 22.5282988317 0.0
709 2 2.20613413374 22.2390988317 0.0
710 2 7.11938413374 18.2923988317 0.0
711 2 9.22125413374 19.6117988317 0.0
712 2 7.08200413374 21.0113988317 0.0
713 2 13.6517141337 22.0172988317 0.0
714 2 11.4984141337 20.7943988317 0.0
715 2 10.8336141337 22.9299988317 0.0
716 2 17.3744141337 18.3442988317 0.0
717 2 18.8320141337 20.5165988317 0.0
718 2 16.2747141337 20.8909988317 0.0
719 2 23.1332141337 18.1302988317 0.0
720 2 24.1357141337 20.4034988317 0.0
721 2 21.4985141337 20.3502988317 0.0
722 2 28.6414141337 18.4286988317 0.0
723 2 29.2949141337 20.9233988317 0.0
724 2 26.8027141337 20.3953988317 0.0
725 2 33.2869141337 18.0616988317 0.0
726 2 31.4416141337 20.3995988317 0.0
727 2 33.5324141337 20.4459988317 0.0
728 2 37.9641141337 17.9901988317 0.0
729 2 39.8881141337 20.2509988317 0.0
730 2 37.8455141337 20.5365988317 0.0
731 2 48.1708141337 17.8105988317 0.0
732 2 45.9754141337 18.8712988317 0.0
733 2 45.7105141337 16.4163988317 0.0
734 2 50.8147141337 18.9957988317 0.0
735 2 50.2161141337 16.6213988317 0.0
736 2 56.1634141337 19.8858988317 0.0
737 2 58.8506141337 20.0913988317 0.0
738 2 61.0272141337 19.1755988317 0.0
739 2 60.9509141337 21.8319988317 0.0
740 2 65.2178141337 19.7229988317 0.0
741 2 67.1272141337 21.8772988317 0.0
742 2 64.9809141337 22.4151988317 0.0
743 2 71.3517141337 20.3919988317 0.0
744 2 70.9489141337 17.6083988317 0.0
745 2 73.2438141337 18.6877988317 0.0
746 2 72.8811141337 25.3374988317 0.0
747 2 72.2351141337 22.8657988317 0.0
748 2 74.8395141337 23.5202988317 0.0
749 2 76.8525141337 24.8367988317 0.0
750 2 0.472404133743 26.9203988317 0.0
751 2 76.1953141337 27.3398988317 0.0
752 2 5.11421413374 22.5877988317 0.0
753 2 3.88575413374 24.3878988317 0.0
754 2 8.00232413374 23.1273988317 0.0
755 2 9.84921413374 25.0460988317 0.0
756 2 15.3127141337 23.4812988317 0.0
757 2 16.1603141337 26.1345988317 0.0
758 2 14.1087141337 26.0326988317 0.0
759 2 20.4195141337 22.6809988317 0.0
760 2 22.2252141337 24.6046988317 0.0
761 2 20.2013141337 25.5697988317 0.0
762 2 25.8790141337 22.5622988317 0.0
763 2 27.5348141337 24.8594988317 0.0
764 2 24.9190141337 24.7104988317 0.0
765 2 33.3305141337 25.3000988317 0.0
766 2 31.2865141337 23.0356988317 0.0
767 2 33.4361141337 22.9505988317 0.0
768 2 35.7312141337 21.8360988317 0.0
769 2 42.0735141337 21.9604988317 0.0
770 2 40.0197141337 22.9323988317 0.0
771 2 46.5168141337 23.8190988317 0.0
772 2 48.8320141337 22.4261988317 0.0
773 2 46.5288141337 21.3326988317 0.0
774 2 50.2604141337 24.0265988317 0.0
775 2 51.8064141337 25.3922988317 0.0
776 2 49.4415141337 26.7610988317 0.0
777 2 55.2487141337 22.0962988317 0.0
778 2 57.1646141337 23.8626988317 0.0
779 2 54.5016141337 24.4661988317 0.0
780 2 62.8837141337 23.6788988317 0.0
781 2 60.0423141337 23.8411988317 0.0
782 2 67.0852141337 27.1499988317 0.0
783 2 69.0042141337 28.7914988317 0.0
784 2 67.0322141337 30.1195988317 0.0
785 2 71.4464141337 27.8553988317 0.0
786 2 73.8082141337 27.6643988317 0.0
787 2 2.06279413374 29.0844988317 0.0