ITEM: TIMESTEP
0
ITEM: NUMBER OF ATOMS
1350
ITEM: BOX BOUNDS xy xz yz pp pp pp
0.0 77.667177292 0
0.0 82.3772909539 0
-10.0 10.0 0
ITEM: ATOMS id type x y z vx vy vz
1 1 2.75536642283 1.57056547697 0.0 0.0 0.0 0.0
2 1 7.33229642283 1.45573547697 0.0 0.0 0.0 0.0
3 1 12.6123264228 2.45839547697 0.0 0.0 0.0 0.0
4 1 17.9964264228 2.67997547697 0.0 0.0 0.0 0.0
5 1 22.9164264228 2.40468547697 0.0 0.0 0.0 0.0
6 1 27.9560264228 3.02306547697 0.0 0.0 0.0 0.0
7 1 35.9399264228 2.61021547697 0.0 0.0 0.0 0.0
8 1 38.9344264228 2.26109547697 0.0 0.0 0.0 0.0
9 1 46.7885264228 1.58248547697 0.0 0.0 0.0 0.0
10 1 49.8297264228 1.36537547697 0.0 0.0 0.0 0.0
11 1 57.6433264228 82.343045477 0.0 0.0 0.0 0.0
12 1 60.6272264228 81.879045477 0.0 0.0 0.0 0.0
13 1 65.6418264228 0.0682600769695 0.0 0.0 0.0 0.0
14 1 70.3411264228 0.23363747697 0.0 0.0 0.0 0.0
15 1 75.6754264228 0.23287647697 0.0 0.0 0.0 0.0
16 1 76.8543264228 5.38807547697 0.0 0.0 0.0 0.0
17 1 4.55055642283 6.38890547697 0.0 0.0 0.0 0.0
18 1 9.76012642283 6.30787547697 0.0 0.0 0.0 0.0
19 1 14.9556264228 6.89128547697 0.0 0.0 0.0 0.0
20 1 20.0405264228 7.20224547697 0.0 0.0 0.0 0.0
21 1 25.0404264228 7.27948547697 0.0 0.0 0.0 0.0
22 1 28.9168264228 5.88049547697 0.0 0.0 0.0 0.0
23 1 35.1765264228 8.38016547697 0.0 0.0 0.0 0.0
24 1 40.2880264228 7.65302547697 0.0 0.0 0.0 0.0
25 1 43.7385264228 5.24624547697 0.0 0.0 0.0 0.0
26 1 51.9124264228 5.62875547697 0.0 0.0 0.0 0.0
27 1 56.7538264228 5.01438547697 0.0 0.0 0.0 0.0
28 1 62.4688264228 4.44130547697 0.0 0.0 0.0 0.0
29 1 68.9711264228 4.84108547697 0.0 0.0 0.0 0.0
30 1 71.9430264228 4.40201547697 0.0 0.0 0.0 0.0
31 1 1.68754642283 11.681145477 0.0 0.0 0.0 0.0
32 1 7.11106642283 10.839945477 0.0 0.0 0.0 0.0
33 1 12.3503264228 11.096245477 0.0 0.0 0.0 0.0
34 1 17.5445264228 11.637645477 0.0 0.0 0.0 0.0
35 1 22.4444264228 11.881245477 0.0 0.0 0.0 0.0
36 1 27.6628264228 11.715645477 0.0 0.0 0.0 0.0
37 1 32.1677264228 11.867045477 0.0 0.0 0.0 0.0
38 1 37.6212264228 12.956645477 0.0 0.0 0.0 0.0
39 1 44.4887264228 10.921545477 0.0 0.0 0.0 0.0
40 1 48.9027264228 9.58041547697 0.0 0.0 0.0 0.0
41 1 54.3084264228 10.138945477 0.0 0.0 0.0 0.0
42 1 59.7512264228 8.78381547697 0.0 0.0 0.0 0.0
43 1 64.1201264228 11.161345477 0.0 0.0 0.0 0.0
44 1 69.3564264228 10.132245477 0.0 0.0 0.0 0.0
45 1 74.3934264228 9.47303547697 0.0 0.0 0.0 0.0
46 1 77.2215264228 13.768845477 0.0 0.0 0.0 0.0
47 1 4.28042642283 15.434545477 0.0 0.0 0.0 0.0
48 1 9.38462642283 15.414745477 0.0 0.0 0.0 0.0
49 1 15.0287264228 15.850245477 0.0 0.0 0.0 0.0
50 1 20.0560264228 16.503745477 0.0 0.0 0.0 0.0
51 1 24.4317264228 16.250645477 0.0 0.0 0.0 0.0
52 1 30.1708264228 16.796645477 0.0 0.0 0.0 0.0
53 1 38.1449264228 15.914545477 0.0 0.0 0.0 0.0
54 1 41.0537264228 15.173145477 0.0 0.0 0.0 0.0
55 1 48.0163264228 15.056745477 0.0 0.0 0.0 0.0
56 1 50.8961264228 14.099845477 0.0 0.0 0.0 0.0
57 1 55.7768264228 12.794845477 0.0 0.0 0.0 0.0
58 1 63.2600264228 15.044745477 0.0 0.0 0.0 0.0
59 1 66.3123264228 14.948645477 0.0 0.0 0.0 0.0
60 1 74.2192264228 13.749445477 0.0 0.0 0.0 0.0
61 1 1.63024642283 20.986345477 0.0 0.0 0.0 0.0
62 1 6.65267642283 20.005645477 0.0 0.0 0.0 0.0
63 1 12.0718264228 19.607345477 0.0 0.0 0.0 0.0
64 1 17.6197264228 20.793045477 0.0 0.0 0.0 0.0
65 1 24.8568264228 22.577245477 0.0 0.0 0.0 0.0
66 1 29.3927264228 21.658145477 0.0 0.0 0.0 0.0
67 1 31.5250264228 19.512245477 0.0 0.0 0.0 0.0
68 1 39.4090264228 20.564245477 0.0 0.0 0.0 0.0
69 1 42.3376264228 19.865045477 0.0 0.0 0.0 0.0
70 1 45.8765264228 23.487045477 0.0 0.0 0.0 0.0
71 1 52.9540264228 18.110845477 0.0 0.0 0.0 0.0
72 1 58.1426264228 18.143945477 0.0 0.0 0.0 0.0
73 1 62.3727264228 19.428845477 0.0 0.0 0.0 0.0
74 1 68.8602264228 19.471545477 0.0 0.0 0.0 0.0
75 1 71.8907264228 17.110945477 0.0 0.0 0.0 0.0
76 1 1.01061642283 23.921645477 0.0 0.0 0.0 0.0
77 1 6.16583642283 24.663645477 0.0 0.0 0.0 0.0
78 1 10.6446264228 23.808445477 0.0 0.0 0.0 0.0
79 1 15.3601264228 26.365145477 0.0 0.0 0.0 0.0
80 1 19.4908264228 23.178645477 0.0 0.0 0.0 0.0
81 1 25.9591264228 28.828045477 0.0 0.0 0.0 0.0
82 1 31.3862264228 26.902945477 0.0 0.0 0.0 0.0
83 1 34.2655264228 25.944045477 0.0 0.0 0.0 0.0
84 1 39.5463264228 26.176545477 0.0 0.0 0.0 0.0
85 1 48.7537264228 22.550345477 0.0 0.0 0.0 0.0
86 1 52.4056264228 23.054745477 0.0 0.0 0.0 0.0
87 1 55.7208264228 25.666245477 0.0 0.0 0.0 0.0
88 1 60.1443264228 23.622045477 0.0 0.0 0.0 0.0
89 1 64.6336264228 21.351845477 0.0 0.0 0.0 0.0
90 1 72.3573264228 23.014045477 0.0 0.0 0.0 0.0
91 1 2.36922642283 26.597045477 0.0 0.0 0.0 0.0
92 1 10.3946264228 28.734745477 0.0 0.0 0.0 0.0
93 1 13.4240264228 28.673645477 0.0 0.0 0.0 0.0
94 1 18.3149264228 29.089745477 0.0 0.0 0.0 0.0
95 1 23.4534264228 30.533945477 0.0 0.0 0.0 0.0
96 1 26.9932264228 31.633545477 0.0 0.0 0.0 0.0
97 1 33.9016264228 32.278145477 0.0 0.0 0.0 0.0
98 1 38.2929264228 30.199345477 0.0 0.0 0.0 0.0
99 1 42.1136264228 27.787945477 0.0 0.0 0.0 0.0
100 1 49.2736264228 28.003745477 0.0 0.0 0.0 0.0
101 1 55.3895264228 28.649445477 0.0 0.0 0.0 0.0
102 1 60.3388264228 28.631645477 0.0 0.0 0.0 0.0
103 1 64.5090264228 26.531345477 0.0 0.0 0.0 0.0
104 1 70.0287264228 27.189245477 0.0 0.0 0.0 0.0
105 1 73.5194264228 25.766345477 0.0 0.0 0.0 0.0
106 1 0.309246422832 31.576045477 0.0 0.0 0.0 0.0
107 1 4.08166642283 34.714145477 0.0 0.0 0.0 0.0
108 1 9.75632642283 34.231945477 0.0 0.0 0.0 0.0
109 1 14.8615264228 33.547845477 0.0 0.0 0.0 0.0
110 1 20.1685264228 34.180945477 0.0 0.0 0.0 0.0
111 1 24.5037264228 36.365845477 0.0 0.0 0.0 0.0
112 1 30.0566264228 36.711845477 0.0 0.0 0.0 0.0
113 1 37.6104264228 35.714945477 0.0 0.0 0.0 0.0
114 1 41.9628264228 33.702145477 0.0 0.0 0.0 0.0
115 1 46.2388264228 32.069245477 0.0 0.0 0.0 0.0
116 1 50.9274264228 30.512845477 0.0 0.0 0.0 0.0
117 1 58.7722264228 33.166245477 0.0 0.0 0.0 0.0
118 1 67.2860264228 33.182345477 0.0 0.0 0.0 0.0
119 1 65.8799264228 30.570445477 0.0 0.0 0.0 0.0
120 1 73.0865264228 31.607645477 0.0 0.0 0.0 0.0
121 1 2.65090642283 37.357145477 0.0 0.0 0.0 0.0
122 1 6.68623642283 40.840645477 0.0 0.0 0.0 0.0
123 1 13.8600264228 38.234545477 0.0 0.0 0.0 0.0
124 1 16.8922264228 38.192345477 0.0 0.0 0.0 0.0
125 1 20.6564264228 42.211445477 0.0 0.0 0.0 0.0
126 1 28.2187264228 40.578045477 0.0 0.0 0.0 0.0
127 1 32.6261264228 38.275145477 0.0 0.0 0.0 0.0
128 1 40.6004264228 39.431045477 0.0 0.0 0.0 0.0
129 1 45.3716264228 37.798445477 0.0 0.0 0.0 0.0
130 1 50.2056264228 35.706345477 0.0 0.0 0.0 0.0
131 1 55.4591264228 36.481745477 0.0 0.0 0.0 0.0
132 1 60.8898264228 37.266445477 0.0 0.0 0.0 0.0
133 1 65.3584264228 37.385445477 0.0 0.0 0.0 0.0
134 1 70.7197264228 35.569645477 0.0 0.0 0.0 0.0
135 1 75.6420264228 36.416945477 0.0 0.0 0.0 0.0
136 1 76.9054264228 41.669445477 0.0 0.0 0.0 0.0
137 1 4.34807642283 42.746645477 0.0 0.0 0.0 0.0
138 1 8.61250642283 44.183145477 0.0 0.0 0.0 0.0
139 1 13.6455264228 43.885645477 0.0 0.0 0.0 0.0
140 1 19.7119264228 45.091245477 0.0 0.0 0.0 0.0
141 1 23.4990264228 43.227345477 0.0 0.0 0.0 0.0
142 1 33.3758264228 43.018845477 0.0 0.0 0.0 0.0
143 1 36.4021264228 42.898845477 0.0 0.0 0.0 0.0
144 1 42.4255264228 41.867145477 0.0 0.0 0.0 0.0
145 1 49.5542264228 40.808045477 0.0 0.0 0.0 0.0
146 1 52.5222264228 40.453545477 0.0 0.0 0.0 0.0
147 1 57.7991264228 41.036845477 0.0 0.0 0.0 0.0
148 1 62.9948264228 42.307345477 0.0 0.0 0.0 0.0
149 1 70.5031264228 39.440445477 0.0 0.0 0.0 0.0
150 1 71.2761264228 43.661845477 0.0 0.0 0.0 0.0
151 1 1.86861642283 46.719245477 0.0 0.0 0.0 0.0
152 1 6.76419642283 50.151245477 0.0 0.0 0.0 0.0
153 1 12.2688264228 48.388945477 0.0 0.0 0.0 0.0
154 1 18.8371264228 50.210845477 0.0 0.0 0.0 0.0
155 1 23.6695264228 48.867245477 0.0 0.0 0.0 0.0
156 1 27.9460264228 48.457345477 0.0 0.0 0.0 0.0
157 1 32.6634264228 47.865245477 0.0 0.0 0.0 0.0
158 1 37.8764264228 47.752845477 0.0 0.0 0.0 0.0
159 1 42.7289264228 47.715045477 0.0 0.0 0.0 0.0
160 1 49.0512264228 45.654745477 0.0 0.0 0.0 0.0
161 1 55.0585264228 45.132345477 0.0 0.0 0.0 0.0
162 1 58.1195264228 45.352845477 0.0 0.0 0.0 0.0
163 1 66.4878264228 45.835745477 0.0 0.0 0.0 0.0
164 1 69.5006264228 46.099745477 0.0 0.0 0.0 0.0
165 1 74.5749264228 46.157545477 0.0 0.0 0.0 0.0
166 1 77.4329264228 53.044645477 0.0 0.0 0.0 0.0
167 1 5.51019642283 52.895645477 0.0 0.0 0.0 0.0
168 1 10.4694264228 53.104445477 0.0 0.0 0.0 0.0
169 1 18.8364264228 53.221945477 0.0 0.0 0.0 0.0
170 1 21.7281264228 54.118845477 0.0 0.0 0.0 0.0
171 1 26.1991264228 53.781045477 0.0 0.0 0.0 0.0
172 1 31.3099264228 52.841145477 0.0 0.0 0.0 0.0
173 1 36.7108264228 53.681945477 0.0 0.0 0.0 0.0
174 1 41.4291264228 54.612845477 0.0 0.0 0.0 0.0
175 1 45.9550264228 55.128645477 0.0 0.0 0.0 0.0
176 1 50.0482264228 49.933745477 0.0 0.0 0.0 0.0
177 1 55.3236264228 50.776045477 0.0 0.0 0.0 0.0
178 1 60.8191264228 49.966845477 0.0 0.0 0.0 0.0
179 1 66.4847264228 51.383445477 0.0 0.0 0.0 0.0
180 1 72.4293264228 50.685045477 0.0 0.0 0.0 0.0
181 1 2.75724642283 56.934545477 0.0 0.0 0.0 0.0
182 1 8.21903642283 57.705345477 0.0 0.0 0.0 0.0
183 1 13.3873264228 57.353545477 0.0 0.0 0.0 0.0
184 1 18.0292264228 60.089845477 0.0 0.0 0.0 0.0
185 1 25.1401264228 58.921245477 0.0 0.0 0.0 0.0
186 1 29.6522264228 57.745145477 0.0 0.0 0.0 0.0
187 1 36.4972264228 56.661945477 0.0 0.0 0.0 0.0
188 1 38.4358264228 59.890845477 0.0 0.0 0.0 0.0
189 1 45.9908264228 58.142845477 0.0 0.0 0.0 0.0
190 1 48.9459264228 55.366645477 0.0 0.0 0.0 0.0
191 1 54.3025264228 56.097945477 0.0 0.0 0.0 0.0
192 1 59.5108264228 54.292545477 0.0 0.0 0.0 0.0
193 1 65.9837264228 54.343245477 0.0 0.0 0.0 0.0
194 1 70.0683264228 57.211545477 0.0 0.0 0.0 0.0
195 1 75.4834264228 55.331345477 0.0 0.0 0.0 0.0
196 1 0.0880924228318 62.473445477 0.0 0.0 0.0 0.0
197 1 4.03371642283 59.661845477 0.0 0.0 0.0 0.0
198 1 10.8184264228 61.995145477 0.0 0.0 0.0 0.0
199 1 16.2228264228 62.492945477 0.0 0.0 0.0 0.0
200 1 20.8786264228 64.176945477 0.0 0.0 0.0 0.0
201 1 23.7869264228 61.627545477 0.0 0.0 0.0 0.0
202 1 31.8059264228 59.813645477 0.0 0.0 0.0 0.0
203 1 41.0518264228 61.289445477 0.0 0.0 0.0 0.0
204 1 45.3469264228 62.748145477 0.0 0.0 0.0 0.0
205 1 48.2366264228 60.179845477 0.0 0.0 0.0 0.0
206 1 53.1927264228 58.884745477 0.0 0.0 0.0 0.0
207 1 57.6852264228 59.224045477 0.0 0.0 0.0 0.0
208 1 61.5766264228 56.484845477 0.0 0.0 0.0 0.0
209 1 68.5418264228 59.795245477 0.0 0.0 0.0 0.0
210 1 73.0046264228 60.099745477 0.0 0.0 0.0 0.0
211 1 3.38191642283 65.485545477 0.0 0.0 0.0 0.0
212 1 7.97081642283 66.243445477 0.0 0.0 0.0 0.0
213 1 12.5002264228 66.365045477 0.0 0.0 0.0 0.0
214 1 17.6622264228 67.864145477 0.0 0.0 0.0 0.0
215 1 24.4959264228 67.651145477 0.0 0.0 0.0 0.0
216 1 31.5047264228 65.034545477 0.0 0.0 0.0 0.0
217 1 34.5280264228 64.529345477 0.0 0.0 0.0 0.0
218 1 38.7345264228 66.688645477 0.0 0.0 0.0 0.0
219 1 43.6481264228 67.806245477 0.0 0.0 0.0 0.0
220 1 48.5170264228 66.211445477 0.0 0.0 0.0 0.0
221 1 56.7221264228 63.665545477 0.0 0.0 0.0 0.0
222 1 61.4172264228 62.253545477 0.0 0.0 0.0 0.0
223 1 64.3848264228 62.612245477 0.0 0.0 0.0 0.0
224 1 70.0658264228 64.888745477 0.0 0.0 0.0 0.0
225 1 76.1114264228 64.942445477 0.0 0.0 0.0 0.0
226 1 76.0786264228 71.848045477 0.0 0.0 0.0 0.0
227 1 4.13039642283 70.466745477 0.0 0.0 0.0 0.0
228 1 10.6538264228 71.279845477 0.0 0.0 0.0 0.0
229 1 16.7437264228 71.526545477 0.0 0.0 0.0 0.0
230 1 19.4975264228 70.217245477 0.0 0.0 0.0 0.0
231 1 27.0259264228 71.503045477 0.0 0.0 0.0 0.0
232 1 31.5257264228 70.802745477 0.0 0.0 0.0 0.0
233 1 36.3232264228 70.316945477 0.0 0.0 0.0 0.0
234 1 41.4042264228 71.739645477 0.0 0.0 0.0 0.0
235 1 46.7355264228 71.480945477 0.0 0.0 0.0 0.0
236 1 50.2765264228 68.636545477 0.0 0.0 0.0 0.0
237 1 57.0553264228 68.560145477 0.0 0.0 0.0 0.0
238 1 61.0025264228 67.301045477 0.0 0.0 0.0 0.0
239 1 64.8323264228 65.593245477 0.0 0.0 0.0 0.0
240 1 71.0775264228 67.711745477 0.0 0.0 0.0 0.0
241 1 2.36732642283 74.539645477 0.0 0.0 0.0 0.0
242 1 8.80397642283 76.063645477 0.0 0.0 0.0 0.0
243 1 14.5546264228 76.157245477 0.0 0.0 0.0 0.0
244 1 19.0652264228 76.636745477 0.0 0.0 0.0 0.0
245 1 24.3090264228 75.593845477 0.0 0.0 0.0 0.0
246 1 29.4914264228 76.153745477 0.0 0.0 0.0 0.0
247 1 35.6263264228 75.063545477 0.0 0.0 0.0 0.0
248 1 38.6404264228 75.474345477 0.0 0.0 0.0 0.0
249 1 43.8605264228 75.988545477 0.0 0.0 0.0 0.0
250 1 51.4818264228 74.036845477 0.0 0.0 0.0 0.0
251 1 56.6421264228 73.370745477 0.0 0.0 0.0 0.0
252 1 59.6204264228 72.967445477 0.0 0.0 0.0 0.0
253 1 64.3260264228 71.418445477 0.0 0.0 0.0 0.0
254 1 68.4070264228 74.915845477 0.0 0.0 0.0 0.0
255 1 74.3739264228 74.290845477 0.0 0.0 0.0 0.0
256 1 77.5945264228 2.50848547697 0.0 0.0 0.0 0.0
257 1 5.08666642283 3.43897547697 0.0 0.0 0.0 0.0
258 1 9.72852642283 3.29068547697 0.0 0.0 0.0 0.0
259 1 15.2469264228 3.90218547697 0.0 0.0 0.0 0.0
260 1 20.5399264228 4.24425547697 0.0 0.0 0.0 0.0
261 1 25.2397264228 4.27813547697 0.0 0.0 0.0 0.0
262 1 31.8887264228 5.93107547697 0.0 0.0 0.0 0.0
263 1 34.8348264228 5.40345547697 0.0 0.0 0.0 0.0
264 1 40.7731264228 4.67323547697 0.0 0.0 0.0 0.0
265 1 46.6818264228 4.59722547697 0.0 0.0 0.0 0.0
266 1 52.5705264228 2.67991547697 0.0 0.0 0.0 0.0
267 1 55.5844264228 2.21793547697 0.0 0.0 0.0 0.0
268 1 62.9406264228 1.43996547697 0.0 0.0 0.0 0.0
269 1 67.9305264228 2.02026547697 0.0 0.0 0.0 0.0
270 1 73.0003264228 1.58974547697 0.0 0.0 0.0 0.0
271 1 1.63093642283 7.10396547697 0.0 0.0 0.0 0.0
272 1 7.17450642283 7.84248547697 0.0 0.0 0.0 0.0
273 1 12.1993264228 8.08521547697 0.0 0.0 0.0 0.0
274 1 17.4041264228 8.63361547697 0.0 0.0 0.0 0.0
275 1 22.5125264228 8.88682547697 0.0 0.0 0.0 0.0
276 1 27.6994264228 8.66449547697 0.0 0.0 0.0 0.0
277 1 32.2226264228 8.88782547697 0.0 0.0 0.0 0.0
278 1 39.4026264228 10.526945477 0.0 0.0 0.0 0.0
279 1 43.2417264228 8.19472547697 0.0 0.0 0.0 0.0
280 1 49.0172264228 6.54880547697 0.0 0.0 0.0 0.0
281 1 54.5534264228 7.11068547697 0.0 0.0 0.0 0.0
282 1 59.6955264228 5.75804547697 0.0 0.0 0.0 0.0
283 1 64.8276264228 6.37012547697 0.0 0.0 0.0 0.0
284 1 67.6618264228 7.55166547697 0.0 0.0 0.0 0.0
285 1 74.0730264228 6.50147547697 0.0 0.0 0.0 0.0
286 1 77.4060264228 9.42678547697 0.0 0.0 0.0 0.0
287 1 4.57934642283 12.449445477 0.0 0.0 0.0 0.0
288 1 9.65562642283 12.425845477 0.0 0.0 0.0 0.0
289 1 14.8036264228 12.850145477 0.0 0.0 0.0 0.0
290 1 19.9145264228 13.494845477 0.0 0.0 0.0 0.0
291 1 25.0823264228 13.300145477 0.0 0.0 0.0 0.0
292 1 29.8761264228 13.787645477 0.0 0.0 0.0 0.0
293 1 35.1143264228 11.365945477 0.0 0.0 0.0 0.0
294 1 41.8286264228 12.279945477 0.0 0.0 0.0 0.0
295 1 47.2393264228 12.114545477 0.0 0.0 0.0 0.0
296 1 51.4670264228 11.136145477 0.0 0.0 0.0 0.0
297 1 58.6195264228 11.615445477 0.0 0.0 0.0 0.0
298 1 62.7508264228 8.52523547697 0.0 0.0 0.0 0.0
299 1 67.0013264228 12.021645477 0.0 0.0 0.0 0.0
300 1 72.1435264228 11.473745477 0.0 0.0 0.0 0.0
301 1 1.36746642283 16.164345477 0.0 0.0 0.0 0.0
302 1 6.83148642283 17.009645477 0.0 0.0 0.0 0.0
303 1 12.1301264228 16.625345477 0.0 0.0 0.0 0.0
304 1 17.3503264228 17.787645477 0.0 0.0 0.0 0.0
305 1 22.3463264228 18.460745477 0.0 0.0 0.0 0.0
306 1 27.2190264228 17.326545477 0.0 0.0 0.0 0.0
307 1 34.4479264228 20.290545477 0.0 0.0 0.0 0.0
308 1 37.0264264228 18.714845477 0.0 0.0 0.0 0.0
309 1 43.3657264228 17.058345477 0.0 0.0 0.0 0.0
310 1 46.3112264228 17.612245477 0.0 0.0 0.0 0.0
311 1 53.7331264228 15.137145477 0.0 0.0 0.0 0.0
312 1 61.4893264228 12.616445477 0.0 0.0 0.0 0.0
313 1 60.8642264228 16.858245477 0.0 0.0 0.0 0.0
314 1 68.9265264228 16.485145477 0.0 0.0 0.0 0.0
315 1 74.8733264228 16.733945477 0.0 0.0 0.0 0.0
316 1 77.3262264228 18.618445477 0.0 0.0 0.0 0.0
317 1 4.49130642283 22.091345477 0.0 0.0 0.0 0.0
318 1 9.45682642283 21.065245477 0.0 0.0 0.0 0.0
319 1 14.6469264228 21.136845477 0.0 0.0 0.0 0.0
320 1 22.0374264228 21.504645477 0.0 0.0 0.0 0.0
321 1 26.7470264228 20.265445477 0.0 0.0 0.0 0.0
322 1 27.5110264228 24.012845477 0.0 0.0 0.0 0.0
323 1 35.4075264228 23.154645477 0.0 0.0 0.0 0.0
324 1 38.4125264228 23.393945477 0.0 0.0 0.0 0.0
325 1 45.2733264228 20.502645477 0.0 0.0 0.0 0.0
326 1 50.9437264228 20.430745477 0.0 0.0 0.0 0.0
327 1 55.5437264228 19.651045477 0.0 0.0 0.0 0.0
328 1 59.6798264228 20.699445477 0.0 0.0 0.0 0.0
329 1 67.5047264228 22.120845477 0.0 0.0 0.0 0.0
330 1 71.7795264228 20.092645477 0.0 0.0 0.0 0.0
331 1 5.20027642283 27.505145477 0.0 0.0 0.0 0.0
332 1 8.80840642283 26.150745477 0.0 0.0 0.0 0.0
333 1 13.6278264228 23.937245477 0.0 0.0 0.0 0.0
334 1 18.3593264228 26.039245477 0.0 0.0 0.0 0.0
335 1 28.3293264228 26.905945477 0.0 0.0 0.0 0.0
336 1 29.9582264228 31.614845477 0.0 0.0 0.0 0.0
337 1 32.2857264228 29.758345477 0.0 0.0 0.0 0.0
338 1 36.8570264228 27.544445477 0.0 0.0 0.0 0.0
339 1 44.8243264228 26.400245477 0.0 0.0 0.0 0.0
340 1 50.2741264228 25.149845477 0.0 0.0 0.0 0.0
341 1 55.3648264228 22.672245477 0.0 0.0 0.0 0.0
342 1 58.6546264228 26.181645477 0.0 0.0 0.0 0.0
343 1 63.1078264228 23.907545477 0.0 0.0 0.0 0.0
344 1 69.6255264228 24.220645477 0.0 0.0 0.0 0.0
345 1 76.4702264228 25.915645477 0.0 0.0 0.0 0.0
346 1 0.132045422832 28.583245477 0.0 0.0 0.0 0.0
347 1 5.98042642283 30.408245477 0.0 0.0 0.0 0.0
348 1 8.86056642283 31.336345477 0.0 0.0 0.0 0.0
349 1 15.6937264228 30.640145477 0.0 0.0 0.0 0.0
350 1 20.5145264228 31.164145477 0.0 0.0 0.0 0.0
351 1 24.5636264228 33.347545477 0.0 0.0 0.0 0.0
352 1 31.5507264228 34.124945477 0.0 0.0 0.0 0.0
353 1 36.8402264228 32.818845477 0.0 0.0 0.0 0.0
354 1 41.2684264228 30.716245477 0.0 0.0 0.0 0.0
355 1 46.4180264228 29.002645477 0.0 0.0 0.0 0.0
356 1 53.8430264228 31.208445477 0.0 0.0 0.0 0.0
357 1 57.8972264228 30.308445477 0.0 0.0 0.0 0.0
358 1 63.2383264228 29.234645477 0.0 0.0 0.0 0.0
359 1 67.1482264228 27.883045477 0.0 0.0 0.0 0.0
360 1 72.6384264228 28.634345477 0.0 0.0 0.0 0.0
361 1 3.31449642283 31.826545477 0.0 0.0 0.0 0.0
362 1 6.99560642283 35.463245477 0.0 0.0 0.0 0.0
363 1 12.5337264228 35.483345477 0.0 0.0 0.0 0.0
364 1 17.3528264228 35.223245477 0.0 0.0 0.0 0.0
365 1 21.5294264228 36.890245477 0.0 0.0 0.0 0.0
366 1 27.2141264228 37.733045477 0.0 0.0 0.0 0.0
367 1 35.6265264228 37.965545477 0.0 0.0 0.0 0.0
368 1 40.5394264228 36.389345477 0.0 0.0 0.0 0.0
369 1 44.7871264228 34.766445477 0.0 0.0 0.0 0.0
370 1 49.1267264228 32.903645477 0.0 0.0 0.0 0.0
371 1 55.7863264228 33.519045477 0.0 0.0 0.0 0.0
372 1 61.5559264228 34.341945477 0.0 0.0 0.0 0.0
373 1 64.5683264228 34.498245477 0.0 0.0 0.0 0.0
374 1 70.2541264228 32.634245477 0.0 0.0 0.0 0.0
375 1 75.5506264228 33.379745477 0.0 0.0 0.0 0.0
376 1 77.6147264228 38.708245477 0.0 0.0 0.0 0.0
377 1 5.55782642283 38.087445477 0.0 0.0 0.0 0.0
378 1 9.64342642283 41.369045477 0.0 0.0 0.0 0.0
379 1 12.6491264228 41.016945477 0.0 0.0 0.0 0.0
380 1 19.7033264228 39.323645477 0.0 0.0 0.0 0.0
381 1 26.5076264228 43.052445477 0.0 0.0 0.0 0.0
382 1 31.2243264228 40.916245477 0.0 0.0 0.0 0.0
383 1 37.6714264228 40.171745477 0.0 0.0 0.0 0.0
384 1 45.2775264228 40.877645477 0.0 0.0 0.0 0.0
385 1 48.3522264228 38.053945477 0.0 0.0 0.0 0.0
386 1 52.6394264228 37.455345477 0.0 0.0 0.0 0.0
387 1 58.0047264228 38.055645477 0.0 0.0 0.0 0.0
388 1 63.0761264228 39.312545477 0.0 0.0 0.0 0.0
389 1 68.3487264228 37.371045477 0.0 0.0 0.0 0.0
390 1 72.8889264228 37.626245477 0.0 0.0 0.0 0.0
391 1 1.49589642283 43.699245477 0.0 0.0 0.0 0.0
392 1 5.85682642283 45.327245477 0.0 0.0 0.0 0.0
393 1 11.2044264228 45.610445477 0.0 0.0 0.0 0.0
394 1 14.7882264228 46.695545477 0.0 0.0 0.0 0.0
395 1 22.5527264228 46.072545477 0.0 0.0 0.0 0.0
396 1 28.3167264228 45.466145477 0.0 0.0 0.0 0.0
397 1 31.3186264228 45.200945477 0.0 0.0 0.0 0.0
398 1 38.6902264228 44.868145477 0.0 0.0 0.0 0.0
399 1 41.7157264228 44.829445477 0.0 0.0 0.0 0.0
400 1 47.5100264228 42.995945477 0.0 0.0 0.0 0.0
401 1 55.0075264228 42.136145477 0.0 0.0 0.0 0.0
402 1 60.0475264228 43.017945477 0.0 0.0 0.0 0.0
403 1 65.9683264228 42.882845477 0.0 0.0 0.0 0.0
404 1 68.8339264228 41.922445477 0.0 0.0 0.0 0.0
405 1 74.2692264228 43.172545477 0.0 0.0 0.0 0.0
406 1 76.8598264228 48.097645477 0.0 0.0 0.0 0.0
407 1 4.59517642283 48.036745477 0.0 0.0 0.0 0.0
408 1 9.81082642283 50.170245477 0.0 0.0 0.0 0.0
409 1 17.7305264228 47.383745477 0.0 0.0 0.0 0.0
410 1 21.7000264228 51.105245477 0.0 0.0 0.0 0.0
411 1 26.0062264228 50.750545477 0.0 0.0 0.0 0.0
412 1 30.5305264228 49.954645477 0.0 0.0 0.0 0.0
413 1 35.2903264228 49.262545477 0.0 0.0 0.0 0.0
414 1 40.3036264228 49.500845477 0.0 0.0 0.0 0.0
415 1 44.8749264228 49.873545477 0.0 0.0 0.0 0.0
416 1 47.5174264228 48.307645477 0.0 0.0 0.0 0.0
417 1 52.1310264228 46.045545477 0.0 0.0 0.0 0.0
418 1 60.6700264228 46.974345477 0.0 0.0 0.0 0.0
419 1 63.6917264228 46.976545477 0.0 0.0 0.0 0.0
420 1 72.0088264228 47.722845477 0.0 0.0 0.0 0.0
421 1 2.66986642283 53.921345477 0.0 0.0 0.0 0.0
422 1 7.91623642283 54.708645477 0.0 0.0 0.0 0.0
423 1 13.2036264228 54.363745477 0.0 0.0 0.0 0.0
424 1 16.1905264228 54.613345477 0.0 0.0 0.0 0.0
425 1 24.1332264228 56.005045477 0.0 0.0 0.0 0.0
426 1 29.0360264228 54.804045477 0.0 0.0 0.0 0.0
427 1 34.2071264228 52.063245477 0.0 0.0 0.0 0.0
428 1 39.4229264228 52.381045477 0.0 0.0 0.0 0.0
429 1 43.9608264228 52.849645477 0.0 0.0 0.0 0.0
430 1 50.5809264228 52.867645477 0.0 0.0 0.0 0.0
431 1 52.8982264228 48.957845477 0.0 0.0 0.0 0.0
432 1 58.2609264228 51.544945477 0.0 0.0 0.0 0.0
433 1 63.8228264228 49.970545477 0.0 0.0 0.0 0.0
434 1 69.5149264228 51.514245477 0.0 0.0 0.0 0.0
435 1 75.4620264228 50.767545477 0.0 0.0 0.0 0.0
436 1 77.4953264228 57.536745477 0.0 0.0 0.0 0.0
437 1 6.92257642283 60.422645477 0.0 0.0 0.0 0.0
438 1 10.9077264228 59.005145477 0.0 0.0 0.0 0.0
439 1 16.3603264228 57.603145477 0.0 0.0 0.0 0.0
440 1 20.8215264228 61.187845477 0.0 0.0 0.0 0.0
441 1 27.9032264228 60.181945477 0.0 0.0 0.0 0.0
442 1 34.7171264228 59.115745477 0.0 0.0 0.0 0.0
443 1 39.4849264228 57.017645477 0.0 0.0 0.0 0.0
444 1 43.8209264228 60.175845477 0.0 0.0 0.0 0.0
445 1 50.3203264228 58.045545477 0.0 0.0 0.0 0.0
446 1 53.5546264228 53.202845477 0.0 0.0 0.0 0.0
447 1 57.2734264228 56.269645477 0.0 0.0 0.0 0.0
448 1 64.5322264228 56.975145477 0.0 0.0 0.0 0.0
449 1 68.9628264228 54.448145477 0.0 0.0 0.0 0.0
450 1 73.0495264228 57.093345477 0.0 0.0 0.0 0.0
451 1 3.06962642283 62.503245477 0.0 0.0 0.0 0.0
452 1 8.08228642283 63.215245477 0.0 0.0 0.0 0.0
453 1 13.3960264228 63.501545477 0.0 0.0 0.0 0.0
454 1 17.9938264228 64.906245477 0.0 0.0 0.0 0.0
455 1 23.8252264228 64.677445477 0.0 0.0 0.0 0.0
456 1 30.1001264228 62.302645477 0.0 0.0 0.0 0.0
457 1 36.0452264228 61.816245477 0.0 0.0 0.0 0.0
458 1 40.3583264228 64.187745477 0.0 0.0 0.0 0.0
459 1 43.2594264228 64.866245477 0.0 0.0 0.0 0.0
460 1 48.2991264228 63.197045477 0.0 0.0 0.0 0.0
461 1 55.2980264228 61.023945477 0.0 0.0 0.0 0.0
462 1 60.6630264228 59.352345477 0.0 0.0 0.0 0.0
463 1 65.5439264228 59.824345477 0.0 0.0 0.0 0.0
464 1 70.6334264228 61.940245477 0.0 0.0 0.0 0.0
465 1 75.9770264228 60.102345477 0.0 0.0 0.0 0.0
466 1 0.729236422832 66.874245477 0.0 0.0 0.0 0.0
467 1 5.36479642283 67.722645477 0.0 0.0 0.0 0.0
468 1 10.1851264228 68.283245477 0.0 0.0 0.0 0.0
469 1 14.7075264228 68.362045477 0.0 0.0 0.0 0.0
470 1 22.5463264228 70.020745477 0.0 0.0 0.0 0.0
471 1 27.4112264228 68.512545477 0.0 0.0 0.0 0.0
472 1 30.4026264228 67.924945477 0.0 0.0 0.0 0.0
473 1 35.8109264228 67.305045477 0.0 0.0 0.0 0.0
474 1 40.8461264228 68.810445477 0.0 0.0 0.0 0.0
475 1 46.5412264228 68.481145477 0.0 0.0 0.0 0.0
476 1 53.2402264228 68.468245477 0.0 0.0 0.0 0.0
477 1 55.2040264228 66.226345477 0.0 0.0 0.0 0.0
478 1 59.5825264228 64.630645477 0.0 0.0 0.0 0.0
479 1 67.6250264228 66.595745477 0.0 0.0 0.0 0.0
480 1 73.9478264228 66.967545477 0.0 0.0 0.0 0.0
481 1 1.41063642283 71.707545477 0.0 0.0 0.0 0.0
482 1 5.15683642283 73.292945477 0.0 0.0 0.0 0.0
483 1 13.7107264228 71.178445477 0.0 0.0 0.0 0.0
484 1 17.0163264228 74.478945477 0.0 0.0 0.0 0.0
485 1 24.2063264228 72.560445477 0.0 0.0 0.0 0.0
486 1 29.5657264228 73.115945477 0.0 0.0 0.0 0.0
487 1 34.1379264228 72.381445477 0.0 0.0 0.0 0.0
488 1 38.5009264228 72.450145477 0.0 0.0 0.0 0.0
489 1 44.1323264228 72.997445477 0.0 0.0 0.0 0.0
490 1 49.7266264228 71.595545477 0.0 0.0 0.0 0.0
491 1 55.0933264228 70.803245477 0.0 0.0 0.0 0.0
492 1 59.6732264228 69.971245477 0.0 0.0 0.0 0.0
493 1 63.7803264228 68.419845477 0.0 0.0 0.0 0.0
494 1 68.6306264228 69.425745477 0.0 0.0 0.0 0.0
495 1 76.2135264228 68.891545477 0.0 0.0 0.0 0.0
496 1 77.1458264228 75.578445477 0.0 0.0 0.0 0.0
497 1 8.19946642283 73.119945477 0.0 0.0 0.0 0.0
498 1 11.6689264228 76.906945477 0.0 0.0 0.0 0.0
499 1 16.6025264228 78.328145477 0.0 0.0 0.0 0.0
500 1 21.9362264228 77.455045477 0.0 0.0 0.0 0.0
501 1 26.7359264228 77.407445477 0.0 0.0 0.0 0.0
502 1 31.6552264228 78.280945477 0.0 0.0 0.0 0.0
503 1 34.6486264228 77.907245477 0.0 0.0 0.0 0.0
504 1 41.1289264228 77.316245477 0.0 0.0 0.0 0.0
505 1 46.7408264228 76.908945477 0.0 0.0 0.0 0.0
506 1 49.7313264228 76.469145477 0.0 0.0 0.0 0.0
507 1 54.2701264228 75.190645477 0.0 0.0 0.0 0.0
508 1 62.4938264228 73.844745477 0.0 0.0 0.0 0.0
509 1 67.2656264228 72.112645477 0.0 0.0 0.0 0.0
510 1 71.4638264228 75.199645477 0.0 0.0 0.0 0.0
511 1 8.03024642283 78.966045477 0.0 0.0 0.0 0.0
512 1 10.9122264228 79.800045477 0.0 0.0 0.0 0.0
513 1 16.0031264228 81.244145477 0.0 0.0 0.0 0.0
514 1 21.2887264228 80.398145477 0.0 0.0 0.0 0.0
515 1 26.4951264228 80.434945477 0.0 0.0 0.0 0.0
516 1 31.5019264228 81.297045477 0.0 0.0 0.0 0.0
517 1 36.4352264228 80.350245477 0.0 0.0 0.0 0.0
518 1 41.9133264228 80.285545477 0.0 0.0 0.0 0.0
519 1 46.9238264228 79.895145477 0.0 0.0 0.0 0.0
520 1 51.8744264228 78.600145477 0.0 0.0 0.0 0.0
521 1 57.6479264228 79.322745477 0.0 0.0 0.0 0.0
522 1 62.9779264228 76.833045477 0.0 0.0 0.0 0.0
523 1 66.9801264228 79.718445477 0.0 0.0 0.0 0.0
524 1 72.5436264228 78.009645477 0.0 0.0 0.0 0.0
525 1 77.6432264228 80.337045477 0.0 0.0 0.0 0.0
526 1 2.93878642283 80.959445477 0.0 0.0 0.0 0.0
527 1 5.95354642283 81.132545477 0.0 0.0 0.0 0.0
528 1 13.0725264228 81.881645477 0.0 0.0 0.0 0.0
529 1 18.8485264228 82.181345477 0.0 0.0 0.0 0.0
530 1 23.8672264228 81.925545477 0.0 0.0 0.0 0.0
531 1 28.7264264228 0.0981655769695 0.0 0.0 0.0 0.0
532 1 34.2898264228 0.0870872769695 0.0 0.0 0.0 0.0
533 1 39.1942264228 81.625045477 0.0 0.0 0.0 0.0
534 1 44.6032264228 81.799045477 0.0 0.0 0.0 0.0
535 1 49.8054264228 80.757545477 0.0 0.0 0.0 0.0
536 1 54.8558264228 78.136645477 0.0 0.0 0.0 0.0
537 1 60.6569264228 78.852645477 0.0 0.0 0.0 0.0
538 1 66.0318264228 76.857345477 0.0 0.0 0.0 0.0
539 1 70.0008264228 79.641645477 0.0 0.0 0.0 0.0
540 1 75.5842264228 78.146845477 0.0 0.0 0.0 0.0
541 2 2.85032642283 0.0833789769695 0.0 0.0 0.0 0.0
542 2 3.89248642283 2.53059547697 0.0 0.0 0.0 0.0
543 2 1.35696642283 2.08942547697 0.0 0.0 0.0 0.0
544 2 6.69801642283 0.0834010769695 0.0 0.0 0.0 0.0
545 2 8.59996642283 2.28969547697 0.0 0.0 0.0 0.0
546 2 6.25859642283 2.51323547697 0.0 0.0 0.0 0.0
547 2 12.8056264228 0.97247747697 0.0 0.0 0.0 0.0
548 2 11.1757264228 2.87751547697 0.0 0.0 0.0 0.0
549 2 13.9221264228 3.19297547697 0.0 0.0 0.0 0.0
550 2 19.2307264228 3.52054547697 0.0 0.0 0.0 0.0
551 2 18.4931264228 1.26583547697 0.0 0.0 0.0 0.0
552 2 16.6055264228 3.25416547697 0.0 0.0 0.0 0.0
553 2 23.3987264228 0.98387447697 0.0 0.0 0.0 0.0
554 2 24.0692264228 3.36058547697 0.0 0.0 0.0 0.0
555 2 21.7016264228 3.29221547697 0.0 0.0 0.0 0.0
556 2 28.3891264228 1.57763547697 0.0 0.0 0.0 0.0
557 2 28.4980264228 4.43229547697 0.0 0.0 0.0 0.0
558 2 26.5425264228 3.54460547697 0.0 0.0 0.0 0.0
559 2 35.4211264228 4.02658547697 0.0 0.0 0.0 0.0
560 2 35.0225264228 1.41148547697 0.0 0.0 0.0 0.0
561 2 37.4401264228 2.48618547697 0.0 0.0 0.0 0.0
562 2 39.1502264228 0.76498047697 0.0 0.0 0.0 0.0
563 2 39.8848264228 3.44542547697 0.0 0.0 0.0 0.0
564 2 46.7072264228 3.09373547697 0.0 0.0 0.0 0.0
565 2 45.5934264228 0.62153347697 0.0 0.0 0.0 0.0
566 2 48.3167264228 1.49568547697 0.0 0.0 0.0 0.0
567 2 49.9385264228 82.241045477 0.0 0.0 0.0 0.0
568 2 51.2057264228 2.00500547697 0.0 0.0 0.0 0.0
569 2 56.5869264228 1.06042547697 0.0 0.0 0.0 0.0
570 2 57.4947264228 80.832445477 0.0 0.0 0.0 0.0
571 2 59.1685264228 82.298845477 0.0 0.0 0.0 0.0
572 2 61.7718264228 0.48201347697 0.0 0.0 0.0 0.0
573 2 60.8018264228 80.369245477 0.0 0.0 0.0 0.0
574 2 66.2259264228 81.040045477 0.0 0.0 0.0 0.0
575 2 66.7262264228 1.12508547697 0.0 0.0 0.0 0.0
576 2 64.2785264228 0.72246047697 0.0 0.0 0.0 0.0
577 2 70.2301264228 81.125945477 0.0 0.0 0.0 0.0
578 2 71.7038264228 0.84228347697 0.0 0.0 0.0 0.0
579 2 69.1458264228 1.13163547697 0.0 0.0 0.0 0.0
580 2 76.6262264228 81.457545477 0.0 0.0 0.0 0.0
581 2 76.5967264228 1.41333547697 0.0 0.0 0.0 0.0
582 2 74.2941264228 0.83063247697 0.0 0.0 0.0 0.0
583 2 77.1749264228 3.93238547697 0.0 0.0 0.0 0.0
584 2 0.465776422832 6.15701547697 0.0 0.0 0.0 0.0
585 2 75.4641264228 5.93020547697 0.0 0.0 0.0 0.0
586 2 4.84237642283 4.91316547697 0.0 0.0 0.0 0.0
587 2 5.83519642283 7.16100547697 0.0 0.0 0.0 0.0
588 2 3.10513642283 6.81153547697 0.0 0.0 0.0 0.0
589 2 9.70562642283 4.80361547697 0.0 0.0 0.0 0.0
590 2 10.9881264228 7.18914547697 0.0 0.0 0.0 0.0
591 2 8.45981642283 7.06923547697 0.0 0.0 0.0 0.0
592 2 15.1208264228 5.39879547697 0.0 0.0 0.0 0.0
593 2 16.1646264228 7.78477547697 0.0 0.0 0.0 0.0
594 2 13.5722264228 7.47055547697 0.0 0.0 0.0 0.0
595 2 20.3253264228 5.72933547697 0.0 0.0 0.0 0.0
596 2 21.2616264228 8.06870547697 0.0 0.0 0.0 0.0
597 2 18.7113264228 7.89193547697 0.0 0.0 0.0 0.0
598 2 23.7766264228 8.08159547697 0.0 0.0 0.0 0.0
599 2 26.3194264228 8.05281547697 0.0 0.0 0.0 0.0
600 2 25.1217264228 5.77680547697 0.0 0.0 0.0 0.0
601 2 28.3989264228 7.30790547697 0.0 0.0 0.0 0.0
602 2 30.4129264228 5.75319547697 0.0 0.0 0.0 0.0
603 2 35.2792264228 6.86203547697 0.0 0.0 0.0 0.0
604 2 33.7019264228 8.64798547697 0.0 0.0 0.0 0.0
605 2 35.4198264228 9.87522547697 0.0 0.0 0.0 0.0
606 2 40.3078264228 6.13165547697 0.0 0.0 0.0 0.0
607 2 41.7481264228 8.02710547697 0.0 0.0 0.0 0.0
608 2 39.6121264228 9.02148547697 0.0 0.0 0.0 0.0