ITEM: TIMESTEP
0
ITEM: NUMBER OF ATOMS
1350
ITEM: BOX BOUNDS xy xz yz pp pp pp
0.0 77.1888459994 0
0.0 83.1212308042 0
-10.0 10.0 0
ITEM: ATOMS id type x y z vx vy vz
1 1 2.56640077656 2.50679540211 0.0 0.0 0.0 0.0
2 1 8.84277077656 2.02799540211 0.0 0.0 0.0 0.0
3 1 14.4027607766 1.17657740211 0.0 0.0 0.0 0.0
4 1 19.3341607766 1.22925140211 0.0 0.0 0.0 0.0
5 1 24.1978607766 0.845983402108 0.0 0.0 0.0 0.0
6 1 28.9911607766 0.633649402108 0.0 0.0 0.0 0.0
7 1 36.2709607766 0.914338402108 0.0 0.0 0.0 0.0
8 1 39.2291607766 1.26339640211 0.0 0.0 0.0 0.0
9 1 44.1495607766 0.903909402108 0.0 0.0 0.0 0.0
10 1 49.4853607766 1.26744140211 0.0 0.0 0.0 0.0
11 1 54.5415607766 1.01128640211 0.0 0.0 0.0 0.0
12 1 59.1669607766 3.67483540211 0.0 0.0 0.0 0.0
13 1 64.9189607766 2.47390540211 0.0 0.0 0.0 0.0
14 1 70.1580607766 2.56160540211 0.0 0.0 0.0 0.0
15 1 74.5628607766 2.15990540211 0.0 0.0 0.0 0.0
16 1 0.00906077656205 6.76312540211 0.0 0.0 0.0 0.0
17 1 4.43758077656 4.83129540211 0.0 0.0 0.0 0.0
18 1 11.8507607766 5.59264540211 0.0 0.0 0.0 0.0
19 1 17.0891607766 5.96874540211 0.0 0.0 0.0 0.0
20 1 23.3218607766 5.49501540211 0.0 0.0 0.0 0.0
21 1 26.3483607766 5.57458540211 0.0 0.0 0.0 0.0
22 1 30.8118607766 5.85842540211 0.0 0.0 0.0 0.0
23 1 36.3320607766 7.40845540211 0.0 0.0 0.0 0.0
24 1 41.7687607766 5.75623540211 0.0 0.0 0.0 0.0
25 1 46.9855607766 5.47211540211 0.0 0.0 0.0 0.0
26 1 51.9053607766 5.76516540211 0.0 0.0 0.0 0.0
27 1 57.3569607766 6.08908540211 0.0 0.0 0.0 0.0
28 1 62.8373607766 6.69434540211 0.0 0.0 0.0 0.0
29 1 67.7088607766 7.06580540211 0.0 0.0 0.0 0.0
30 1 72.9573607766 7.52692540211 0.0 0.0 0.0 0.0
31 1 2.39262077656 10.3410554021 0.0 0.0 0.0 0.0
32 1 7.93982077656 9.70879540211 0.0 0.0 0.0 0.0
33 1 12.8568607766 9.81587540211 0.0 0.0 0.0 0.0
34 1 17.8849607766 11.1372154021 0.0 0.0 0.0 0.0
35 1 23.4175607766 10.8832154021 0.0 0.0 0.0 0.0
36 1 29.1052607766 10.7490154021 0.0 0.0 0.0 0.0
37 1 36.4068607766 10.3927154021 0.0 0.0 0.0 0.0
38 1 39.3863607766 10.4685154021 0.0 0.0 0.0 0.0
39 1 44.0230607766 10.0428954021 0.0 0.0 0.0 0.0
40 1 49.0182607766 10.3463654021 0.0 0.0 0.0 0.0
41 1 54.4339607766 10.1778054021 0.0 0.0 0.0 0.0
42 1 58.4542607766 8.87829540211 0.0 0.0 0.0 0.0
43 1 63.5834607766 14.2214154021 0.0 0.0 0.0 0.0
44 1 68.6039607766 12.8224154021 0.0 0.0 0.0 0.0
45 1 71.8224607766 10.3512654021 0.0 0.0 0.0 0.0
46 1 77.1643607766 14.8669154021 0.0 0.0 0.0 0.0
47 1 4.78067077656 14.0130154021 0.0 0.0 0.0 0.0
48 1 9.63506077656 14.3759154021 0.0 0.0 0.0 0.0
49 1 14.3643607766 14.8029154021 0.0 0.0 0.0 0.0
50 1 18.5985607766 14.0787154021 0.0 0.0 0.0 0.0
51 1 26.0045607766 14.8422154021 0.0 0.0 0.0 0.0
52 1 32.4970607766 15.6313154021 0.0 0.0 0.0 0.0
53 1 35.5260607766 15.4017154021 0.0 0.0 0.0 0.0
54 1 43.2057607766 14.8139154021 0.0 0.0 0.0 0.0
55 1 46.2158607766 14.8256154021 0.0 0.0 0.0 0.0
56 1 50.0925607766 13.1546154021 0.0 0.0 0.0 0.0
57 1 57.3497607766 14.5169154021 0.0 0.0 0.0 0.0
58 1 61.7745607766 16.6288154021 0.0 0.0 0.0 0.0
59 1 66.5088607766 17.9606154021 0.0 0.0 0.0 0.0
60 1 72.3468607766 16.3391154021 0.0 0.0 0.0 0.0
61 1 6.57488077656 20.6573154021 0.0 0.0 0.0 0.0
62 1 5.02589077656 18.0815154021 0.0 0.0 0.0 0.0
63 1 12.0609607766 19.3595154021 0.0 0.0 0.0 0.0
64 1 15.7722607766 21.9932154021 0.0 0.0 0.0 0.0
65 1 23.4715607766 18.6244154021 0.0 0.0 0.0 0.0
66 1 26.3625607766 17.8107154021 0.0 0.0 0.0 0.0
67 1 32.6513607766 21.1787154021 0.0 0.0 0.0 0.0
68 1 38.4530607766 19.7667154021 0.0 0.0 0.0 0.0
69 1 43.3736607766 19.3925154021 0.0 0.0 0.0 0.0
70 1 50.7258607766 18.4677154021 0.0 0.0 0.0 0.0
71 1 53.7731607766 18.3591154021 0.0 0.0 0.0 0.0
72 1 58.1688607766 21.9059154021 0.0 0.0 0.0 0.0
73 1 63.6808607766 21.9458154021 0.0 0.0 0.0 0.0
74 1 68.3940607766 20.2961154021 0.0 0.0 0.0 0.0
75 1 75.8752607766 20.1591154021 0.0 0.0 0.0 0.0
76 1 0.462020776562 24.8340154021 0.0 0.0 0.0 0.0
77 1 5.34162077656 25.2112154021 0.0 0.0 0.0 0.0
78 1 10.5460607766 23.9568154021 0.0 0.0 0.0 0.0
79 1 14.2699607766 27.0515154021 0.0 0.0 0.0 0.0
80 1 19.2504607766 24.7812154021 0.0 0.0 0.0 0.0
81 1 23.7051607766 23.3126154021 0.0 0.0 0.0 0.0
82 1 28.1278607766 22.6391154021 0.0 0.0 0.0 0.0
83 1 34.6271607766 23.4060154021 0.0 0.0 0.0 0.0
84 1 40.7567607766 26.9610154021 0.0 0.0 0.0 0.0
85 1 45.5121607766 24.1745154021 0.0 0.0 0.0 0.0
86 1 50.0985607766 23.6079154021 0.0 0.0 0.0 0.0
87 1 55.8016607766 23.7640154021 0.0 0.0 0.0 0.0
88 1 61.8633607766 26.0894154021 0.0 0.0 0.0 0.0
89 1 67.2631607766 25.7027154021 0.0 0.0 0.0 0.0
90 1 72.4367607766 24.4212154021 0.0 0.0 0.0 0.0
91 1 2.57991077656 29.7623154021 0.0 0.0 0.0 0.0
92 1 8.28851077656 28.9719154021 0.0 0.0 0.0 0.0
93 1 13.3211607766 29.9164154021 0.0 0.0 0.0 0.0
94 1 19.7676607766 28.6542154021 0.0 0.0 0.0 0.0
95 1 22.7593607766 28.6948154021 0.0 0.0 0.0 0.0
96 1 27.0581607766 27.8758154021 0.0 0.0 0.0 0.0
97 1 32.7614607766 28.8292154021 0.0 0.0 0.0 0.0
98 1 40.5858607766 29.9490154021 0.0 0.0 0.0 0.0
99 1 43.5696607766 29.6133154021 0.0 0.0 0.0 0.0
100 1 47.8385607766 28.8286154021 0.0 0.0 0.0 0.0
101 1 52.6257607766 27.6559154021 0.0 0.0 0.0 0.0
102 1 57.8086607766 30.5181154021 0.0 0.0 0.0 0.0
103 1 63.9044607766 30.1853154021 0.0 0.0 0.0 0.0
104 1 71.7441607766 29.0992154021 0.0 0.0 0.0 0.0
105 1 74.7651607766 29.1134154021 0.0 0.0 0.0 0.0
106 1 76.7425607766 34.1286154021 0.0 0.0 0.0 0.0
107 1 6.61940077656 33.0575154021 0.0 0.0 0.0 0.0
108 1 9.50996077656 33.8717154021 0.0 0.0 0.0 0.0
109 1 17.0384607766 34.4517154021 0.0 0.0 0.0 0.0
110 1 20.0211607766 34.0348154021 0.0 0.0 0.0 0.0
111 1 25.6473607766 33.3382154021 0.0 0.0 0.0 0.0
112 1 30.5723607766 32.0550154021 0.0 0.0 0.0 0.0
113 1 33.5602607766 31.7228154021 0.0 0.0 0.0 0.0
114 1 39.7621607766 35.2253154021 0.0 0.0 0.0 0.0
115 1 46.1284607766 34.2941154021 0.0 0.0 0.0 0.0
116 1 50.7870607766 32.9114154021 0.0 0.0 0.0 0.0
117 1 56.5256607766 33.2328154021 0.0 0.0 0.0 0.0
118 1 62.1294607766 32.6289154021 0.0 0.0 0.0 0.0
119 1 66.0062607766 32.3138154021 0.0 0.0 0.0 0.0
120 1 72.0594607766 34.9198154021 0.0 0.0 0.0 0.0
121 1 2.04844077656 39.0350154021 0.0 0.0 0.0 0.0
122 1 6.48040077656 37.8850154021 0.0 0.0 0.0 0.0
123 1 10.5772607766 39.6322154021 0.0 0.0 0.0 0.0
124 1 17.9044607766 39.0873154021 0.0 0.0 0.0 0.0
125 1 22.6302607766 37.7615154021 0.0 0.0 0.0 0.0
126 1 27.9649607766 38.4646154021 0.0 0.0 0.0 0.0
127 1 32.4062607766 38.9667154021 0.0 0.0 0.0 0.0
128 1 37.2659607766 39.3500154021 0.0 0.0 0.0 0.0
129 1 41.6948607766 37.5155154021 0.0 0.0 0.0 0.0
130 1 49.0187607766 38.3371154021 0.0 0.0 0.0 0.0
131 1 53.3825607766 36.9005154021 0.0 0.0 0.0 0.0
132 1 57.7088607766 35.9914154021 0.0 0.0 0.0 0.0
133 1 63.0590607766 40.2874154021 0.0 0.0 0.0 0.0
134 1 68.8174607766 39.4806154021 0.0 0.0 0.0 0.0
135 1 73.9254607766 39.2797154021 0.0 0.0 0.0 0.0
136 1 77.1340607766 43.5120154021 0.0 0.0 0.0 0.0
137 1 5.49914077656 43.2662154021 0.0 0.0 0.0 0.0
138 1 10.6053607766 42.6532154021 0.0 0.0 0.0 0.0
139 1 15.6349607766 44.0760154021 0.0 0.0 0.0 0.0
140 1 20.2942607766 43.0728154021 0.0 0.0 0.0 0.0
141 1 25.0697607766 42.3808154021 0.0 0.0 0.0 0.0
142 1 29.7311607766 45.3182154021 0.0 0.0 0.0 0.0
143 1 34.7700607766 44.0202154021 0.0 0.0 0.0 0.0
144 1 42.0390607766 42.5543154021 0.0 0.0 0.0 0.0
145 1 47.3836607766 44.3093154021 0.0 0.0 0.0 0.0
146 1 55.6652607766 43.7207154021 0.0 0.0 0.0 0.0
147 1 54.4087607766 40.9813154021 0.0 0.0 0.0 0.0
148 1 60.9341607766 42.4678154021 0.0 0.0 0.0 0.0
149 1 65.9951607766 43.7677154021 0.0 0.0 0.0 0.0
150 1 71.6633607766 44.0590154021 0.0 0.0 0.0 0.0
151 1 2.57213077656 47.5283154021 0.0 0.0 0.0 0.0
152 1 9.78946077656 47.1171154021 0.0 0.0 0.0 0.0
153 1 12.7242607766 47.8113154021 0.0 0.0 0.0 0.0
154 1 17.7362607766 48.3103154021 0.0 0.0 0.0 0.0
155 1 22.9207607766 47.4598154021 0.0 0.0 0.0 0.0
156 1 28.2035607766 47.8646154021 0.0 0.0 0.0 0.0
157 1 31.1718607766 51.7926154021 0.0 0.0 0.0 0.0
158 1 37.3132607766 45.6610154021 0.0 0.0 0.0 0.0
159 1 45.4370607766 46.6156154021 0.0 0.0 0.0 0.0
160 1 50.2345607766 48.2913154021 0.0 0.0 0.0 0.0
161 1 54.7174607766 48.3637154021 0.0 0.0 0.0 0.0
162 1 59.1479607766 47.4591154021 0.0 0.0 0.0 0.0
163 1 65.0285607766 48.2839154021 0.0 0.0 0.0 0.0
164 1 67.3948607766 46.4202154021 0.0 0.0 0.0 0.0
165 1 74.4766607766 47.9965154021 0.0 0.0 0.0 0.0
166 1 0.216820776562 52.1376154021 0.0 0.0 0.0 0.0
167 1 5.17277077656 52.3530154021 0.0 0.0 0.0 0.0
168 1 10.3998607766 54.3487154021 0.0 0.0 0.0 0.0
169 1 15.8452607766 52.6990154021 0.0 0.0 0.0 0.0
170 1 22.0656607766 51.8995154021 0.0 0.0 0.0 0.0
171 1 25.0664607766 52.0019154021 0.0 0.0 0.0 0.0
172 1 33.9568607766 50.6382154021 0.0 0.0 0.0 0.0
173 1 37.8008607766 50.7709154021 0.0 0.0 0.0 0.0
174 1 42.3818607766 50.1933154021 0.0 0.0 0.0 0.0
175 1 47.2475607766 51.9319154021 0.0 0.0 0.0 0.0
176 1 52.4175607766 53.3368154021 0.0 0.0 0.0 0.0
177 1 57.5719607766 52.9854154021 0.0 0.0 0.0 0.0
178 1 63.1549607766 53.2210154021 0.0 0.0 0.0 0.0
179 1 67.4489607766 53.4233154021 0.0 0.0 0.0 0.0
180 1 72.2455607766 52.5028154021 0.0 0.0 0.0 0.0
181 1 2.46970077656 56.8947154021 0.0 0.0 0.0 0.0
182 1 9.97766077656 57.3098154021 0.0 0.0 0.0 0.0
183 1 12.9642607766 57.4004154021 0.0 0.0 0.0 0.0
184 1 17.5094607766 57.7417154021 0.0 0.0 0.0 0.0
185 1 23.8664607766 55.9768154021 0.0 0.0 0.0 0.0
186 1 26.5780607766 54.5979154021 0.0 0.0 0.0 0.0
187 1 36.3036607766 55.8985154021 0.0 0.0 0.0 0.0
188 1 39.2156607766 55.1731154021 0.0 0.0 0.0 0.0
189 1 43.6943607766 55.3915154021 0.0 0.0 0.0 0.0
190 1 49.0438607766 56.8672154021 0.0 0.0 0.0 0.0
191 1 53.5326607766 56.1397154021 0.0 0.0 0.0 0.0
192 1 60.5315607766 57.1938154021 0.0 0.0 0.0 0.0
193 1 65.1085607766 58.3890154021 0.0 0.0 0.0 0.0
194 1 69.5905607766 57.6695154021 0.0 0.0 0.0 0.0
195 1 76.6849607766 56.3359154021 0.0 0.0 0.0 0.0
196 1 76.4127607766 61.5044154021 0.0 0.0 0.0 0.0
197 1 4.39291077656 61.6164154021 0.0 0.0 0.0 0.0
198 1 9.08176077656 62.2053154021 0.0 0.0 0.0 0.0
199 1 14.2577607766 62.4186154021 0.0 0.0 0.0 0.0
200 1 19.6233607766 62.4989154021 0.0 0.0 0.0 0.0
201 1 24.2492607766 61.4584154021 0.0 0.0 0.0 0.0
202 1 29.7959607766 59.8854154021 0.0 0.0 0.0 0.0
203 1 35.2694607766 60.5812154021 0.0 0.0 0.0 0.0
204 1 41.9288607766 60.1918154021 0.0 0.0 0.0 0.0
205 1 44.9099607766 59.9471154021 0.0 0.0 0.0 0.0
206 1 50.3938607766 61.2271154021 0.0 0.0 0.0 0.0
207 1 58.6309607766 61.5971154021 0.0 0.0 0.0 0.0
208 1 61.5683607766 62.4674154021 0.0 0.0 0.0 0.0
209 1 66.6460607766 62.8649154021 0.0 0.0 0.0 0.0
210 1 71.5816607766 62.2072154021 0.0 0.0 0.0 0.0
211 1 2.14992077656 66.0157154021 0.0 0.0 0.0 0.0
212 1 6.24017077656 69.1926154021 0.0 0.0 0.0 0.0
213 1 11.5707607766 66.9162154021 0.0 0.0 0.0 0.0
214 1 16.9378607766 66.8242154021 0.0 0.0 0.0 0.0
215 1 22.2628607766 66.8192154021 0.0 0.0 0.0 0.0
216 1 27.1097607766 64.5541154021 0.0 0.0 0.0 0.0
217 1 32.7871607766 64.3912154021 0.0 0.0 0.0 0.0
218 1 37.3840607766 65.7109154021 0.0 0.0 0.0 0.0
219 1 42.2384607766 65.2993154021 0.0 0.0 0.0 0.0
220 1 47.1993607766 64.5548154021 0.0 0.0 0.0 0.0
221 1 51.5424607766 66.8931154021 0.0 0.0 0.0 0.0
222 1 59.0362607766 66.3902154021 0.0 0.0 0.0 0.0
223 1 64.2963607766 67.4133154021 0.0 0.0 0.0 0.0
224 1 71.3525607766 66.4269154021 0.0 0.0 0.0 0.0
225 1 74.3639607766 66.5471154021 0.0 0.0 0.0 0.0
226 1 1.05743077656 70.7034154021 0.0 0.0 0.0 0.0
227 1 4.74606077656 74.2077154021 0.0 0.0 0.0 0.0
228 1 9.86746077656 71.8134154021 0.0 0.0 0.0 0.0
229 1 15.1817607766 71.1411154021 0.0 0.0 0.0 0.0
230 1 20.3353607766 71.1379154021 0.0 0.0 0.0 0.0
231 1 24.0784607766 69.2320154021 0.0 0.0 0.0 0.0
232 1 32.3586607766 68.8033154021 0.0 0.0 0.0 0.0
233 1 35.9110607766 72.0750154021 0.0 0.0 0.0 0.0
234 1 41.0573607766 70.0688154021 0.0 0.0 0.0 0.0
235 1 46.2368607766 69.3431154021 0.0 0.0 0.0 0.0
236 1 50.6025607766 71.7516154021 0.0 0.0 0.0 0.0
237 1 56.3240607766 70.8649154021 0.0 0.0 0.0 0.0
238 1 61.7788607766 71.2777154021 0.0 0.0 0.0 0.0
239 1 65.5851607766 70.2069154021 0.0 0.0 0.0 0.0
240 1 72.9978607766 71.3840154021 0.0 0.0 0.0 0.0
241 1 2.98628077656 76.6970154021 0.0 0.0 0.0 0.0
242 1 9.98666077656 76.0358154021 0.0 0.0 0.0 0.0
243 1 12.9996607766 75.8165154021 0.0 0.0 0.0 0.0
244 1 18.4232607766 75.6443154021 0.0 0.0 0.0 0.0
245 1 23.9582607766 75.0708154021 0.0 0.0 0.0 0.0
246 1 31.9458607766 74.5262154021 0.0 0.0 0.0 0.0
247 1 34.9221607766 74.8913154021 0.0 0.0 0.0 0.0
248 1 39.7134607766 75.0561154021 0.0 0.0 0.0 0.0
249 1 44.7633607766 76.1568154021 0.0 0.0 0.0 0.0
250 1 50.3212607766 74.7579154021 0.0 0.0 0.0 0.0
251 1 54.9442607766 74.7152154021 0.0 0.0 0.0 0.0
252 1 59.7088607766 77.4612154021 0.0 0.0 0.0 0.0
253 1 64.9801607766 75.9857154021 0.0 0.0 0.0 0.0
254 1 72.1941607766 75.7829154021 0.0 0.0 0.0 0.0
255 1 75.1902607766 75.4048154021 0.0 0.0 0.0 0.0
256 1 77.0571607766 3.79101540211 0.0 0.0 0.0 0.0
257 1 7.40569077656 4.63943540211 0.0 0.0 0.0 0.0
258 1 11.7745607766 2.60694540211 0.0 0.0 0.0 0.0
259 1 16.8595607766 2.94515540211 0.0 0.0 0.0 0.0
260 1 21.9199607766 2.80482540211 0.0 0.0 0.0 0.0
261 1 26.6721607766 2.55905540211 0.0 0.0 0.0 0.0
262 1 30.9911607766 2.85959540211 0.0 0.0 0.0 0.0
263 1 33.9745607766 2.82932540211 0.0 0.0 0.0 0.0
264 1 41.8052607766 2.77128540211 0.0 0.0 0.0 0.0
265 1 46.7309607766 2.46589540211 0.0 0.0 0.0 0.0
266 1 52.0971607766 2.76849540211 0.0 0.0 0.0 0.0
267 1 57.5636607766 1.13316340211 0.0 0.0 0.0 0.0
268 1 62.1877607766 3.76914540211 0.0 0.0 0.0 0.0
269 1 67.5208607766 4.03981540211 0.0 0.0 0.0 0.0
270 1 72.5447607766 4.44748540211 0.0 0.0 0.0 0.0
271 1 2.91531077656 7.39823540211 0.0 0.0 0.0 0.0
272 1 9.21396077656 7.00648540211 0.0 0.0 0.0 0.0
273 1 14.3524607766 7.21409540211 0.0 0.0 0.0 0.0
274 1 18.9967607766 8.32004540211 0.0 0.0 0.0 0.0
275 1 22.0112607766 8.21038540211 0.0 0.0 0.0 0.0
276 1 28.4795607766 7.75828540211 0.0 0.0 0.0 0.0
277 1 33.8045607766 5.81364540211 0.0 0.0 0.0 0.0
278 1 39.3187607766 7.47118540211 0.0 0.0 0.0 0.0
279 1 44.4508607766 7.07805540211 0.0 0.0 0.0 0.0
280 1 49.3473607766 7.34463540211 0.0 0.0 0.0 0.0
281 1 54.5521607766 7.16995540211 0.0 0.0 0.0 0.0
282 1 61.3916607766 9.30162540211 0.0 0.0 0.0 0.0
283 1 65.1382607766 8.59715540211 0.0 0.0 0.0 0.0
284 1 68.8834607766 9.83468540211 0.0 0.0 0.0 0.0
285 1 75.4729607766 9.19756540211 0.0 0.0 0.0 0.0
286 1 76.9638607766 11.8326154021 0.0 0.0 0.0 0.0
287 1 5.28263077656 11.0785154021 0.0 0.0 0.0 0.0
288 1 10.3517607766 11.4658154021 0.0 0.0 0.0 0.0
289 1 14.9965607766 11.8817154021 0.0 0.0 0.0 0.0
290 1 21.4698607766 13.1928154021 0.0 0.0 0.0 0.0
291 1 26.2905607766 11.8504154021 0.0 0.0 0.0 0.0
292 1 31.4049607766 12.7896154021 0.0 0.0 0.0 0.0
293 1 34.4110607766 12.6056154021 0.0 0.0 0.0 0.0
294 1 41.8734607766 12.1219154021 0.0 0.0 0.0 0.0
295 1 46.4200607766 11.8234154021 0.0 0.0 0.0 0.0
296 1 53.0485607766 12.8249154021 0.0 0.0 0.0 0.0
297 1 57.1016607766 11.5353154021 0.0 0.0 0.0 0.0
298 1 63.6754607766 11.2192154021 0.0 0.0 0.0 0.0
299 1 66.4929607766 14.9622154021 0.0 0.0 0.0 0.0
300 1 71.5598607766 13.3852154021 0.0 0.0 0.0 0.0
301 1 2.70168077656 16.1591154021 0.0 0.0 0.0 0.0
302 1 7.07299077656 15.9070154021 0.0 0.0 0.0 0.0
303 1 11.8304607766 16.3848154021 0.0 0.0 0.0 0.0
304 1 16.7952607766 16.5380154021 0.0 0.0 0.0 0.0
305 1 23.1261607766 15.6673154021 0.0 0.0 0.0 0.0
306 1 28.6895607766 19.6855154021 0.0 0.0 0.0 0.0
307 1 31.4278607766 18.4462154021 0.0 0.0 0.0 0.0
308 1 38.2692607766 16.7793154021 0.0 0.0 0.0 0.0
309 1 41.3146607766 17.1388154021 0.0 0.0 0.0 0.0
310 1 49.0040607766 15.9664154021 0.0 0.0 0.0 0.0
311 1 54.5025607766 15.4434154021 0.0 0.0 0.0 0.0
312 1 58.8097607766 17.1219154021 0.0 0.0 0.0 0.0
313 1 63.6767607766 18.9460154021 0.0 0.0 0.0 0.0
314 1 71.1948607766 19.1564154021 0.0 0.0 0.0 0.0
315 1 75.2428607766 17.1913154021 0.0 0.0 0.0 0.0
316 1 1.16654077656 21.9105154021 0.0 0.0 0.0 0.0
317 1 4.15209077656 22.4429154021 0.0 0.0 0.0 0.0
318 1 9.57986077656 21.1043154021 0.0 0.0 0.0 0.0
319 1 15.0820607766 19.0655154021 0.0 0.0 0.0 0.0
320 1 18.7940607766 21.8336154021 0.0 0.0 0.0 0.0
321 1 21.7103607766 21.0526154021 0.0 0.0 0.0 0.0
322 1 30.9296607766 23.6343154021 0.0 0.0 0.0 0.0
323 1 37.4617607766 22.5697154021 0.0 0.0 0.0 0.0
324 1 41.0585607766 21.2684154021 0.0 0.0 0.0 0.0
325 1 45.8447607766 21.1588154021 0.0 0.0 0.0 0.0
326 1 48.8619607766 20.8547154021 0.0 0.0 0.0 0.0
327 1 56.6846607766 19.2687154021 0.0 0.0 0.0 0.0
328 1 60.9329607766 23.2058154021 0.0 0.0 0.0 0.0
329 1 66.6050607766 22.7453154021 0.0 0.0 0.0 0.0
330 1 73.1448607766 21.4684154021 0.0 0.0 0.0 0.0
331 1 2.76815077656 26.7639154021 0.0 0.0 0.0 0.0
332 1 8.27324077656 25.9572154021 0.0 0.0 0.0 0.0
333 1 13.5734607766 24.1132154021 0.0 0.0 0.0 0.0
334 1 17.2693607766 26.9986154021 0.0 0.0 0.0 0.0
335 1 22.0675607766 25.7941154021 0.0 0.0 0.0 0.0
336 1 26.2278607766 24.9542154021 0.0 0.0 0.0 0.0
337 1 32.9350607766 25.8514154021 0.0 0.0 0.0 0.0
338 1 40.0265607766 24.0716154021 0.0 0.0 0.0 0.0
339 1 43.7337607766 26.6126154021 0.0 0.0 0.0 0.0
340 1 48.0365607766 25.8070154021 0.0 0.0 0.0 0.0
341 1 52.9181607766 24.6509154021 0.0 0.0 0.0 0.0
342 1 57.2559607766 26.3769154021 0.0 0.0 0.0 0.0
343 1 64.6480607766 27.2514154021 0.0 0.0 0.0 0.0
344 1 70.2070607766 26.4738154021 0.0 0.0 0.0 0.0
345 1 74.9345607766 26.1090154021 0.0 0.0 0.0 0.0
346 1 77.0516607766 31.1090154021 0.0 0.0 0.0 0.0
347 1 5.56033077656 30.2571154021 0.0 0.0 0.0 0.0
348 1 10.5155607766 31.0219154021 0.0 0.0 0.0 0.0
349 1 15.6873607766 31.7827154021 0.0 0.0 0.0 0.0
350 1 18.6515607766 31.3863154021 0.0 0.0 0.0 0.0
351 1 25.2833607766 30.3243154021 0.0 0.0 0.0 0.0
352 1 29.7815607766 29.1643154021 0.0 0.0 0.0 0.0
353 1 36.0133607766 33.4821154021 0.0 0.0 0.0 0.0
354 1 38.8178607766 32.3851154021 0.0 0.0 0.0 0.0
355 1 46.0560607766 31.2714154021 0.0 0.0 0.0 0.0
356 1 50.6285607766 29.9045154021 0.0 0.0 0.0 0.0
357 1 55.4155607766 28.7231154021 0.0 0.0 0.0 0.0
358 1 59.6677607766 28.1472154021 0.0 0.0 0.0 0.0
359 1 68.6455607766 33.6697154021 0.0 0.0 0.0 0.0
360 1 71.1629607766 32.0576154021 0.0 0.0 0.0 0.0
361 1 1.87281077656 36.0311154021 0.0 0.0 0.0 0.0
362 1 4.79089077656 35.4165154021 0.0 0.0 0.0 0.0
363 1 13.5088607766 39.1010154021 0.0 0.0 0.0 0.0
364 1 15.6913607766 37.0884154021 0.0 0.0 0.0 0.0
365 1 22.9567607766 34.7679154021 0.0 0.0 0.0 0.0
366 1 30.3697607766 36.6944154021 0.0 0.0 0.0 0.0
367 1 28.5538607766 34.2691154021 0.0 0.0 0.0 0.0
368 1 36.9770607766 36.3384154021 0.0 0.0 0.0 0.0
369 1 44.6382607766 36.9170154021 0.0 0.0 0.0 0.0
370 1 48.9533607766 35.3114154021 0.0 0.0 0.0 0.0
371 1 53.6046607766 33.9127154021 0.0 0.0 0.0 0.0
372 1 60.5845607766 35.1945154021 0.0 0.0 0.0 0.0
373 1 64.2741607766 34.7339154021 0.0 0.0 0.0 0.0
374 1 69.5229607766 36.5370154021 0.0 0.0 0.0 0.0
375 1 74.6812607766 36.3427154021 0.0 0.0 0.0 0.0
376 1 76.6483607766 40.5546154021 0.0 0.0 0.0 0.0
377 1 4.76628077656 40.3444154021 0.0 0.0 0.0 0.0
378 1 9.31336077656 36.8949154021 0.0 0.0 0.0 0.0
379 1 15.7168607766 41.1041154021 0.0 0.0 0.0 0.0
380 1 20.7126607766 40.0811154021 0.0 0.0 0.0 0.0
381 1 25.1272607766 39.3885154021 0.0 0.0 0.0 0.0
382 1 29.9595607766 40.6753154021 0.0 0.0 0.0 0.0
383 1 34.7068607766 40.9607154021 0.0 0.0 0.0 0.0
384 1 40.2005607766 40.1347154021 0.0 0.0 0.0 0.0
385 1 46.2294607766 39.4758154021 0.0 0.0 0.0 0.0
386 1 51.8103607766 39.4466154021 0.0 0.0 0.0 0.0
387 1 55.9593607766 38.4162154021 0.0 0.0 0.0 0.0
388 1 62.7352607766 37.2922154021 0.0 0.0 0.0 0.0
389 1 66.0648607766 40.7654154021 0.0 0.0 0.0 0.0
390 1 71.4285607766 41.0244154021 0.0 0.0 0.0 0.0
391 1 2.77295077656 44.5410154021 0.0 0.0 0.0 0.0
392 1 8.25321077656 44.5107154021 0.0 0.0 0.0 0.0
393 1 12.7434607766 44.7954154021 0.0 0.0 0.0 0.0
394 1 18.3260607766 45.3591154021 0.0 0.0 0.0 0.0
395 1 22.9343607766 44.4692154021 0.0 0.0 0.0 0.0
396 1 28.0041607766 42.9119154021 0.0 0.0 0.0 0.0
397 1 32.5948607766 46.1651154021 0.0 0.0 0.0 0.0
398 1 40.3105607766 45.0607154021 0.0 0.0 0.0 0.0
399 1 45.0993607766 42.2827154021 0.0 0.0 0.0 0.0
400 1 50.3047607766 45.2826154021 0.0 0.0 0.0 0.0
401 1 53.3394607766 45.6481154021 0.0 0.0 0.0 0.0
402 1 58.6121607766 44.4496154021 0.0 0.0 0.0 0.0
403 1 63.0931607766 44.5374154021 0.0 0.0 0.0 0.0
404 1 70.3781607766 46.8176154021 0.0 0.0 0.0 0.0
405 1 74.5183607766 44.9944154021 0.0 0.0 0.0 0.0
406 1 0.0525807765621 49.1478154021 0.0 0.0 0.0 0.0
407 1 4.92272077656 49.3748154021 0.0 0.0 0.0 0.0
408 1 7.90113077656 49.4160154021 0.0 0.0 0.0 0.0
409 1 15.0828607766 49.7517154021 0.0 0.0 0.0 0.0
410 1 20.5622607766 49.3110154021 0.0 0.0 0.0 0.0
411 1 25.4637607766 49.0417154021 0.0 0.0 0.0 0.0
412 1 31.0362607766 48.7839154021 0.0 0.0 0.0 0.0
413 1 35.9983607766 48.3959154021 0.0 0.0 0.0 0.0
414 1 42.4700607766 47.1785154021 0.0 0.0 0.0 0.0
415 1 47.3198607766 48.9472154021 0.0 0.0 0.0 0.0
416 1 52.4544607766 50.3272154021 0.0 0.0 0.0 0.0
417 1 57.3281607766 49.9090154021 0.0 0.0 0.0 0.0
418 1 62.1604607766 47.3836154021 0.0 0.0 0.0 0.0
419 1 65.4030607766 51.2476154021 0.0 0.0 0.0 0.0
420 1 71.8604607766 49.4746154021 0.0 0.0 0.0 0.0
421 1 2.63849077656 53.9110154021 0.0 0.0 0.0 0.0
422 1 8.15170077656 52.3879154021 0.0 0.0 0.0 0.0
423 1 13.3890607766 54.4324154021 0.0 0.0 0.0 0.0
424 1 18.0698607766 54.7757154021 0.0 0.0 0.0 0.0
425 1 21.1004607766 54.7226154021 0.0 0.0 0.0 0.0
426 1 29.6257607766 54.4375154021 0.0 0.0 0.0 0.0
427 1 35.7872607766 52.9697154021 0.0 0.0 0.0 0.0
428 1 40.3067607766 52.3599154021 0.0 0.0 0.0 0.0
429 1 44.3179607766 52.4655154021 0.0 0.0 0.0 0.0
430 1 49.4861607766 53.9109154021 0.0 0.0 0.0 0.0
431 1 56.5287607766 55.8803154021 0.0 0.0 0.0 0.0
432 1 60.3272607766 54.1862154021 0.0 0.0 0.0 0.0
433 1 65.2038607766 55.3988154021 0.0 0.0 0.0 0.0
434 1 70.1574607766 54.6909154021 0.0 0.0 0.0 0.0
435 1 74.9554607766 53.8541154021 0.0 0.0 0.0 0.0
436 1 75.0691607766 58.8394154021 0.0 0.0 0.0 0.0
437 1 4.92823077656 58.6729154021 0.0 0.0 0.0 0.0
438 1 7.85929077656 59.4297154021 0.0 0.0 0.0 0.0
439 1 15.0736607766 59.5161154021 0.0 0.0 0.0 0.0
440 1 19.9374607766 59.5087154021 0.0 0.0 0.0 0.0
441 1 22.8562607766 58.8032154021 0.0 0.0 0.0 0.0
442 1 31.0520607766 57.1289154021 0.0 0.0 0.0 0.0
443 1 34.0139607766 57.8332154021 0.0 0.0 0.0 0.0
444 1 41.3481607766 57.2565154021 0.0 0.0 0.0 0.0
445 1 46.0717607766 57.1956154021 0.0 0.0 0.0 0.0
446 1 51.5877607766 58.4578154021 0.0 0.0 0.0 0.0
447 1 57.8962607766 58.6165154021 0.0 0.0 0.0 0.0
448 1 62.3691607766 59.5693154021 0.0 0.0 0.0 0.0
449 1 67.6279607766 59.9890154021 0.0 0.0 0.0 0.0
450 1 72.1123607766 59.2642154021 0.0 0.0 0.0 0.0
451 1 1.77574077656 63.0454154021 0.0 0.0 0.0 0.0
452 1 6.50925077656 63.7411154021 0.0 0.0 0.0 0.0
453 1 11.6049607766 63.8770154021 0.0 0.0 0.0 0.0
454 1 16.9190607766 63.8222154021 0.0 0.0 0.0 0.0
455 1 22.3407607766 63.7998154021 0.0 0.0 0.0 0.0
456 1 27.2500607766 61.5443154021 0.0 0.0 0.0 0.0
457 1 32.3890607766 61.4334154021 0.0 0.0 0.0 0.0
458 1 37.4794607766 62.6873154021 0.0 0.0 0.0 0.0
459 1 40.4996607766 62.8237154021 0.0 0.0 0.0 0.0
460 1 47.4088607766 61.5764154021 0.0 0.0 0.0 0.0
461 1 54.3922607766 65.7617154021 0.0 0.0 0.0 0.0
462 1 56.9951607766 64.1492154021 0.0 0.0 0.0 0.0
463 1 63.9933607766 64.3605154021 0.0 0.0 0.0 0.0
464 1 69.3428607766 64.1913154021 0.0 0.0 0.0 0.0
465 1 74.2528607766 63.5621154021 0.0 0.0 0.0 0.0
466 1 77.0374607766 67.9450154021 0.0 0.0 0.0 0.0
467 1 5.12782077656 66.4069154021 0.0 0.0 0.0 0.0
468 1 9.25016077656 68.8745154021 0.0 0.0 0.0 0.0
469 1 14.2925607766 68.2563154021 0.0 0.0 0.0 0.0
470 1 19.6088607766 68.2139154021 0.0 0.0 0.0 0.0
471 1 26.5351607766 67.5160154021 0.0 0.0 0.0 0.0
472 1 29.9723607766 65.3624154021 0.0 0.0 0.0 0.0
473 1 34.5837607766 66.7800154021 0.0 0.0 0.0 0.0
474 1 39.9704607766 67.2629154021 0.0 0.0 0.0 0.0
475 1 44.9820607766 66.5854154021 0.0 0.0 0.0 0.0
476 1 50.1783607766 64.2255154021 0.0 0.0 0.0 0.0
477 1 56.4691607766 67.9014154021 0.0 0.0 0.0 0.0
478 1 61.4172607766 68.2690154021 0.0 0.0 0.0 0.0
479 1 68.4429607766 71.1679154021 0.0 0.0 0.0 0.0
480 1 70.8162607766 69.3499154021 0.0 0.0 0.0 0.0
481 1 4.03005077656 71.2734154021 0.0 0.0 0.0 0.0
482 1 7.77752077656 73.9819154021 0.0 0.0 0.0 0.0
483 1 12.7029607766 72.8301154021 0.0 0.0 0.0 0.0
484 1 17.7720607766 72.6997154021 0.0 0.0 0.0 0.0
485 1 23.1899607766 72.1231154021 0.0 0.0 0.0 0.0
486 1 29.4184607766 68.2913154021 0.0 0.0 0.0 0.0
487 1 32.9515607766 71.7129154021 0.0 0.0 0.0 0.0
488 1 38.8960607766 72.1599154021 0.0 0.0 0.0 0.0
489 1 43.8328607766 71.2587154021 0.0 0.0 0.0 0.0
490 1 49.3038607766 69.0204154021 0.0 0.0 0.0 0.0
491 1 53.5854607766 72.0462154021 0.0 0.0 0.0 0.0
492 1 58.9616607766 72.2803154021 0.0 0.0 0.0 0.0
493 1 64.2895607766 72.9698154021 0.0 0.0 0.0 0.0
494 1 70.6287607766 73.2287154021 0.0 0.0 0.0 0.0
495 1 75.8031607766 72.4612154021 0.0 0.0 0.0 0.0
496 1 0.0492507765621 77.6154154021 0.0 0.0 0.0 0.0
497 1 5.38389077656 78.5470154021 0.0 0.0 0.0 0.0
498 1 8.41573077656 78.5759154021 0.0 0.0 0.0 0.0
499 1 15.7575607766 77.0843154021 0.0 0.0 0.0 0.0
500 1 21.3140607766 76.5985154021 0.0 0.0 0.0 0.0
501 1 26.6803607766 76.4827154021 0.0 0.0 0.0 0.0
502 1 29.7293607766 76.5478154021 0.0 0.0 0.0 0.0
503 1 37.2024607766 76.8157154021 0.0 0.0 0.0 0.0
504 1 42.6042607766 74.0619154021 0.0 0.0 0.0 0.0
505 1 47.7576607766 76.3083154021 0.0 0.0 0.0 0.0
506 1 52.6775607766 76.6520154021 0.0 0.0 0.0 0.0
507 1 57.9208607766 75.0716154021 0.0 0.0 0.0 0.0
508 1 62.6745607766 77.9646154021 0.0 0.0 0.0 0.0
509 1 67.2788607766 78.0247154021 0.0 0.0 0.0 0.0
510 1 70.3040607766 78.1106154021 0.0 0.0 0.0 0.0
511 1 4.84490077656 81.4952154021 0.0 0.0 0.0 0.0
512 1 10.3572607766 80.8844154021 0.0 0.0 0.0 0.0
513 1 16.0573607766 80.0848154021 0.0 0.0 0.0 0.0
514 1 21.3162607766 79.6279154021 0.0 0.0 0.0 0.0
515 1 26.6862607766 79.4998154021 0.0 0.0 0.0 0.0
516 1 31.7660607766 78.8136154021 0.0 0.0 0.0 0.0
517 1 36.7655607766 81.0817154021 0.0 0.0 0.0 0.0
518 1 44.8048607766 79.1544154021 0.0 0.0 0.0 0.0
519 1 47.8015607766 79.3091154021 0.0 0.0 0.0 0.0
520 1 54.5148607766 79.0380154021 0.0 0.0 0.0 0.0
521 1 57.5042607766 79.5003154021 0.0 0.0 0.0 0.0
522 1 62.2837607766 80.9656154021 0.0 0.0 0.0 0.0
523 1 67.4484607766 81.0616154021 0.0 0.0 0.0 0.0
524 1 72.1887607766 80.4667154021 0.0 0.0 0.0 0.0
525 1 76.2210607766 82.7289154021 0.0 0.0 0.0 0.0
526 1 2.06653077656 82.6836154021 0.0 0.0 0.0 0.0
527 1 7.73460077656 82.3863154021 0.0 0.0 0.0 0.0
528 1 13.3618607766 81.4637154021 0.0 0.0 0.0 0.0
529 1 18.8221607766 81.3569154021 0.0 0.0 0.0 0.0
530 1 24.0360607766 80.9541154021 0.0 0.0 0.0 0.0
531 1 29.4412607766 80.7656154021 0.0 0.0 0.0 0.0
532 1 34.8531607766 78.7715154021 0.0 0.0 0.0 0.0
533 1 39.7519607766 81.4337154021 0.0 0.0 0.0 0.0
534 1 42.7611607766 81.3469154021 0.0 0.0 0.0 0.0
535 1 49.9429607766 81.4258154021 0.0 0.0 0.0 0.0
536 1 52.9450607766 81.5833154021 0.0 0.0 0.0 0.0
537 1 59.3798607766 81.8500154021 0.0 0.0 0.0 0.0
538 1 64.8383607766 82.5783154021 0.0 0.0 0.0 0.0
539 1 70.0620607766 82.6324154021 0.0 0.0 0.0 0.0
540 1 75.1915607766 79.8982154021 0.0 0.0 0.0 0.0
541 2 1.20776077656 3.13952540211 0.0 0.0 0.0 0.0
542 2 3.59358077656 3.59544540211 0.0 0.0 0.0 0.0
543 2 2.42604077656 1.02713140211 0.0 0.0 0.0 0.0
544 2 8.18747077656 0.696186402108 0.0 0.0 0.0 0.0
545 2 8.07870077656 3.31059540211 0.0 0.0 0.0 0.0
546 2 10.3314607766 2.20770540211 0.0 0.0 0.0 0.0
547 2 13.9135607766 82.8733154021 0.0 0.0 0.0 0.0
548 2 15.6307607766 2.05406540211 0.0 0.0 0.0 0.0
549 2 13.0844607766 1.90465540211 0.0 0.0 0.0 0.0
550 2 19.0875607766 82.8534154021 0.0 0.0 0.0 0.0
551 2 20.6020607766 2.05962540211 0.0 0.0 0.0 0.0
552 2 18.1039607766 2.09973540211 0.0 0.0 0.0 0.0
553 2 24.1150607766 82.4635154021 0.0 0.0 0.0 0.0
554 2 25.4383607766 1.69269540211 0.0 0.0 0.0 0.0
555 2 23.0213607766 1.77793540211 0.0 0.0 0.0 0.0
556 2 29.2542607766 82.2735154021 0.0 0.0 0.0 0.0
557 2 30.0623607766 1.69509540211 0.0 0.0 0.0 0.0
558 2 27.8085607766 1.56904540211 0.0 0.0 0.0 0.0
559 2 35.1079607766 1.85373540211 0.0 0.0 0.0 0.0
560 2 36.3607607766 82.5357154021 0.0 0.0 0.0 0.0
561 2 37.7267607766 1.31368440211 0.0 0.0 0.0 0.0
562 2 39.5625607766 82.9232154021 0.0 0.0 0.0 0.0
563 2 40.4594607766 2.10711540211 0.0 0.0 0.0 0.0
564 2 43.5220607766 82.6555154021 0.0 0.0 0.0 0.0
565 2 43.0087607766 1.88909540211 0.0 0.0 0.0 0.0
566 2 45.4767607766 1.62591540211 0.0 0.0 0.0 0.0
567 2 49.6207607766 82.8941154021 0.0 0.0 0.0 0.0
568 2 50.7776607766 2.03895540211 0.0 0.0 0.0 0.0
569 2 48.1027607766 1.84993540211 0.0 0.0 0.0 0.0
570 2 53.7772607766 82.8322154021 0.0 0.0 0.0 0.0
571 2 56.0486607766 1.09933440211 0.0 0.0 0.0 0.0
572 2 53.3936607766 1.99990540211 0.0 0.0 0.0 0.0
573 2 58.3523607766 2.41316540211 0.0 0.0 0.0 0.0
574 2 60.6792607766 3.63989540211 0.0 0.0 0.0 0.0
575 2 58.2510607766 4.88249540211 0.0 0.0 0.0 0.0
576 2 64.8888607766 0.964002402108 0.0 0.0 0.0 0.0
577 2 66.2086607766 3.27458540211 0.0 0.0 0.0 0.0
578 2 63.5207607766 3.06241540211 0.0 0.0 0.0 0.0
579 2 70.1559607766 1.03438940211 0.0 0.0 0.0 0.0
580 2 71.3012607766 3.55648540211 0.0 0.0 0.0 0.0
581 2 68.8225607766 3.27521540211 0.0 0.0 0.0 0.0
582 2 75.2632607766 0.794150402108 0.0 0.0 0.0 0.0
583 2 75.8126607766 2.99169540211 0.0 0.0 0.0 0.0
584 2 73.5266607766 3.26900540211 0.0 0.0 0.0 0.0
585 2 76.3876607766 8.00618540211 0.0 0.0 0.0 0.0
586 2 1.47232077656 7.01750540211 0.0 0.0 0.0 0.0
587 2 77.0021607766 5.28359540211 0.0 0.0 0.0 0.0
588 2 5.92093077656 4.73754540211 0.0 0.0 0.0 0.0
589 2 3.78425077656 6.18041540211 0.0 0.0 0.0 0.0
590 2 11.8342607766 4.10441540211 0.0 0.0 0.0 0.0
591 2 13.1437607766 6.32569540211 0.0 0.0 0.0 0.0
592 2 10.5795607766 6.39492540211 0.0 0.0 0.0 0.0
593 2 17.0131607766 4.45547540211 0.0 0.0 0.0 0.0
594 2 18.1093607766 7.09053540211 0.0 0.0 0.0 0.0
595 2 15.7237607766 6.62151540211 0.0 0.0 0.0 0.0
596 2 22.6548607766 6.85058540211 0.0 0.0 0.0 0.0
597 2 22.5326607766 4.19662540211 0.0 0.0 0.0 0.0
598 2 24.8309607766 5.60102540211 0.0 0.0 0.0 0.0