# input file

1350 atoms
2 atom types

0.0 77.6987797202 xlo xhi
0.0 82.2922560452 ylo yhi
-10.0 10.0 zlo zhi
0.0 0.0 0.0 xy xz yz

Masses

1 28.0855 #Si
2 15.9994 #O

Atoms

1 1 3.13544763697 2.78169802258 0.0
2 1 7.97945763697 1.49608802258 0.0
3 1 13.278627637 0.461585022581 0.0
4 1 18.181527637 0.542843022581 0.0
5 1 23.754527637 0.978888022581 0.0
6 1 28.695127637 1.28893802258 0.0
7 1 33.898027637 2.49000802258 0.0
8 1 38.123427637 3.00202802258 0.0
9 1 43.461927637 2.10514802258 0.0
10 1 49.503727637 0.824643022581 0.0
11 1 52.493227637 0.868915022581 0.0
12 1 58.412127637 3.19834802258 0.0
13 1 64.152127637 2.32951802258 0.0
14 1 69.882627637 2.39923802258 0.0
15 1 75.458527637 2.23140802258 0.0
16 1 1.59936763697 6.48751802258 0.0
17 1 4.41888763697 5.51908802258 0.0
18 1 10.958527637 5.23277802258 0.0
19 1 15.206427637 5.23472802258 0.0
20 1 20.437127637 4.84116802258 0.0
21 1 25.006627637 3.73258802258 0.0
22 1 33.916627637 5.49585802258 0.0
23 1 36.895327637 5.73111802258 0.0
24 1 41.108227637 9.17180802258 0.0
25 1 46.343327637 7.26761802258 0.0
26 1 50.785927637 5.08597802258 0.0
27 1 54.618127637 7.85627802258 0.0
28 1 62.472027637 6.42373802258 0.0
29 1 67.981727637 7.65337802258 0.0
30 1 73.546627637 6.40852802258 0.0
31 1 2.46156763697 11.6513280226 0.0
32 1 7.76795763697 10.2631280226 0.0
33 1 12.884827637 10.4263280226 0.0
34 1 17.647027637 9.48294802258 0.0
35 1 23.082827637 9.11506802258 0.0
36 1 27.989527637 10.0371280226 0.0
37 1 33.194327637 10.4875280226 0.0
38 1 39.116827637 11.4173280226 0.0
39 1 44.540527637 12.2404280226 0.0
40 1 51.892927637 9.29776802258 0.0
41 1 57.241227637 9.32827802258 0.0
42 1 61.199127637 11.0284280226 0.0
43 1 68.243927637 10.6125280226 0.0
44 1 71.201127637 10.9024280226 0.0
45 1 75.303127637 11.8527280226 0.0
46 1 0.257907636968 16.4994280226 0.0
47 1 5.48569763697 15.2026280226 0.0
48 1 10.557827637 15.0910280226 0.0
49 1 17.248727637 14.3042280226 0.0
50 1 20.216427637 13.5522280226 0.0
51 1 24.157827637 16.4911280226 0.0
52 1 30.603427637 14.8238280226 0.0
53 1 35.860027637 14.5283280226 0.0
54 1 40.792127637 15.9855280226 0.0
55 1 46.814327637 16.0094280226 0.0
56 1 52.376227637 14.0053280226 0.0
57 1 56.981627637 12.3288280226 0.0
58 1 61.967527637 15.5016280226 0.0
59 1 66.848527637 15.8902280226 0.0
60 1 72.266227637 16.4020280226 0.0
61 1 2.70274763697 20.1183280226 0.0
62 1 7.37684763697 19.7403280226 0.0
63 1 12.287727637 20.3523280226 0.0
64 1 16.589127637 19.7989280226 0.0
65 1 22.060327637 18.6235280226 0.0
66 1 26.398527637 18.5008280226 0.0
67 1 33.825627637 19.0754280226 0.0
68 1 38.106927637 19.7290280226 0.0
69 1 41.990927637 18.7292280226 0.0
70 1 48.631627637 21.1505280226 0.0
71 1 53.440727637 19.1550280226 0.0
72 1 57.694227637 20.2039280226 0.0
73 1 65.850327637 19.9367280226 0.0
74 1 68.820627637 20.2764280226 0.0
75 1 73.273627637 19.2310280226 0.0
76 1 76.955727637 24.4596280226 0.0
77 1 4.20641763697 24.6648280226 0.0
78 1 8.79760763697 24.6346280226 0.0
79 1 13.689227637 23.0463280226 0.0
80 1 20.443227637 23.0502280226 0.0
81 1 26.293127637 24.4655280226 0.0
82 1 31.575627637 22.8807280226 0.0
83 1 36.140327637 24.4380280226 0.0
84 1 40.737927637 24.4005280226 0.0
85 1 45.522827637 24.2590280226 0.0
86 1 50.186227637 23.7128280226 0.0
87 1 55.594127637 25.4120280226 0.0
88 1 60.899027637 24.3655280226 0.0
89 1 66.063527637 26.6055280226 0.0
90 1 71.462227637 24.6552280226 0.0
91 1 1.72005763697 29.2905280226 0.0
92 1 6.67707763697 29.5937280226 0.0
93 1 10.626927637 26.9998280226 0.0
94 1 18.977827637 28.3627280226 0.0
95 1 26.264527637 27.4677280226 0.0
96 1 29.251127637 27.7174280226 0.0
97 1 33.529927637 30.8417280226 0.0
98 1 39.055327637 29.3330280226 0.0
99 1 43.885827637 29.0504280226 0.0
100 1 48.567727637 31.0935280226 0.0
101 1 54.760527637 28.2744280226 0.0
102 1 59.205127637 31.4869280226 0.0
103 1 64.569527637 29.2156280226 0.0
104 1 69.279527637 29.4923280226 0.0
105 1 74.399027637 28.7791280226 0.0
106 1 77.246227637 36.1377280226 0.0
107 1 4.63303763697 34.1001280226 0.0
108 1 8.81656763697 31.7199280226 0.0
109 1 15.815027637 33.3749280226 0.0
110 1 21.872927637 32.6768280226 0.0
111 1 26.777727637 32.3825280226 0.0
112 1 31.901527637 33.3761280226 0.0
113 1 36.781527637 33.9687280226 0.0
114 1 41.718627637 34.0500280226 0.0
115 1 47.879627637 33.9953280226 0.0
116 1 51.321827637 32.2725280226 0.0
117 1 57.060927637 35.8356280226 0.0
118 1 62.684327637 33.9540280226 0.0
119 1 67.812127637 36.0726280226 0.0
120 1 72.812427637 33.5285280226 0.0
121 1 2.95433763697 39.2694280226 0.0
122 1 8.69582763697 37.3327280226 0.0
123 1 14.220627637 35.9742280226 0.0
124 1 17.838327637 35.5756280226 0.0
125 1 24.339027637 39.8076280226 0.0
126 1 29.361427637 37.4407280226 0.0
127 1 34.324427637 38.3680280226 0.0
128 1 39.198727637 38.7259280226 0.0
129 1 43.307627637 36.6214280226 0.0
130 1 50.868127637 38.1741280226 0.0
131 1 55.513227637 38.4220280226 0.0
132 1 60.594027637 38.3460280226 0.0
133 1 67.865927637 39.0647280226 0.0
134 1 70.834027637 38.7293280226 0.0
135 1 75.686927637 38.7146280226 0.0
136 1 0.227865636968 43.6183280226 0.0
137 1 4.81579763697 41.6288280226 0.0
138 1 12.350227637 40.5742280226 0.0
139 1 17.550627637 40.9363280226 0.0
140 1 22.732327637 42.3417280226 0.0
141 1 27.759027637 42.6486280226 0.0
142 1 32.436327637 42.4319280226 0.0
143 1 37.280727637 43.2253280226 0.0
144 1 41.022027637 41.1179280226 0.0
145 1 46.869927637 44.2207280226 0.0
146 1 52.746527637 43.2253280226 0.0
147 1 58.498827637 42.9126280226 0.0
148 1 61.511427637 43.1711280226 0.0
149 1 66.962627637 45.4393280226 0.0
150 1 72.555827637 43.4110280226 0.0
151 1 2.95892763697 47.2189280226 0.0
152 1 9.57892763697 45.0182280226 0.0
153 1 15.029327637 45.2572280226 0.0
154 1 19.976727637 46.0411280226 0.0
155 1 25.347327637 47.1259280226 0.0
156 1 30.997227637 47.3096280226 0.0
157 1 34.038927637 47.5210280226 0.0
158 1 41.719727637 46.6205280226 0.0
159 1 44.783527637 46.4626280226 0.0
160 1 49.260327637 47.4022280226 0.0
161 1 55.032427637 48.5549280226 0.0
162 1 59.659527637 48.5269280226 0.0
163 1 67.076327637 48.4348280226 0.0
164 1 70.020727637 47.8928280226 0.0
165 1 75.165627637 47.8815280226 0.0
166 1 77.123327637 51.6263280226 0.0
167 1 5.52426763697 48.7984280226 0.0
168 1 11.022127637 49.1009280226 0.0
169 1 16.013627637 50.0713280226 0.0
170 1 22.385727637 50.8893280226 0.0
171 1 24.862227637 52.5765280226 0.0
172 1 31.075527637 55.3842280226 0.0
173 1 35.858127637 52.2443280226 0.0
174 1 40.808327637 51.5732280226 0.0
175 1 46.434827637 51.9431280226 0.0
176 1 51.717227637 51.4941280226 0.0
177 1 56.858727637 53.3658280226 0.0
178 1 61.732027637 53.2704280226 0.0
179 1 66.258427637 53.5215280226 0.0
180 1 71.638127637 52.3035280226 0.0
181 1 0.891177636968 54.2386280226 0.0
182 1 7.58770763697 54.2269280226 0.0
183 1 12.434527637 54.0937280226 0.0
184 1 16.760827637 55.2429280226 0.0
185 1 21.569627637 56.2831280226 0.0
186 1 25.672927637 55.4758280226 0.0
187 1 34.060427637 57.6222280226 0.0
188 1 40.416327637 55.8997280226 0.0
189 1 42.681827637 53.9356280226 0.0
190 1 49.596127637 56.0511280226 0.0
191 1 55.019627637 57.9311280226 0.0
192 1 60.168227637 59.8168280226 0.0
193 1 65.189327637 59.8897280226 0.0
194 1 70.072427637 57.0283280226 0.0
195 1 75.054727637 56.0697280226 0.0
196 1 0.398337636968 60.1356280226 0.0
197 1 6.44538763697 59.2914280226 0.0
198 1 9.42102763697 58.8564280226 0.0
199 1 13.749627637 59.5746280226 0.0
200 1 18.573127637 61.9794280226 0.0
201 1 24.441227637 61.0485280226 0.0
202 1 29.934027637 61.1411280226 0.0
203 1 35.277427637 60.3494280226 0.0
204 1 42.692827637 61.1703280226 0.0
205 1 47.857227637 60.5705280226 0.0
206 1 53.443427637 60.4636280226 0.0
207 1 58.588127637 62.3992280226 0.0
208 1 65.628127637 62.8521280226 0.0
209 1 68.570527637 62.2772280226 0.0
210 1 75.085127637 60.1704280226 0.0
211 1 2.21003763697 65.5711280226 0.0
212 1 7.01709763697 64.4470280226 0.0
213 1 11.657027637 66.5766280226 0.0
214 1 17.313827637 64.7277280226 0.0
215 1 22.349127637 67.0925280226 0.0
216 1 27.722327637 65.4772280226 0.0
217 1 33.982427637 64.8627280226 0.0
218 1 39.575627637 65.7964280226 0.0
219 1 44.773827637 65.4115280226 0.0
220 1 53.298827637 66.9428280226 0.0
221 1 52.840427637 63.9640280226 0.0
222 1 59.203927637 67.3642280226 0.0
223 1 64.684527637 67.8414280226 0.0
224 1 72.404327637 66.2339280226 0.0
225 1 75.362727637 65.8401280226 0.0
226 1 77.593827637 70.7147280226 0.0
227 1 5.02262763697 69.7244280226 0.0
228 1 10.339427637 69.3340280226 0.0
229 1 14.737427637 69.3287280226 0.0
230 1 20.397627637 69.3463280226 0.0
231 1 25.734627637 70.2442280226 0.0
232 1 29.413327637 68.0231280226 0.0
233 1 35.641027637 71.7593280226 0.0
234 1 41.279827637 70.0608280226 0.0
235 1 46.345827637 69.9700280226 0.0
236 1 51.725427637 72.0654280226 0.0
237 1 57.041327637 70.8641280226 0.0
238 1 62.106927637 71.8804280226 0.0
239 1 69.038827637 71.5783280226 0.0
240 1 72.012827637 71.0934280226 0.0
241 1 4.16919763697 74.4423280226 0.0
242 1 7.17523763697 73.9381280226 0.0
243 1 12.331327637 74.4209280226 0.0
244 1 18.635127637 73.0694280226 0.0
245 1 21.453627637 72.1344280226 0.0
246 1 28.255327637 74.0078280226 0.0
247 1 33.575627637 74.0013280226 0.0
248 1 38.740127637 74.6985280226 0.0
249 1 43.565027637 74.6718280226 0.0
250 1 51.402227637 75.0234280226 0.0
251 1 54.327127637 75.6186280226 0.0
252 1 59.240527637 75.8907280226 0.0
253 1 64.179127637 76.8489280226 0.0
254 1 69.393227637 76.2509280226 0.0
255 1 74.968627637 75.1700280226 0.0
256 1 0.307907636968 3.81011802258 0.0
257 1 8.03968763697 4.54834802258 0.0
258 1 10.891527637 2.24388802258 0.0
259 1 15.693727637 2.24845802258 0.0
260 1 20.876227637 1.86457802258 0.0
261 1 27.970227637 4.25013802258 0.0
262 1 31.604827637 0.582191022581 0.0
263 1 36.289727637 0.668762022581 0.0
264 1 40.989527637 3.78330802258 0.0
265 1 45.410427637 4.40348802258 0.0
266 1 48.252527637 3.50882802258 0.0
267 1 53.443327637 3.69832802258 0.0
268 1 61.414427637 3.62064802258 0.0
269 1 66.981627637 3.39259802258 0.0
270 1 72.719927637 3.50286802258 0.0
271 1 0.610327636968 9.28910802258 0.0
272 1 6.83821763697 7.32642802258 0.0
273 1 13.067127637 7.38268802258 0.0
274 1 17.923027637 6.49276802258 0.0
275 1 23.155427637 6.10754802258 0.0
276 1 28.960927637 7.14686802258 0.0
277 1 31.927027637 7.74329802258 0.0
278 1 39.773227637 6.51235802258 0.0
279 1 44.111627637 9.27992802258 0.0
280 1 49.342227637 7.69945802258 0.0
281 1 56.054727637 5.15318802258 0.0
282 1 60.072627637 8.26394802258 0.0
283 1 65.480427637 6.01476802258 0.0
284 1 70.966427637 7.91325802258 0.0
285 1 75.338627637 8.84798802258 0.0
286 1 0.109371636968 13.5084280226 0.0
287 1 5.42535763697 12.1844280226 0.0
288 1 10.290227637 12.0213280226 0.0
289 1 15.630827637 11.7233280226 0.0
290 1 20.440727637 10.5574280226 0.0
291 1 25.193327637 11.2550280226 0.0
292 1 30.461227637 11.8051280226 0.0
293 1 36.067827637 11.5310280226 0.0
294 1 41.633527637 13.1123280226 0.0
295 1 47.456927637 13.0580280226 0.0
296 1 50.272527637 11.8679280226 0.0
297 1 59.672527637 13.6067280226 0.0
298 1 63.477927637 12.9120280226 0.0
299 1 66.440627637 12.9556280226 0.0
300 1 72.780227637 13.4465280226 0.0
301 1 3.18317763697 17.1510280226 0.0
302 1 8.04254763697 16.7824280226 0.0
303 1 12.654027637 17.3153280226 0.0
304 1 15.651227637 16.9093280226 0.0
305 1 23.265127637 13.6193280226 0.0
306 1 29.216727637 17.4933280226 0.0
307 1 33.324327637 16.1080280226 0.0
308 1 37.900827637 16.7277280226 0.0
309 1 44.939427637 18.3493280226 0.0
310 1 48.880627637 18.1707280226 0.0
311 1 51.542627637 16.8622280226 0.0
312 1 55.271827637 14.7809280226 0.0
313 1 64.271227637 17.3963280226 0.0
314 1 69.441927637 17.3518280226 0.0
315 1 76.251927637 18.9761280226 0.0
316 1 0.0677806369677 21.5588280226 0.0
317 1 5.16604763697 21.8002280226 0.0
318 1 9.61502763697 21.7275280226 0.0
319 1 16.666427637 22.8485280226 0.0
320 1 19.529827637 20.1761280226 0.0
321 1 22.971427637 21.4786280226 0.0
322 1 30.971227637 19.9382280226 0.0
323 1 35.674527637 21.4549280226 0.0
324 1 40.606027637 21.3870280226 0.0
325 1 45.652327637 21.2691280226 0.0
326 1 52.687227637 22.0533280226 0.0
327 1 56.060927637 17.6919280226 0.0
328 1 60.444127637 21.4036280226 0.0
329 1 63.418527637 21.6358280226 0.0
330 1 71.475627637 21.6493280226 0.0
331 1 1.65963763697 26.2712280226 0.0
332 1 6.50788763697 26.5765280226 0.0
333 1 13.456127637 26.0544280226 0.0
334 1 18.475627637 25.3212280226 0.0
335 1 25.943427637 21.4831280226 0.0
336 1 29.254027637 24.7350280226 0.0
337 1 33.296227637 25.3504280226 0.0
338 1 38.462327637 26.3607280226 0.0
339 1 43.184727637 26.1290280226 0.0
340 1 48.069627637 25.8509280226 0.0
341 1 55.654027637 22.4260280226 0.0
342 1 58.497727637 26.1066280226 0.0
343 1 63.866427637 24.5844280226 0.0
344 1 69.066427637 26.4932280226 0.0
345 1 74.252027637 25.7781280226 0.0
346 1 76.744427637 30.6509280226 0.0
347 1 4.09712763697 31.1344280226 0.0
348 1 11.234427637 29.9336280226 0.0
349 1 14.097127637 28.9933280226 0.0
350 1 21.736727637 29.6886280226 0.0
351 1 24.771427637 30.0668280226 0.0
352 1 32.203227637 28.1561280226 0.0
353 1 36.534327637 30.9821280226 0.0
354 1 41.586927637 31.0126280226 0.0
355 1 46.874227637 28.6195280226 0.0
356 1 54.096427637 31.1789280226 0.0
357 1 57.676827637 28.9426280226 0.0
358 1 62.163027637 31.0080280226 0.0
359 1 66.811427637 31.2008280226 0.0
360 1 72.043027637 30.6335280226 0.0
361 1 2.55795763697 36.2897280226 0.0
362 1 7.62387763697 34.5014280226 0.0
363 1 16.730127637 30.4540280226 0.0
364 1 20.796927637 35.4525280226 0.0
365 1 24.440727637 34.2247280226 0.0
366 1 29.065727637 34.3960280226 0.0
367 1 34.138127637 35.3760280226 0.0
368 1 39.218327637 35.7118280226 0.0
369 1 46.284627637 36.5026280226 0.0
370 1 50.637027637 35.1787280226 0.0
371 1 56.558627637 32.9004280226 0.0
372 1 60.054827637 35.4268280226 0.0
373 1 65.680827637 33.9806280226 0.0
374 1 70.785527637 35.7388280226 0.0
375 1 75.810727637 33.5055280226 0.0
376 1 0.284937636968 40.6259280226 0.0
377 1 7.42110763697 40.0869280226 0.0
378 1 11.702327637 37.6264280226 0.0
379 1 16.341427637 38.1482280226 0.0
380 1 23.338727637 36.9969280226 0.0
381 1 27.337127637 39.6726280226 0.0
382 1 31.570027637 39.5283280226 0.0
383 1 36.642227637 40.2780280226 0.0
384 1 43.607627637 39.6275280226 0.0
385 1 47.982127637 38.9780280226 0.0
386 1 53.078927637 40.2071280226 0.0
387 1 58.077927637 39.9564280226 0.0
388 1 62.715327637 40.4188280226 0.0
389 1 65.620727637 41.0489280226 0.0
390 1 73.250327637 40.4811280226 0.0
391 1 3.18594763697 44.2019280226 0.0
392 1 9.71592763697 42.0207280226 0.0
393 1 14.855327637 42.2559280226 0.0
394 1 19.791827637 43.0039280226 0.0
395 1 25.146927637 44.1296280226 0.0
396 1 30.191827637 44.4072280226 0.0
397 1 34.591327637 44.5503280226 0.0
398 1 40.189527637 44.0102280226 0.0
399 1 46.104827637 41.3093280226 0.0
400 1 49.910327637 44.4530280226 0.0
401 1 57.310627637 46.6191280226 0.0
402 1 55.703427637 44.0664280226 0.0
403 1 64.448527637 43.8142280226 0.0
404 1 69.922727637 44.8954280226 0.0
405 1 75.185927637 44.8796280226 0.0
406 1 0.348377636968 48.7633280226 0.0
407 1 8.33782763697 47.7482280226 0.0
408 1 12.248927637 46.3716280226 0.0
409 1 17.232227637 47.3057280226 0.0
410 1 22.407427637 47.8719280226 0.0
411 1 27.560627637 51.2770280226 0.0
412 1 28.139527637 48.3320280226 0.0
413 1 36.539427637 49.2825280226 0.0
414 1 39.581127637 48.8082280226 0.0
415 1 46.604827637 48.8895280226 0.0
416 1 52.037227637 48.5327280226 0.0
417 1 57.349627637 50.4329280226 0.0
418 1 62.128127637 50.2825280226 0.0
419 1 65.116827637 50.7166280226 0.0
420 1 72.579227637 49.4444280226 0.0
421 1 3.84699763697 53.9873280226 0.0
422 1 5.86394763697 51.7826280226 0.0
423 1 13.196427637 51.1762280226 0.0
424 1 17.838627637 52.4587280226 0.0
425 1 20.702127637 53.3745280226 0.0
426 1 28.363327637 54.1522280226 0.0
427 1 33.975427637 54.6128280226 0.0
428 1 38.555127637 53.5584280226 0.0
429 1 45.546327637 54.8756280226 0.0
430 1 49.192427637 53.0794280226 0.0
431 1 53.885227637 53.5320280226 0.0
432 1 59.316527637 55.0432280226 0.0
433 1 63.874627637 55.3754280226 0.0
434 1 69.225827637 54.1286280226 0.0
435 1 74.521827637 53.1199280226 0.0
436 1 0.156599636968 57.1432280226 0.0
437 1 5.55115763697 56.4299280226 0.0
438 1 10.050727637 55.9051280226 0.0
439 1 14.088227637 56.5852280226 0.0
440 1 18.797527637 57.4245280226 0.0
441 1 24.052527637 58.0201280226 0.0
442 1 31.143127637 58.3757280226 0.0
443 1 38.274227637 60.6013280226 0.0
444 1 40.737927637 58.8848280226 0.0
445 1 47.030027637 57.5935280226 0.0
446 1 52.579527637 56.2094280226 0.0
447 1 58.018727637 57.7368280226 0.0
448 1 62.727227637 58.1842280226 0.0
449 1 68.124427637 59.3127280226 0.0
450 1 72.882927637 58.1166280226 0.0
451 1 2.24029763697 62.5444280226 0.0
452 1 5.20995763697 62.0333280226 0.0
453 1 11.240627637 61.2564280226 0.0
454 1 16.753627637 59.6232280226 0.0
455 1 21.592027637 62.1846280226 0.0
456 1 27.183427637 62.4658280226 0.0
457 1 32.812627637 62.0962280226 0.0
458 1 40.217727637 62.8722280226 0.0
459 1 45.435627637 62.4322280226 0.0
460 1 50.718627637 61.7548280226 0.0
461 1 55.542627637 62.6102280226 0.0
462 1 60.563327637 64.6824280226 0.0
463 1 63.570927637 65.0412280226 0.0
464 1 71.326527637 63.4569280226 0.0
465 1 74.290027637 63.0406280226 0.0
466 1 0.0441456369677 67.6810280226 0.0
467 1 5.00518763697 66.7022280226 0.0
468 1 10.018227637 64.0351280226 0.0
469 1 14.688827637 66.3154280226 0.0
470 1 20.324427637 64.9173280226 0.0
471 1 25.324727637 67.2733280226 0.0
472 1 32.346227637 67.3734280226 0.0
473 1 36.607027637 66.3358280226 0.0
474 1 42.257427637 67.1731280226 0.0
475 1 47.282127637 67.0969280226 0.0
476 1 50.293327637 67.4902280226 0.0
477 1 56.211327637 67.9618280226 0.0
478 1 61.840827637 68.8896280226 0.0
479 1 67.521327637 68.9698280226 0.0
480 1 70.487627637 68.4940280226 0.0
481 1 2.76340763697 71.7460280226 0.0
482 1 7.77299763697 70.9619280226 0.0
483 1 12.537527637 71.3930280226 0.0
484 1 17.564927637 70.2865280226 0.0
485 1 24.327527637 72.8881280226 0.0
486 1 28.629427637 70.9723280226 0.0
487 1 34.953827637 68.8424280226 0.0
488 1 38.688827637 71.6891280226 0.0
489 1 43.837127637 71.6635280226 0.0
490 1 49.311527637 70.3203280226 0.0
491 1 54.646327637 72.6419280226 0.0
492 1 59.281727637 72.8809280226 0.0
493 1 64.373027637 73.8601280226 0.0
494 1 67.369627637 74.0350280226 0.0
495 1 74.886027637 72.1352280226 0.0
496 1 77.330327637 77.0812280226 0.0
497 1 2.69789763697 77.1117280226 0.0
498 1 9.59942763697 75.7788280226 0.0
499 1 14.989127637 75.8976280226 0.0
500 1 18.013627637 75.9758280226 0.0
501 1 25.623427637 75.5848280226 0.0
502 1 30.889627637 75.4786280226 0.0
503 1 35.949827637 75.8344280226 0.0
504 1 41.154627637 76.4903280226 0.0
505 1 45.876527637 76.5825280226 0.0
506 1 48.879227637 76.5825280226 0.0
507 1 56.689627637 77.4582280226 0.0
508 1 61.400827637 77.9777280226 0.0
509 1 66.960627637 78.0011280226 0.0
510 1 72.369527637 76.7498280226 0.0
511 1 4.32434763697 79.7059280226 0.0
512 1 9.48992763697 78.8250280226 0.0
513 1 15.169727637 78.8858280226 0.0
514 1 20.382627637 77.8721280226 0.0
515 1 24.878927637 80.4573280226 0.0
516 1 29.963227637 78.3857280226 0.0
517 1 35.220227637 78.7377280226 0.0
518 1 40.637527637 79.4717280226 0.0
519 1 45.257027637 79.5168280226 0.0
520 1 50.655827637 79.0011280226 0.0
521 1 56.384427637 80.4368280226 0.0
522 1 61.271727637 80.9775280226 0.0
523 1 67.177727637 80.9784280226 0.0
524 1 72.523727637 79.7663280226 0.0
525 1 77.183327637 82.0544280226 0.0
526 1 2.51081763697 82.1272280226 0.0
527 1 7.17439763697 80.8213280226 0.0
528 1 12.330027637 79.9057280226 0.0
529 1 18.061827637 79.8284280226 0.0
530 1 23.465027637 77.7732280226 0.0
531 1 27.896827637 80.6397280226 0.0
532 1 32.489727637 80.0044280226 0.0
533 1 37.750027637 80.3417280226 0.0
534 1 42.937727637 81.4223280226 0.0
535 1 48.075327637 80.5206280226 0.0
536 1 53.376027637 80.3098280226 0.0
537 1 58.626027637 0.172452022581 0.0
538 1 64.222327637 81.6410280226 0.0
539 1 70.129227637 81.6731280226 0.0
540 1 75.549027637 79.5369280226 0.0
541 2 4.00669763697 4.03102802258 0.0
542 2 3.00802763697 1.27027802258 0.0
543 2 1.68267763697 3.19776802258 0.0
544 2 7.74888763697 3.04086802258 0.0
545 2 9.47462763697 1.73600802258 0.0
546 2 7.49214763697 0.0429382225811 0.0
547 2 12.780727637 81.3467280226 0.0
548 2 14.523827637 1.29704802258 0.0
549 2 12.077327637 1.35243802258 0.0
550 2 18.130227637 81.3332280226 0.0
551 2 19.553627637 1.15388802258 0.0
552 2 16.968327637 1.43639802258 0.0
553 2 24.285827637 81.8586280226 0.0
554 2 24.462027637 2.32068802258 0.0
555 2 22.279627637 1.32390802258 0.0
556 2 28.210827637 82.1329280226 0.0
557 2 30.174227637 0.996078022581 0.0
558 2 28.385127637 2.77620802258 0.0
559 2 32.690127637 1.60698802258 0.0
560 2 35.049827637 1.51749802258 0.0
561 2 33.823627637 3.99064802258 0.0
562 2 37.303227637 1.77319802258 0.0
563 2 39.602827637 3.20527802258 0.0
564 2 37.407127637 4.31511802258 0.0
565 2 43.226227637 0.614054022581 0.0
566 2 42.205827637 2.93567802258 0.0
567 2 44.459627637 3.24017802258 0.0
568 2 48.665127637 81.8915280226 0.0
569 2 48.776227637 2.11651802258 0.0
570 2 50.995127637 0.848115022581 0.0
571 2 53.002527637 81.7656280226 0.0
572 2 53.093327637 2.23967802258 0.0
573 2 58.421427637 1.66995802258 0.0
574 2 59.915327637 3.43887802258 0.0
575 2 57.290127637 4.23748802258 0.0
576 2 64.158827637 0.842415022581 0.0
577 2 65.599127637 2.76214802258 0.0
578 2 62.756727637 2.91526802258 0.0
579 2 70.067827637 0.896390022581 0.0
580 2 71.283727637 3.01417802258 0.0
581 2 68.442827637 2.93846802258 0.0
582 2 76.245127637 0.946344022581 0.0
583 2 76.671527637 3.14457802258 0.0
584 2 74.047227637 2.75257802258 0.0
585 2 1.15467763697 7.89808802258 0.0
586 2 0.754227636968 5.24739802258 0.0
587 2 3.04565763697 6.11797802258 0.0
588 2 5.52763763697 6.52980802258 0.0
589 2 11.133727637 3.72795802258 0.0
590 2 9.47732763697 5.00142802258 0.0
591 2 11.913027637 6.38825802258 0.0
592 2 16.582927637 5.83466802258 0.0
593 2 15.401527637 3.73017802258 0.0
594 2 14.167227637 6.33176802258 0.0
595 2 20.628427637 3.35111802258 0.0
596 2 21.767527637 5.53329802258 0.0
597 2 19.176327637 5.66213802258 0.0
598 2 26.474527637 4.03913802258 0.0
599 2 24.133727637 4.96532802258 0.0
600 2 32.898427637 6.58662802258 0.0
601 2 35.400927637 5.78960802258 0.0
602 2 38.271827637 6.34749802258 0.0
603 2 40.461127637 7.82548802258 0.0
604 2 42.608427637 9.17521802258 0.0
605 2 40.050327637 10.2286280226 0.0
606 2 45.754827637 5.87499802258 0.0
607 2 47.829927637 7.57968802258 0.0
608 2 45.234627637 8.28718802258 0.0
609 2 52.157927637 4.49086802258 0.0
610 2 49.521827637 4.28606802258 0.0
611 2 50.118827637 6.41655802258 0.0
612 2 55.903427637 8.65461802258 0.0
613 2 55.344527637 6.50357802258 0.0
614 2 53.257827637 8.58250802258 0.0
615 2 61.890927637 5.04370802258 0.0
616 2 63.994927637 6.31361802258 0.0
617 2 61.261927637 7.33658802258 0.0
618 2 66.692627637 6.91256802258 0.0
619 2 69.496327637 7.56139802258 0.0
620 2 67.938827637 9.15644802258 0.0
621 2 73.183927637 4.94669802258 0.0
622 2 74.528427637 7.57390802258 0.0
623 2 72.212527637 7.10440802258 0.0
624 2 1.58757763697 10.4211280226 0.0
625 2 3.94800763697 11.8427280226 0.0
626 2 1.36564763697 12.6878280226 0.0
627 2 9.04555763697 11.1161280226 0.0
628 2 7.34600763697 8.77448802258 0.0
629 2 6.57666763697 11.2153280226 0.0
630 2 12.964327637 8.89467802258 0.0
631 2 14.218927637 11.1577280226 0.0
632 2 11.589427637 11.2172280226 0.0
633 2 17.748627637 7.98454802258 0.0
634 2 19.064227637 9.97692802258 0.0
635 2 16.596127637 10.5535280226 0.0
636 2 23.203027637 7.61345802258 0.0
637 2 24.194127637 10.1211280226 0.0
638 2 21.739227637 9.80236802258 0.0
639 2 28.349827637 8.55127802258 0.0
640 2 29.208127637 10.9523280226 0.0
641 2 26.614827637 10.7040280226 0.0
642 2 32.628827637 9.07859802258 0.0
643 2 34.659827637 10.9259280226 0.0
644 2 31.862627637 11.2286280226 0.0
645 2 40.327327637 12.3490280226 0.0
646 2 37.595427637 11.3745280226 0.0
647 2 43.106627637 12.7497280226 0.0
648 2 46.001727637 12.6171280226 0.0
649 2 44.403927637 10.7457280226 0.0
650 2 51.142227637 10.6289280226 0.0
651 2 50.576927637 8.55214802258 0.0
652 2 58.599527637 8.64430802258 0.0
653 2 57.064927637 10.8314280226 0.0
654 2 60.698427637 9.63553802258 0.0
655 2 60.377927637 12.2785280226 0.0
656 2 62.504427637 11.7748280226 0.0
657 2 67.324327637 11.7741280226 0.0
658 2 69.701027637 10.9125280226 0.0
659 2 71.266127637 9.39597802258 0.0
660 2 71.921127637 12.2086280226 0.0
661 2 76.563127637 12.6703280226 0.0
662 2 75.155927637 10.3586280226 0.0
663 2 74.091127637 12.7262280226 0.0
664 2 0.0858646369677 15.0077280226 0.0
665 2 1.73254763697 16.7652280226 0.0
666 2 77.040527637 17.6916280226 0.0
667 2 5.48720763697 13.6978280226 0.0
668 2 6.77903763697 15.9632280226 0.0
669 2 4.31789763697 16.1666280226 0.0
670 2 10.438727637 13.5586280226 0.0
671 2 11.660727637 16.1612280226 0.0
672 2 9.29622763697 15.9427280226 0.0
673 2 16.482327637 15.6299280226 0.0
674 2 16.363027637 13.0552280226 0.0
675 2 18.767427637 14.0605280226 0.0
676 2 20.305627637 12.0476280226 0.0
677 2 21.743027637 13.7092280226 0.0
678 2 22.997927637 17.4671280226 0.0
679 2 23.809427637 15.0363280226 0.0
680 2 25.335827637 17.4308280226 0.0
681 2 29.777127637 16.0959280226 0.0
682 2 31.987627637 15.4290280226 0.0
683 2 30.441927637 13.3267280226 0.0
684 2 35.959227637 13.0393280226 0.0
685 2 36.897627637 15.6192280226 0.0
686 2 34.551527637 15.2525280226 0.0
687 2 41.294027637 14.5802280226 0.0
688 2 41.400627637 17.3523280226 0.0
689 2 39.322127637 16.2640280226 0.0
690 2 47.161227637 14.5532280226 0.0
691 2 47.869927637 17.0765280226 0.0
692 2 45.726227637 17.0732280226 0.0
693 2 51.874927637 15.4193280226 0.0
694 2 51.335527637 12.9410280226 0.0
695 2 53.843927637 14.3142280226 0.0
696 2 58.280727637 13.0856280226 0.0
697 2 56.067927637 13.5143280226 0.0
698 2 62.969127637 16.6311280226 0.0
699 2 62.799227637 14.2443280226 0.0
700 2 60.630327637 14.7828280226 0.0
701 2 66.765827637 14.4042280226 0.0
702 2 68.166527637 16.5787280226 0.0
703 2 65.532527637 16.5780280226 0.0
704 2 72.569127637 14.9304280226 0.0
705 2 72.835727637 17.7894280226 0.0
706 2 70.811027637 16.7747280226 0.0
707 2 3.91778763697 20.9764280226 0.0
708 2 3.01646763697 18.6493280226 0.0
709 2 1.42149763697 20.8996280226 0.0
710 2 7.71005763697 18.2654280226 0.0
711 2 8.52735763697 20.7048280226 0.0
712 2 6.26232763697 20.7663280226 0.0
713 2 12.462827637 18.8442280226 0.0
714 2 10.933827637 21.0217280226 0.0
715 2 13.054327637 21.6724280226 0.0
716 2 18.094127637 19.8193280226 0.0
717 2 16.093527637 18.3686280226 0.0
718 2 16.583427637 21.3192280226 0.0
719 2 20.660527637 19.1841280226 0.0
720 2 22.606427637 20.0262280226 0.0
721 2 27.788227637 17.9382280226 0.0
722 2 26.282927637 20.0105280226 0.0
723 2 33.674627637 17.5749280226 0.0
724 2 32.395927637 19.4993280226 0.0
725 2 34.692827637 20.3050280226 0.0
726 2 37.933927637 18.2352280226 0.0
727 2 36.909627637 20.6107280226 0.0
728 2 39.323227637 20.6003280226 0.0
729 2 43.458127637 18.4898280226 0.0
730 2 41.437627637 20.1236280226 0.0
731 2 48.841827637 19.6630280226 0.0
732 2 49.410327637 22.4176280226 0.0
733 2 47.148227637 21.2525280226 0.0
734 2 52.499227637 18.0009280226 0.0
735 2 54.782727637 18.4853280226 0.0
736 2 52.920027637 20.5576280226 0.0
737 2 57.061927637 18.8342280226 0.0
738 2 59.124027637 20.6897280226 0.0
739 2 56.689127637 21.3390280226 0.0
740 2 65.011227637 18.6911280226 0.0
741 2 64.668827637 20.8440280226 0.0
742 2 67.315627637 20.2440280226 0.0
743 2 69.179227637 18.8190280226 0.0
744 2 70.078827637 21.0789280226 0.0
745 2 74.767427637 19.1312280226 0.0
746 2 72.448627637 20.4927280226 0.0
747 2 75.573327637 25.0553280226 0.0
748 2 0.426577636968 25.4062280226 0.0
749 2 77.325127637 22.9949280226 0.0
750 2 5.30078763697 25.6917280226 0.0
751 2 4.72728763697 23.2470280226 0.0
752 2 2.90415763697 25.4201280226 0.0
753 2 9.20528763697 23.1859280226 0.0
754 2 9.73282763697 25.8092280226 0.0
755 2 7.59926763697 25.5422280226 0.0
756 2 13.532327637 24.5546280226 0.0
757 2 15.180927637 23.0077280226 0.0
758 2 19.847027637 21.6540280226 0.0
759 2 21.845827637 22.4804280226 0.0
760 2 19.623427637 24.3030280226 0.0
761 2 26.118727637 22.9767280226 0.0
762 2 27.791727637 24.4893280226 0.0
763 2 26.025027637 25.9654280226 0.0
764 2 31.208427637 21.4295280226 0.0
765 2 32.532427637 24.0470280226 0.0
766 2 30.346627637 23.7391280226 0.0
767 2 37.259827637 25.4406280226 0.0
768 2 35.926627637 22.9362280226 0.0
769 2 34.749227637 24.9959280226 0.0
770 2 40.710927637 22.8883280226 0.0
771 2 41.958827637 25.2703280226 0.0
772 2 39.589427637 25.3634280226 0.0
773 2 45.413127637 22.7581280226 0.0
774 2 46.819227637 25.0147280226 0.0
775 2 44.351327637 25.1860280226 0.0
776 2 51.537927637 23.0239280226 0.0
777 2 49.279627637 24.9248280226 0.0
778 2 57.073927637 25.6688280226 0.0
779 2 55.610827637 23.9249280226 0.0
780 2 54.893027637 26.7639280226 0.0
781 2 60.540427637 22.9088280226 0.0
782 2 59.733327637 25.2886280226 0.0
783 2 62.358627637 24.7003280226 0.0
784 2 65.261127637 27.8834280226 0.0
785 2 65.006727637 25.5363280226 0.0
786 2 67.552427637 26.4111280226 0.0
787 2 71.485927637 23.1486280226 0.0
788 2 72.861927637 25.2096280226 0.0
789 2 70.229227637 25.5328280226 0.0
790 2 1.70294763697 27.7810280226 0.0
791 2 2.89219763697 30.2327280226 0.0
792 2 0.397677636968 30.0079280226 0.0
793 2 6.63291763697 28.0807280226 0.0
794 2 7.77435763697 30.6224280226 0.0
795 2 5.36702763697 30.3325280226 0.0
796 2 12.018127637 26.4606280226 0.0
797 2 10.740427637 28.4977280226 0.0
798 2 20.409527637 28.9357280226 0.0
799 2 18.691327637 26.8391280226 0.0
800 2 17.888127637 29.4475280226 0.0
801 2 27.751427637 27.7919280226 0.0
802 2 25.458927637 28.7220280226 0.0
803 2 30.693827637 28.1351280226 0.0
804 2 29.382227637 26.2179280226 0.0
805 2 32.882327637 29.4868280226 0.0