# input file

1350 atoms
2 atom types

0.0 79.7986415811 xlo xhi
0.0 80.4072273997 ylo yhi
-10.0 10.0 zlo zhi
0.0 0.0 0.0 xy xz yz

Masses

1 28.0855 #Si
2 15.9994 #O

Atoms

1 1 2.06463856738 0.827653699834 0.0
2 1 7.59920856738 0.692363699834 0.0
3 1 14.7199585674 79.9929136998 0.0
4 1 18.9557585674 2.27231369983 0.0
5 1 24.1901585674 0.214983699834 0.0
6 1 28.7774585674 0.681873699834 0.0
7 1 34.1432585674 3.34640369983 0.0
8 1 39.6791585674 1.80732369983 0.0
9 1 45.8801585674 1.15240369983 0.0
10 1 50.0640585674 4.64822369983 0.0
11 1 55.2815585674 3.72389369983 0.0
12 1 60.3582585674 2.65135369983 0.0
13 1 66.0195585674 1.66809369983 0.0
14 1 71.6190585674 0.761193699834 0.0
15 1 76.8364585674 1.16937369983 0.0
16 1 0.0853235673795 5.64364369983 0.0
17 1 5.26093856738 4.90661369983 0.0
18 1 9.91636856738 2.63961369983 0.0
19 1 19.1181585674 5.26218369983 0.0
20 1 22.1273585674 5.14470369983 0.0
21 1 26.0567585674 8.08825369983 0.0
22 1 33.9500585674 6.34311369983 0.0
23 1 38.6907585674 6.12780369983 0.0
24 1 41.9293585674 3.87347369983 0.0
25 1 46.6611585674 8.80698369983 0.0
26 1 53.6288585674 8.59834369983 0.0
27 1 58.8176585674 7.65223369983 0.0
28 1 64.0926585674 5.88544369983 0.0
29 1 69.8612585674 5.01831369983 0.0
30 1 74.5575585674 7.61916369983 0.0
31 1 3.79366856738 9.65081369983 0.0
32 1 8.83704856738 8.16371369983 0.0
33 1 13.6149585674 9.89601369983 0.0
34 1 18.9425585674 11.3792136998 0.0
35 1 25.4208585674 11.0398136998 0.0
36 1 28.9589585674 8.84294369983 0.0
37 1 36.4557585674 11.0441136998 0.0
38 1 43.8789585674 12.1659136998 0.0
39 1 43.6572585674 9.14411369983 0.0
40 1 48.6203585674 11.1137136998 0.0
41 1 56.6802585674 12.6274136998 0.0
42 1 64.2604585674 9.64791369983 0.0
43 1 67.2438585674 9.13511369983 0.0
44 1 72.9385585674 10.1568136998 0.0
45 1 78.1840585674 10.5171136998 0.0
46 1 1.43754856738 14.3631136998 0.0
47 1 6.72897856738 13.4764136998 0.0
48 1 12.1711585674 12.5318136998 0.0
49 1 17.6059585674 14.0558136998 0.0
50 1 21.3575585674 13.1915136998 0.0
51 1 28.3959585674 14.7493136998 0.0
52 1 33.1285585674 14.0870136998 0.0
53 1 34.4760585674 18.0752136998 0.0
54 1 41.8727585674 16.5482136998 0.0
55 1 47.1959585674 16.4285136998 0.0
56 1 53.5442585674 16.1337136998 0.0
57 1 58.5333585674 15.0468136998 0.0
58 1 68.0093585674 12.8161136998 0.0
59 1 69.9736585674 16.9420136998 0.0
60 1 75.5538585674 14.8139136998 0.0
61 1 3.59950856738 18.3392136998 0.0
62 1 11.4116585674 16.7068136998 0.0
63 1 14.3928585674 17.2248136998 0.0
64 1 20.0180585674 18.8641136998 0.0
65 1 26.8283585674 19.3603136998 0.0
66 1 31.6511585674 19.1217136998 0.0
67 1 37.0331585674 19.5864136998 0.0
68 1 40.6253585674 21.7174136998 0.0
69 1 45.0114585674 20.8356136998 0.0
70 1 48.7474585674 19.0529136998 0.0
71 1 56.0522585674 20.1540136998 0.0
72 1 62.6661585674 18.9257136998 0.0
73 1 68.5884585674 19.6081136998 0.0
74 1 73.4547585674 19.2855136998 0.0
75 1 78.3503585674 18.6389136998 0.0
76 1 0.649178567379 23.1170136998 0.0
77 1 5.04971856738 20.9694136998 0.0
78 1 13.1595585674 21.2433136998 0.0
79 1 16.1267585674 21.6567136998 0.0
80 1 21.0112585674 24.0134136998 0.0
81 1 26.2848585674 24.4799136998 0.0
82 1 30.6817585674 26.8522136998 0.0
83 1 37.7308585674 25.4225136998 0.0
84 1 43.3499585674 26.2112136998 0.0
85 1 47.4973585674 25.0120136998 0.0
86 1 52.5268585674 24.0585136998 0.0
87 1 58.0183585674 22.4252136998 0.0
88 1 65.4156585674 22.8117136998 0.0
89 1 72.5729585674 23.8253136998 0.0
90 1 75.5830585674 23.6093136998 0.0
91 1 5.07027856738 26.2500136998 0.0
92 1 8.04974856738 26.5236136998 0.0
93 1 13.0189585674 26.9004136998 0.0
94 1 17.7086585674 26.9788136998 0.0
95 1 22.1931585674 26.7971136998 0.0
96 1 29.2122585674 29.4893136998 0.0
97 1 33.2057585674 28.5419136998 0.0
98 1 40.5448585674 31.6898136998 0.0
99 1 45.9233585674 30.7539136998 0.0
100 1 50.6601585674 29.0682136998 0.0
101 1 54.6623585674 26.1637136998 0.0
102 1 61.8494585674 26.5673136998 0.0
103 1 65.0027585674 30.0437136998 0.0
104 1 70.5362585674 28.5773136998 0.0
105 1 77.7365585674 28.1347136998 0.0
106 1 79.3853585674 30.6396136998 0.0
107 1 7.68660856738 30.9407136998 0.0
108 1 10.6687585674 31.3379136998 0.0
109 1 15.7097585674 31.7508136998 0.0
110 1 20.2812585674 34.1640136998 0.0
111 1 25.9093585674 33.1612136998 0.0
112 1 30.9188585674 31.9732136998 0.0
113 1 38.8658585674 34.1782136998 0.0
114 1 42.4355585674 38.1293136998 0.0
115 1 50.9822585674 33.7438136998 0.0
116 1 55.6029585674 31.3024136998 0.0
117 1 58.5867585674 30.9185136998 0.0
118 1 63.2593585674 32.4776136998 0.0
119 1 68.4509585674 33.0964136998 0.0
120 1 72.7716585674 30.5639136998 0.0
121 1 2.63114856738 36.3491136998 0.0
122 1 7.64069856738 36.3243136998 0.0
123 1 12.9370585674 36.2114136998 0.0
124 1 18.7387585674 36.7468136998 0.0
125 1 23.6658585674 37.5647136998 0.0
126 1 27.5746585674 35.7195136998 0.0
127 1 33.3646585674 38.7308136998 0.0
128 1 41.3260585674 40.9723136998 0.0
129 1 45.0870585674 41.9484136998 0.0
130 1 48.1495585674 39.9201136998 0.0
131 1 54.6427585674 36.7971136998 0.0
132 1 60.5485585674 36.3734136998 0.0
133 1 65.7780585674 37.2292136998 0.0
134 1 71.4714585674 36.2096136998 0.0
135 1 77.4650585674 35.9593136998 0.0
136 1 0.646394567379 40.7640136998 0.0
137 1 5.48444856738 40.9354136998 0.0
138 1 10.2266185674 42.3290136998 0.0
139 1 15.7487585674 40.2714136998 0.0
140 1 20.6770585674 41.8091136998 0.0
141 1 26.9697585674 41.5854136998 0.0
142 1 31.8363585674 41.3296136998 0.0
143 1 36.9350585674 44.4257136998 0.0
144 1 38.4586585674 41.8330136998 0.0
145 1 47.5243585674 45.8636136998 0.0
146 1 52.4302585674 42.3401136998 0.0
147 1 56.1516585674 39.4427136998 0.0
148 1 62.8726585674 43.5441136998 0.0
149 1 70.3567585674 40.0130136998 0.0
150 1 73.0543585674 38.7413136998 0.0
151 1 2.56452856738 45.6605136998 0.0
152 1 10.2669085674 45.2949136998 0.0
153 1 13.2034585674 44.7036136998 0.0
154 1 17.6602585674 45.4980136998 0.0
155 1 22.3020585674 44.3395136998 0.0
156 1 29.6811585674 46.2656136998 0.0
157 1 35.8100585674 51.2226136998 0.0
158 1 38.4306585674 49.7170136998 0.0
159 1 44.3132585674 49.0844136998 0.0
160 1 50.1417585674 47.3537136998 0.0
161 1 56.7924585674 48.1354136998 0.0
162 1 62.2647585674 46.5256136998 0.0
163 1 66.5954585674 46.0435136998 0.0
164 1 71.2992585674 44.2959136998 0.0
165 1 76.8986585674 44.2053136998 0.0
166 1 77.7994585674 48.5761136998 0.0
167 1 2.91444856738 50.5071136998 0.0
168 1 7.03916856738 49.7085136998 0.0
169 1 14.0178585674 51.2843136998 0.0
170 1 21.4455585674 51.7502136998 0.0
171 1 26.8104585674 49.7816136998 0.0
172 1 30.8947585674 49.0629136998 0.0
173 1 37.4000585674 55.4055136998 0.0
174 1 42.4380585674 52.9048136998 0.0
175 1 46.9660585674 50.5926136998 0.0
176 1 55.5322585674 50.9134136998 0.0
177 1 60.9130585674 51.1301136998 0.0
178 1 66.3978585674 50.8554136998 0.0
179 1 70.8364585674 49.3326136998 0.0
180 1 73.6615585674 48.3529136998 0.0
181 1 79.4444585674 53.7691136998 0.0
182 1 5.32624856738 54.6606136998 0.0
183 1 13.3908585674 54.1852136998 0.0
184 1 17.0186585674 51.3183136998 0.0
185 1 24.5326585674 54.5755136998 0.0
186 1 28.8927585674 54.7093136998 0.0
187 1 33.3151585674 56.6793136998 0.0
188 1 42.1992585674 60.1121136998 0.0
189 1 46.4218585674 56.0006136998 0.0
190 1 51.9296585674 54.9073136998 0.0
191 1 56.7990585674 57.5145136998 0.0
192 1 61.2231585674 57.2750136998 0.0
193 1 65.4690585674 54.7589136998 0.0
194 1 71.9806585674 53.4088136998 0.0
195 1 75.0333585674 53.6259136998 0.0
196 1 78.9819585674 58.3404136998 0.0
197 1 6.70588856738 57.2980136998 0.0
198 1 9.00759856738 55.3702136998 0.0
199 1 16.0274585674 57.1996136998 0.0
200 1 21.1420585674 57.6916136998 0.0
201 1 25.8679585674 59.6773136998 0.0
202 1 30.0141585674 60.3683136998 0.0
203 1 37.1518585674 58.3930136998 0.0
204 1 46.2011585674 61.0750136998 0.0
205 1 48.7624585674 59.5047136998 0.0
206 1 53.2623585674 60.2381136998 0.0
207 1 58.3973585674 60.0673136998 0.0
208 1 65.5939585674 60.1130136998 0.0
209 1 68.4383585674 59.2216136998 0.0
210 1 73.7283585674 61.1682136998 0.0
211 1 2.34917856738 62.4147136998 0.0
212 1 7.32483856738 62.1973136998 0.0
213 1 14.6311585674 61.8357136998 0.0
214 1 17.6621585674 61.8285136998 0.0
215 1 21.9642585674 64.8578136998 0.0
216 1 28.2849585674 68.0056136998 0.0
217 1 33.2398585674 64.8674136998 0.0
218 1 39.1934585674 64.9631136998 0.0
219 1 44.9459585674 66.5038136998 0.0
220 1 50.0945585674 64.7153136998 0.0
221 1 54.9508585674 65.8015136998 0.0
222 1 59.9172585674 68.1783136998 0.0
223 1 64.8164585674 65.1149136998 0.0
224 1 72.7354585674 64.0397136998 0.0
225 1 77.4297585674 63.1834136998 0.0
226 1 1.66768856738 67.2129136998 0.0
227 1 4.64157856738 66.9432136998 0.0
228 1 9.51256856738 67.2671136998 0.0
229 1 14.6991585674 66.5057136998 0.0
230 1 20.4210585674 67.4024136998 0.0
231 1 24.4010585674 66.5868136998 0.0
232 1 31.9230585674 70.0167136998 0.0
233 1 36.5052585674 68.4476136998 0.0
234 1 40.7678585674 67.5372136998 0.0
235 1 48.0560585674 69.7645136998 0.0
236 1 52.7212585674 72.0557136998 0.0
237 1 58.5033585674 70.8318136998 0.0
238 1 64.0781585674 70.0577136998 0.0
239 1 67.5483585674 66.4309136998 0.0
240 1 77.0486585674 67.9164136998 0.0
241 1 1.10029556738 72.2471136998 0.0
242 1 6.16914856738 71.7610136998 0.0
243 1 11.3643585674 69.6800136998 0.0
244 1 17.1216585674 70.6891136998 0.0
245 1 22.2482585674 72.1426136998 0.0
246 1 27.3163585674 70.9528136998 0.0
247 1 36.4455585674 73.3597136998 0.0
248 1 39.4039585674 72.9678136998 0.0
249 1 43.5594585674 72.0843136998 0.0
250 1 51.0808585674 74.5625136998 0.0
251 1 55.7383585674 74.8493136998 0.0
252 1 59.8246585674 73.5310136998 0.0
253 1 68.2703585674 72.1108136998 0.0
254 1 71.2394585674 71.8043136998 0.0
255 1 75.9277585674 72.5638136998 0.0
256 1 79.4627585674 2.65315369983 0.0
257 1 4.85947856738 1.93842369983 0.0
258 1 12.9225585674 2.10381369983 0.0
259 1 17.7438585674 79.9523136998 0.0
260 1 21.9290585674 2.16004369983 0.0
261 1 26.2888585674 2.38801369983 0.0
262 1 31.7276585674 1.49629369983 0.0
263 1 37.1843585674 3.50058369983 0.0
264 1 44.9363585674 3.98715369983 0.0
265 1 48.7973585674 1.91187369983 0.0
266 1 52.9317585674 5.64410369983 0.0
267 1 58.1379585674 4.70746369983 0.0
268 1 63.3364585674 3.00851369983 0.0
269 1 68.9775585674 2.16863369983 0.0
270 1 74.1111585674 2.42985369983 0.0
271 1 2.89325856738 6.76992369983 0.0
272 1 8.25978856738 5.19447369983 0.0
273 1 13.6439585674 5.07004369983 0.0
274 1 16.3514585674 6.44720369983 0.0
275 1 25.1379585674 5.20939369983 0.0
276 1 31.9256585674 8.53675369983 0.0
277 1 36.4196585674 8.05435369983 0.0
278 1 41.6057585674 6.87929369983 0.0
279 1 47.3060585674 5.87184369983 0.0
280 1 51.6558585674 10.8980136998 0.0
281 1 56.4988585674 9.60521369983 0.0
282 1 61.8380585674 7.87933369983 0.0
283 1 67.0914585674 6.16605369983 0.0
284 1 72.8607585674 5.15497369983 0.0
285 1 77.5693585674 7.57743369983 0.0
286 1 1.29022856738 11.3565136998 0.0
287 1 6.73664856738 10.4149136998 0.0
288 1 11.8023585674 7.49244369983 0.0
289 1 16.6028585674 9.45071369983 0.0
290 1 24.2930585674 13.8472136998 0.0
291 1 28.3242585674 11.7583136998 0.0
292 1 33.4531585674 11.1231136998 0.0
293 1 38.1984585674 13.4959136998 0.0
294 1 41.2232585674 13.6203136998 0.0
295 1 46.6614585674 13.4275136998 0.0
296 1 53.6945585674 13.1319136998 0.0
297 1 64.2463585674 15.3716136998 0.0
298 1 65.0318585674 12.5016136998 0.0
299 1 69.9278585674 10.5227136998 0.0
300 1 75.4548585674 11.8162136998 0.0
301 1 4.30151856738 15.3711136998 0.0
302 1 9.67799856738 14.2263136998 0.0
303 1 14.6310585674 14.2517136998 0.0
304 1 19.9898585674 15.8619136998 0.0
305 1 25.9172585674 16.4331136998 0.0
306 1 30.9988585674 16.1972136998 0.0
307 1 35.8311585674 15.3767136998 0.0
308 1 39.9187585674 18.8121136998 0.0
309 1 44.5650585674 17.8653136998 0.0
310 1 51.7022585674 18.5159136998 0.0
311 1 56.3761585674 17.1581136998 0.0
312 1 61.3519585674 16.2105136998 0.0
313 1 67.2430585674 15.7009136998 0.0
314 1 72.9364585674 16.3373136998 0.0
315 1 78.4725585674 15.6333136998 0.0
316 1 1.14777156738 20.1232136998 0.0
317 1 8.03908856738 21.0349136998 0.0
318 1 10.6533585674 19.5844136998 0.0
319 1 16.9916585674 18.7983136998 0.0
320 1 22.0028585674 21.1685136998 0.0
321 1 24.9695585674 21.7372136998 0.0
322 1 29.3504585674 21.0802136998 0.0
323 1 37.7350585674 22.4659136998 0.0
324 1 43.2069585674 23.2181136998 0.0
325 1 47.7839585674 21.9537136998 0.0
326 1 53.2055585674 21.1187136998 0.0
327 1 60.7792585674 21.2585136998 0.0
328 1 65.5686585674 19.8175136998 0.0
329 1 71.1380585674 21.1878136998 0.0
330 1 76.1173585674 20.6494136998 0.0
331 1 3.60821856738 23.6224136998 0.0
332 1 9.20943856738 23.7808136998 0.0
333 1 12.1813585674 24.0493136998 0.0
334 1 18.0076585674 24.0011136998 0.0
335 1 25.1587585674 27.3015136998 0.0
336 1 29.2855585674 24.1325136998 0.0
337 1 36.1241585674 27.9229136998 0.0
338 1 40.4061585674 26.7514136998 0.0
339 1 45.9668585674 27.6755136998 0.0
340 1 50.2932585674 26.0747136998 0.0
341 1 57.5642585674 25.4118136998 0.0
342 1 62.5421585674 23.6648136998 0.0
343 1 67.1777585674 25.2285136998 0.0
344 1 70.1636585674 25.6143136998 0.0
345 1 78.1780585674 25.1375136998 0.0
346 1 2.56585856738 30.6394136998 0.0
347 1 5.20221856738 29.2334136998 0.0
348 1 10.4216585674 28.3586136998 0.0
349 1 15.3293585674 28.7802136998 0.0
350 1 20.0239585674 28.8786136998 0.0
351 1 26.2751585674 30.1311136998 0.0
352 1 33.8825585674 31.4979136998 0.0
353 1 38.7982585674 29.2673136998 0.0
354 1 43.4201585674 32.5825136998 0.0
355 1 48.8847585674 31.5200136998 0.0
356 1 53.6675585674 29.0032136998 0.0
357 1 59.1913585674 27.9546136998 0.0
358 1 64.7992585674 27.0744136998 0.0
359 1 67.9918585674 30.1523136998 0.0
360 1 75.7544585674 30.3981136998 0.0
361 1 3.42176856738 33.4883136998 0.0
362 1 6.40182856738 33.6215136998 0.0
363 1 13.0566585674 33.1943136998 0.0
364 1 18.7234585674 31.5993136998 0.0
365 1 23.2585585674 34.5835136998 0.0
366 1 30.4863585674 34.9349136998 0.0
367 1 35.8065585674 33.8585136998 0.0
368 1 41.7507585674 35.1668136998 0.0
369 1 45.3140585674 38.9701136998 0.0
370 1 51.6398585674 36.6828136998 0.0
371 1 54.0136585674 33.8507136998 0.0
372 1 60.3823585674 33.3519136998 0.0
373 1 65.6804585674 34.2459136998 0.0
374 1 71.4403585674 33.2426136998 0.0
375 1 77.4161585674 32.9144136998 0.0
376 1 0.0432905673795 37.8086136998 0.0
377 1 5.13237856738 37.9738136998 0.0
378 1 10.2887585674 37.6915136998 0.0
379 1 15.7680585674 37.2742136998 0.0
380 1 20.9344585674 38.8156136998 0.0
381 1 26.5018585674 38.5689136998 0.0
382 1 33.4044585674 35.7246136998 0.0
383 1 35.9435585674 40.2339136998 0.0
384 1 42.6781585674 43.6841136998 0.0
385 1 47.9037585674 42.9028136998 0.0
386 1 51.1082585674 39.6303136998 0.0
387 1 59.1254585674 39.0230136998 0.0
388 1 62.9444585674 38.1979136998 0.0
389 1 68.7638585674 37.4921136998 0.0
390 1 76.0399585674 38.6163136998 0.0
391 1 3.00923856738 42.6612136998 0.0
392 1 8.36223856738 40.0310136998 0.0
393 1 13.1462585674 41.7275136998 0.0
394 1 17.7609585674 42.4991136998 0.0
395 1 25.2976585674 44.1048136998 0.0
396 1 29.5080585674 43.2311136998 0.0
397 1 34.4248585674 42.8145136998 0.0
398 1 36.5208585674 47.3945136998 0.0
399 1 44.5059585674 46.0893136998 0.0
400 1 52.3922585674 45.3445136998 0.0
401 1 55.4285585674 42.3922136998 0.0
402 1 61.5205585674 40.8430136998 0.0
403 1 65.8649585674 43.1512136998 0.0
404 1 68.8256585674 42.5682136998 0.0
405 1 77.4882585674 41.2630136998 0.0
406 1 79.3359585674 45.9847136998 0.0
407 1 4.53509856738 47.9887136998 0.0
408 1 9.63098856738 48.2023136998 0.0
409 1 15.0793585674 47.0086136998 0.0
410 1 20.4101585674 46.6822136998 0.0
411 1 26.7246585674 46.7679136998 0.0
412 1 33.9143585674 48.8986136998 0.0
413 1 34.7546585674 54.0346136998 0.0
414 1 41.4465585674 50.0781136998 0.0
415 1 50.0120585674 50.3632136998 0.0
416 1 55.4069585674 45.4263136998 0.0
417 1 59.8272585674 48.3067136998 0.0
418 1 64.6989585674 48.3370136998 0.0
419 1 69.5056585674 46.6775136998 0.0
420 1 74.1134585674 45.3676136998 0.0
421 1 79.7551585674 50.8040136998 0.0
422 1 7.59120856738 52.6985136998 0.0
423 1 12.5906585674 48.6860136998 0.0
424 1 19.4415585674 49.5319136998 0.0
425 1 24.4303585674 51.5884136998 0.0
426 1 29.2114585674 51.6236136998 0.0
427 1 34.3901585674 59.4949136998 0.0
428 1 40.3640585674 55.0615136998 0.0
429 1 45.4306585674 53.1737136998 0.0
430 1 52.6313585674 51.9416136998 0.0
431 1 58.8844585674 55.3635136998 0.0
432 1 58.1775585674 52.4297136998 0.0
433 1 63.7425585674 52.2946136998 0.0
434 1 69.3039585674 51.8940136998 0.0
435 1 75.6026585674 50.6387136998 0.0
436 1 77.2409585674 55.7871136998 0.0
437 1 2.60986856738 53.4822136998 0.0
438 1 11.7119585674 56.6708136998 0.0
439 1 16.3890585674 54.2444136998 0.0
440 1 21.5484585674 54.7345136998 0.0
441 1 26.6141585674 56.7201136998 0.0
442 1 30.3974585674 57.3404136998 0.0
443 1 40.0957585674 58.0317136998 0.0
444 1 44.7096585674 58.4812136998 0.0
445 1 49.3775585674 56.5473136998 0.0
446 1 53.8061585674 57.2748136998 0.0
447 1 61.3778585674 60.2879136998 0.0
448 1 64.1941585674 57.4532136998 0.0
449 1 68.0818585674 56.2357136998 0.0
450 1 71.0707585674 56.2500136998 0.0
451 1 2.13294856738 59.4269136998 0.0
452 1 5.22384856738 59.9106136998 0.0
453 1 13.6173585674 58.9908136998 0.0
454 1 18.4315585674 58.9400136998 0.0
455 1 22.8831585674 60.1240136998 0.0
456 1 27.5841585674 62.1787136998 0.0
457 1 32.6047585674 61.9123136998 0.0
458 1 41.4929585674 63.0196136998 0.0
459 1 44.4512585674 63.5438136998 0.0
460 1 50.6960585674 61.7725136998 0.0
461 1 54.7808585674 62.8192136998 0.0
462 1 57.7561585674 62.9742136998 0.0
463 1 63.6019585674 62.3442136998 0.0
464 1 71.4349585674 59.2223136998 0.0
465 1 76.6434585674 60.2963136998 0.0
466 1 0.280737847379 64.5605136998 0.0
467 1 4.92116856738 63.9647136998 0.0
468 1 9.68067856738 64.2091136998 0.0
469 1 12.7334585674 64.1860136998 0.0
470 1 20.6601585674 62.1737136998 0.0
471 1 27.0773585674 65.2113136998 0.0
472 1 31.1871585674 67.1147136998 0.0
473 1 36.2108585674 65.4619136998 0.0
474 1 43.3546585674 69.0563136998 0.0
475 1 47.9095585674 66.7684136998 0.0
476 1 52.1775585674 66.8616136998 0.0
477 1 57.9314585674 65.9477136998 0.0
478 1 62.8005585674 67.3511136998 0.0
479 1 70.5601585674 66.1437136998 0.0
480 1 75.4184585674 65.3890136998 0.0
481 1 79.5956585674 69.5306136998 0.0
482 1 6.94588856738 68.8507136998 0.0
483 1 14.3524585674 69.4970136998 0.0
484 1 17.4546585674 67.6937136998 0.0
485 1 22.8358585674 69.1730136998 0.0
486 1 30.0083585674 72.3198136998 0.0
487 1 34.7771585674 70.8741136998 0.0
488 1 39.0710585674 69.9883136998 0.0
489 1 46.5411585674 72.3545136998 0.0
490 1 51.0299585674 69.6146136998 0.0
491 1 55.6972585674 71.8569136998 0.0
492 1 62.7079585674 72.7298136998 0.0
493 1 66.9975585674 69.3951136998 0.0
494 1 71.8929585674 68.8656136998 0.0
495 1 74.7464585674 69.8045136998 0.0
496 1 78.5264585674 74.0741136998 0.0
497 1 3.79513856738 73.6061136998 0.0
498 1 8.50627856738 73.6358136998 0.0
499 1 11.3422585674 72.6956136998 0.0
500 1 19.2517585674 72.8765136998 0.0
501 1 25.1384585674 73.1360136998 0.0
502 1 31.8318585674 74.7321136998 0.0
503 1 34.6808585674 75.7578136998 0.0
504 1 41.9036585674 74.6219136998 0.0
505 1 48.1058585674 74.9091136998 0.0
506 1 53.2929585674 76.5683136998 0.0
507 1 58.4020585674 76.1833136998 0.0
508 1 64.0294585674 75.4095136998 0.0
509 1 66.9715585674 74.8129136998 0.0
510 1 73.3068585674 73.9938136998 0.0
511 1 4.49696856738 76.5579136998 0.0
512 1 9.57497856738 76.4299136998 0.0
513 1 15.1016585674 76.9611136998 0.0
514 1 19.9106585674 77.8224136998 0.0
515 1 25.5083585674 76.1845136998 0.0
516 1 30.8087585674 77.5381136998 0.0
517 1 36.1503585674 78.4028136998 0.0
518 1 41.7353585674 77.6541136998 0.0
519 1 47.3529585674 77.8071136998 0.0
520 1 52.8488585674 79.5215136998 0.0
521 1 57.6883585674 79.1136136998 0.0
522 1 62.9026585674 78.1924136998 0.0
523 1 68.2919585674 77.4919136998 0.0
524 1 73.9103585674 76.9352136998 0.0
525 1 79.0143585674 77.0371136998 0.0
526 1 1.98248856738 78.2255136998 0.0
527 1 7.09720856738 78.1264136998 0.0
528 1 12.4454585674 75.5045136998 0.0
529 1 17.8609585674 75.6010136998 0.0
530 1 22.9724585674 77.8584136998 0.0
531 1 27.8608585674 78.1727136998 0.0
532 1 33.2596585674 79.3211136998 0.0
533 1 39.1132585674 79.2255136998 0.0
534 1 44.5263585674 78.8649136998 0.0
535 1 49.8422585674 79.5225136998 0.0
536 1 55.4035585674 0.699033699834 0.0
537 1 60.5271585674 80.0588136998 0.0
538 1 65.7605585674 79.1068136998 0.0
539 1 71.2032585674 78.2127136998 0.0
540 1 76.4383585674 78.5881136998 0.0
541 2 2.01004856738 79.7310136998 0.0
542 2 3.46985856738 1.36770369983 0.0
543 2 0.866301567379 1.74025369983 0.0
544 2 7.37683856738 79.6069136998 0.0
545 2 6.21616856738 1.29543369983 0.0
546 2 8.82141856738 1.57991369983 0.0
547 2 14.7843585674 78.4536136998 0.0
548 2 16.2384585674 80.0364136998 0.0
549 2 13.7831585674 0.819363699834 0.0
550 2 18.2620585674 0.956643699834 0.0
551 2 20.4423585674 2.04825369983 0.0
552 2 18.8726585674 3.76796369983 0.0
553 2 23.6377585674 79.2248136998 0.0
554 2 25.2997585674 1.23517369983 0.0
555 2 23.0108585674 1.14801369983 0.0
556 2 28.2199585674 79.6666136998 0.0
557 2 30.2320585674 1.17292369983 0.0
558 2 27.6222585674 1.66737369983 0.0
559 2 32.8829585674 2.50400369983 0.0
560 2 35.6778585674 3.28991369983 0.0
561 2 33.9489585674 4.84903369983 0.0
562 2 39.4451585674 0.305733699834 0.0
563 2 40.8653585674 2.78071369983 0.0
564 2 38.3640585674 2.55353369983 0.0
565 2 47.3441585674 1.51340369983 0.0
566 2 45.0928585674 80.2756136998 0.0
567 2 45.3378585674 2.54440369983 0.0
568 2 48.7271585674 5.36402369983 0.0
569 2 49.5233585674 3.22971369983 0.0
570 2 51.4928585674 5.14615369983 0.0
571 2 55.3234585674 2.20638369983 0.0
572 2 54.0882585674 4.65761369983 0.0
573 2 56.7013585674 4.24789369983 0.0
574 2 60.4169585674 1.14626369983 0.0
575 2 61.8524585674 2.85304369983 0.0
576 2 59.2479585674 3.67016369983 0.0
577 2 64.6664585674 2.30757369983 0.0
578 2 67.4917585674 1.96578369983 0.0
579 2 65.8963585674 0.181673699834 0.0
580 2 71.4403585674 79.6887136998 0.0
581 2 70.2604585674 1.39842369983 0.0
582 2 72.9018585674 1.53079369983 0.0
583 2 76.6350585674 80.0817136998 0.0
584 2 78.1342585674 1.93128369983 0.0
585 2 75.4987585674 1.86664369983 0.0
586 2 79.6517585674 4.14969369983 0.0
587 2 78.6885585674 6.56983369983 0.0
588 2 1.48375856738 6.22108369983 0.0
589 2 4.98478856738 3.43141369983 0.0
590 2 6.75381856738 5.07577369983 0.0
591 2 4.08493856738 5.84241369983 0.0
592 2 11.3971585674 2.29697369983 0.0
593 2 9.17294856738 3.97763369983 0.0
594 2 17.7591585674 5.89703369983 0.0
595 2 20.6329585674 5.47384369983 0.0
596 2 23.6249585674 5.33369369983 0.0
597 2 22.1168585674 3.64306369983 0.0
598 2 25.6269585674 6.64484369983 0.0
599 2 27.5632585674 8.29150369983 0.0
600 2 25.4877585674 9.50801369983 0.0
601 2 35.1849585674 7.19973369983 0.0
602 2 32.8259585674 7.34376369983 0.0
603 2 37.9471585674 4.81310369983 0.0
604 2 40.1037585674 6.64371369983 0.0
605 2 37.6183585674 7.17065369983 0.0
606 2 41.8008585674 5.38015369983 0.0
607 2 43.4376585674 3.89773369983 0.0
608 2 47.0415585674 7.35040369983 0.0
609 2 47.6840585674 9.91841369983 0.0
610 2 45.1562585674 8.92637369983 0.0
611 2 53.2658585674 7.12357369983 0.0
612 2 55.0754585674 9.06931369983 0.0
613 2 52.5642585674 9.68051369983 0.0
614 2 58.4649585674 6.18048369983 0.0
615 2 60.3312585674 7.84257369983 0.0
616 2 57.6887585674 8.65844369983 0.0
617 2 63.6906585674 4.45572369983 0.0
618 2 65.5979585674 5.96803369983 0.0
619 2 62.9121585674 6.81055369983 0.0
620 2 69.4309585674 3.58720369983 0.0
621 2 71.3536585674 5.19542369983 0.0
622 2 68.4896585674 5.62654369983 0.0
623 2 73.7162585674 6.37806369983 0.0
624 2 76.0594585674 7.51981369983 0.0
625 2 73.6937585674 8.85035369983 0.0
626 2 5.26321856738 10.0141136998 0.0
627 2 3.33506856738 8.20960369983 0.0
628 2 2.55690856738 10.5332136998 0.0
629 2 8.51459856738 6.68065369983 0.0
630 2 7.83521856738 9.32951369983 0.0
631 2 10.3451585674 7.91099369983 0.0
632 2 12.7215585674 8.68870369983 0.0
633 2 15.1200585674 9.78841369983 0.0
634 2 12.8195585674 11.1768136998 0.0
635 2 18.1964585674 12.6824136998 0.0
636 2 17.8601585674 10.3075136998 0.0
637 2 20.3205585674 12.0669136998 0.0
638 2 26.8618585674 11.4396136998 0.0
639 2 24.7970585674 12.4109136998 0.0
640 2 30.4278585674 8.54075369983 0.0
641 2 28.8390585674 10.3523136998 0.0
642 2 34.9541585674 11.1180136998 0.0
643 2 37.4100585674 12.2009136998 0.0
644 2 36.5632585674 9.54251369983 0.0
645 2 43.6679585674 10.6633136998 0.0
646 2 42.5236585674 12.8570136998 0.0
647 2 45.2473585674 12.8386136998 0.0
648 2 42.5980585674 8.03941369983 0.0
649 2 50.1389585674 11.0081136998 0.0
650 2 47.7255585674 12.3407136998 0.0
651 2 56.7199585674 11.1057136998 0.0
652 2 55.1859585674 12.8883136998 0.0
653 2 57.7150585674 13.7518136998 0.0
654 2 64.4316585674 11.1399136998 0.0
655 2 62.9583585674 8.90894369983 0.0
656 2 65.7480585674 9.36801369983 0.0
657 2 67.2533585674 7.64618369983 0.0
658 2 68.6315585674 9.73501369983 0.0
659 2 74.1349585674 11.0845136998 0.0
660 2 71.4306585674 10.3431136998 0.0
661 2 77.9400585674 9.03281369983 0.0
662 2 76.8384585674 11.2081136998 0.0
663 2 79.6328585674 10.9353136998 0.0
664 2 0.0551095673795 15.0036136998 0.0
665 2 2.86728856738 14.8619136998 0.0
666 2 1.38471856738 12.8573136998 0.0
667 2 6.74989856738 11.9467136998 0.0
668 2 8.19735856738 13.9200136998 0.0
669 2 5.53130856738 14.4473136998 0.0
670 2 13.3971585674 13.4174136998 0.0
671 2 10.8435585674 13.2403136998 0.0
672 2 16.1168585674 14.0722136998 0.0
673 2 18.6581585674 15.1297136998 0.0
674 2 20.7855585674 14.5919136998 0.0
675 2 22.8249585674 13.4946136998 0.0
676 2 29.6791585674 15.5077136998 0.0
677 2 28.4687585674 13.2500136998 0.0
678 2 27.1785585674 15.6088136998 0.0
679 2 33.1070585674 12.5874136998 0.0
680 2 34.5164585674 14.6446136998 0.0
681 2 32.0657585674 15.1395136998 0.0
682 2 35.7145585674 18.9204136998 0.0
683 2 35.1949585674 16.7466136998 0.0
684 2 33.1197585674 18.7282136998 0.0
685 2 41.5473585674 15.0943136998 0.0
686 2 40.8269585674 17.6291136998 0.0
687 2 43.2367585674 17.1740136998 0.0
688 2 47.0224585674 14.9106136998 0.0
689 2 48.0362585674 17.6989136998 0.0
690 2 45.8354585674 17.0808136998 0.0
691 2 53.4750585674 14.6296136998 0.0
692 2 54.9679585674 16.6260136998 0.0
693 2 52.5356585674 17.2573136998 0.0
694 2 57.5109585674 16.1679136998 0.0
695 2 59.9746585674 15.5677136998 0.0
696 2 66.5366585674 12.4807136998 0.0
697 2 67.7438585674 14.2803136998 0.0
698 2 69.1180585674 11.8107136998 0.0
699 2 68.6039585674 16.3181136998 0.0
700 2 71.4142585674 16.4710136998 0.0
701 2 69.3458585674 18.3140136998 0.0
702 2 75.4544585674 13.3147136998 0.0
703 2 77.0175585674 15.2027136998 0.0
704 2 74.2139585674 15.5286136998 0.0
705 2 4.03764856738 16.8880136998 0.0
706 2 4.43528856738 19.6035136998 0.0
707 2 2.32063856738 19.1706136998 0.0
708 2 10.8831585674 18.1136136998 0.0
709 2 10.4816585674 15.5185136998 0.0
710 2 12.8860585674 17.0564136998 0.0
711 2 14.5620585674 15.7390136998 0.0
712 2 15.6885585674 18.0083136998 0.0
713 2 20.1765585674 17.3501136998 0.0
714 2 21.0435585674 19.9835136998 0.0
715 2 18.5019585674 18.8321136998 0.0
716 2 26.3068585674 17.9167136998 0.0
717 2 25.8468585674 20.5121136998 0.0
718 2 28.1307585674 20.1656136998 0.0
719 2 30.5926585674 20.1895136998 0.0
720 2 31.2225585674 17.6690136998 0.0
721 2 38.4247585674 19.0088136998 0.0
722 2 37.1718585674 21.0851136998 0.0
723 2 40.4459585674 20.2224136998 0.0
724 2 41.8703585674 22.5314136998 0.0
725 2 39.2180585674 22.2152136998 0.0
726 2 44.7375585674 19.3625136998 0.0
727 2 46.3902585674 21.3961136998 0.0
728 2 44.1230585674 22.0392136998 0.0
729 2 50.2234585674 18.7352136998 0.0
730 2 48.4059585674 20.5407136998 0.0
731 2 56.3203585674 18.6696136998 0.0
732 2 57.0292585674 21.2935136998 0.0
733 2 54.6429585674 20.6763136998 0.0
734 2 61.9195585674 17.6211136998 0.0
735 2 64.1618585674 19.2392136998 0.0
736 2 61.6637585674 20.0497136998 0.0
737 2 69.7597585674 20.5785136998 0.0
738 2 67.0746585674 19.6150136998 0.0
739 2 73.2644585674 17.8062136998 0.0
740 2 74.7963585674 19.9404136998 0.0
741 2 72.2713585674 20.1978136998 0.0
742 2 78.4076585674 17.1424136998 0.0
743 2 77.2350585674 19.6495136998 0.0
744 2 79.6581585674 19.3606136998 0.0
745 2 2.11235856738 23.5036136998 0.0
746 2 0.847773567379 21.6116136998 0.0
747 2 79.3375585674 24.1533136998 0.0
748 2 6.55194856738 20.9441136998 0.0
749 2 4.33796856738 22.2997136998 0.0
750 2 12.7337585674 22.6778136998 0.0
751 2 11.9523585674 20.3573136998 0.0
752 2 14.6440585674 21.4216136998 0.0
753 2 16.6217585674 20.2514136998 0.0
754 2 17.0353585674 22.8556136998 0.0
755 2 21.6574585674 25.3791136998 0.0
756 2 21.5092585674 22.5951136998 0.0
757 2 19.5069585674 23.9529136998 0.0
758 2 25.5672585674 23.1356136998 0.0
759 2 27.7898585674 24.3528136998 0.0
760 2 25.7585585674 25.9020136998 0.0
761 2 30.0913585674 25.4442136998 0.0
762 2 32.0217585674 27.5997136998 0.0
763 2 29.8463585674 28.1239136998 0.0
764 2 36.7717585674 26.5654136998 0.0
765 2 39.1495585674 25.9244136998 0.0
766 2 37.5388585674 23.9421136998 0.0
767 2 43.3747585674 24.6998136998 0.0
768 2 44.5889585674 27.0347136998 0.0
769 2 41.8839585674 26.5405136998 0.0
770 2 47.6501585674 23.4792136998 0.0
771 2 48.9079585674 25.5269136998 0.0
772 2 46.7339585674 26.3439136998 0.0
773 2 52.7927585674 22.5736136998 0.0
774 2 53.6552585674 25.0546136998 0.0
775 2 51.3523585674 25.0022136998 0.0
776 2 59.3764585674 21.7782136998 0.0
777 2 57.8247585674 23.9220136998 0.0
778 2 65.5280585674 21.3248136998 0.0
779 2 66.4177585674 23.9275136998 0.0
780 2 63.9930585674 23.2886136998 0.0
781 2 71.4091585674 24.7846136998 0.0
782 2 71.8094585674 22.5267136998 0.0
783 2 74.0837585674 23.8449136998 0.0
784 2 76.8366585674 24.4398136998 0.0
785 2 75.9274585674 22.1386136998 0.0
786 2 4.98653856738 27.7513136998 0.0
787 2 4.29849856738 24.9658136998 0.0