# input file

1350 atoms
2 atom types

0.0 77.2603423772 xlo xhi
0.0 82.8611609518 ylo yhi
-10.0 10.0 zlo zhi
0.0 0.0 0.0 xy xz yz

Masses

1 28.0855 #Si
2 15.9994 #O

Atoms

1 1 3.36281896545 3.01451047589 0.0
2 1 10.0860089655 2.18583047589 0.0
3 1 13.0668089655 2.46952047589 0.0
4 1 20.7091089655 3.30485047589 0.0
5 1 24.8636089655 1.26043047589 0.0
6 1 30.1240089655 82.6034804759 0.0
7 1 34.3246089655 2.71547047589 0.0
8 1 40.2487089655 82.2137804759 0.0
9 1 43.2334089655 81.8431804759 0.0
10 1 47.9557089655 80.7975804759 0.0
11 1 54.3552089655 0.301396475888 0.0
12 1 59.3686089655 1.24393847589 0.0
13 1 64.2262089655 2.38031047589 0.0
14 1 69.0443089655 2.18682047589 0.0
15 1 74.5399089655 2.75498047589 0.0
16 1 75.4951089655 5.60396047589 0.0
17 1 6.17623896545 7.39511047589 0.0
18 1 9.08860896545 8.03984047589 0.0
19 1 14.3821089655 7.51406047589 0.0
20 1 18.1513089655 4.90793047589 0.0
21 1 28.7854089655 4.49752047589 0.0
22 1 32.9193089655 7.16194047589 0.0
23 1 39.0359089655 6.12082047589 0.0
24 1 41.6479089655 4.66027047589 0.0
25 1 46.4200089655 3.24335047589 0.0
26 1 51.2062089655 4.07742047589 0.0
27 1 56.1933089655 5.25752047589 0.0
28 1 60.7589089655 7.98621047589 0.0
29 1 68.1423089655 6.68586047589 0.0
30 1 71.1394089655 6.55182047589 0.0
31 1 77.1699089655 11.0651804759 0.0
32 1 4.57006896545 11.9989804759 0.0
33 1 9.88570896545 10.9960804759 0.0
34 1 17.9155089655 10.7272804759 0.0
35 1 27.2784089655 8.65387047589 0.0
36 1 30.2889089655 8.63165047589 0.0
37 1 34.6366089655 11.2380804759 0.0
38 1 39.9168089655 11.8107804759 0.0
39 1 46.5514089655 7.81258047589 0.0
40 1 49.0155089655 12.1101804759 0.0
41 1 53.9495089655 9.26776047589 0.0
42 1 59.1320089655 10.4939804759 0.0
43 1 63.0736089655 14.3551804759 0.0
44 1 67.9429089655 11.8356804759 0.0
45 1 73.0823089655 11.0570804759 0.0
46 1 75.7791089655 16.2392804759 0.0
47 1 3.21363896545 15.9861804759 0.0
48 1 8.85668896545 16.9611804759 0.0
49 1 14.0538089655 14.6785804759 0.0
50 1 20.3902089655 14.7073804759 0.0
51 1 23.7213089655 11.9814804759 0.0
52 1 31.1646089655 14.2178804759 0.0
53 1 36.8712089655 15.8455804759 0.0
54 1 41.5107089655 14.4030804759 0.0
55 1 49.3292089655 15.1108804759 0.0
56 1 53.3357089655 14.2078804759 0.0
57 1 56.3275089655 14.3164804759 0.0
58 1 60.7593089655 16.2722804759 0.0
59 1 68.2168089655 16.2917804759 0.0
60 1 71.1938089655 15.9380804759 0.0
61 1 1.84221896545 20.8979804759 0.0
62 1 7.32347896545 19.6390804759 0.0
63 1 13.8200089655 18.9337804759 0.0
64 1 16.0097089655 16.9370804759 0.0
65 1 23.6354089655 17.9010804759 0.0
66 1 28.1498089655 17.3088804759 0.0
67 1 33.1092089655 18.4251804759 0.0
68 1 38.6192089655 19.8275804759 0.0
69 1 45.8989089655 21.2896804759 0.0
70 1 47.1428089655 18.5735804759 0.0
71 1 49.7823089655 20.0307804759 0.0
72 1 57.3677089655 19.9960804759 0.0
73 1 62.7750089655 21.1587804759 0.0
74 1 68.1618089655 23.0458804759 0.0
75 1 73.8668089655 21.0559804759 0.0
76 1 0.0179889654512 25.5476804759 0.0
77 1 4.95946896545 24.5533804759 0.0
78 1 9.87610896545 24.4950804759 0.0
79 1 14.6560089655 23.9630804759 0.0
80 1 22.3474089655 22.1139804759 0.0
81 1 25.3278089655 22.3936804759 0.0
82 1 30.9509089655 22.3427804759 0.0
83 1 33.9501089655 22.5140804759 0.0
84 1 38.1752089655 22.8726804759 0.0
85 1 44.8244089655 25.9526804759 0.0
86 1 49.7399089655 25.4696804759 0.0
87 1 55.3919089655 24.9436804759 0.0
88 1 60.6624089655 24.6363804759 0.0
89 1 66.2100089655 25.3857804759 0.0
90 1 71.4501089655 25.3797804759 0.0
91 1 2.70984896545 29.7448804759 0.0
92 1 9.15740896545 28.7424804759 0.0
93 1 12.1628089655 28.9811804759 0.0
94 1 18.3878089655 27.5579804759 0.0
95 1 21.3656089655 27.3565804759 0.0
96 1 25.8927089655 27.9867804759 0.0
97 1 30.8611089655 27.7732804759 0.0
98 1 34.3729089655 30.1569804759 0.0
99 1 42.2342089655 29.9916804759 0.0
100 1 49.4512089655 29.6065804759 0.0
101 1 51.7459089655 27.6875804759 0.0
102 1 58.5586089655 29.1869804759 0.0
103 1 63.1586089655 31.1915804759 0.0
104 1 70.6232089655 29.1994804759 0.0
105 1 73.2381089655 27.7758804759 0.0
106 1 76.6011089655 34.1993804759 0.0
107 1 5.72360896545 34.6339804759 0.0
108 1 8.71146896545 34.3871804759 0.0
109 1 15.8672089655 33.4733804759 0.0
110 1 18.8474089655 33.1322804759 0.0
111 1 23.6090089655 32.6141804759 0.0
112 1 28.1779089655 34.5981804759 0.0
113 1 33.3373089655 32.9757804759 0.0
114 1 36.9850089655 31.5840804759 0.0
115 1 43.7094089655 32.5880804759 0.0
116 1 50.1367089655 35.3815804759 0.0
117 1 55.3789089655 33.8598804759 0.0
118 1 61.5259089655 33.7182804759 0.0
119 1 66.2032089655 34.5844804759 0.0
120 1 71.2591089655 33.8965804759 0.0
121 1 0.905578965451 39.5727804759 0.0
122 1 5.84498896545 39.7731804759 0.0
123 1 12.3769089655 38.9800804759 0.0
124 1 15.3181089655 38.4232804759 0.0
125 1 20.7259089655 37.7661804759 0.0
126 1 27.0273089655 37.3562804759 0.0
127 1 32.3647089655 37.7768804759 0.0
128 1 37.5587089655 36.9595804759 0.0
129 1 42.7359089655 39.4678804759 0.0
130 1 47.7831089655 41.3063804759 0.0
131 1 53.0411089655 38.8837804759 0.0
132 1 56.6960089655 36.6312804759 0.0
133 1 63.5117089655 40.5802804759 0.0
134 1 69.1740089655 38.7134804759 0.0
135 1 72.7512089655 40.9319804759 0.0
136 1 76.4625089655 44.2146804759 0.0
137 1 4.11762896545 44.3010804759 0.0
138 1 8.75402896545 44.5986804759 0.0
139 1 13.3094089655 43.9431804759 0.0
140 1 18.1672089655 42.4282804759 0.0
141 1 22.2415089655 40.4060804759 0.0
142 1 29.6503089655 43.5593804759 0.0
143 1 36.6404089655 41.4495804759 0.0
144 1 42.1984089655 42.4349804759 0.0
145 1 46.5479089655 44.0615804759 0.0
146 1 51.4579089655 43.8508804759 0.0
147 1 56.6663089655 42.6203804759 0.0
148 1 62.1199089655 43.2466804759 0.0
149 1 67.3156089655 43.0328804759 0.0
150 1 71.2701089655 45.5326804759 0.0
151 1 1.95980896545 48.9222804759 0.0
152 1 7.10184896545 49.2420804759 0.0
153 1 12.4921089655 48.9509804759 0.0
154 1 19.5441089655 48.7249804759 0.0
155 1 24.0688089655 47.6267804759 0.0
156 1 28.9796089655 46.4580804759 0.0
157 1 32.4869089655 44.4979804759 0.0
158 1 39.4192089655 48.3321804759 0.0
159 1 43.1998089655 50.7306804759 0.0
160 1 51.6202089655 49.5541804759 0.0
161 1 56.9166089655 48.4839804759 0.0
162 1 59.6785089655 47.2743804759 0.0
163 1 64.5470089655 47.6554804759 0.0
164 1 69.8028089655 48.1269804759 0.0
165 1 74.5298089655 49.1085804759 0.0
166 1 77.1683089655 53.8230804759 0.0
167 1 4.93628896545 53.5270804759 0.0
168 1 8.66118896545 51.8116804759 0.0
169 1 15.1563089655 50.3380804759 0.0
170 1 22.6807089655 50.2692804759 0.0
171 1 29.3114089655 50.5194804759 0.0
172 1 32.3461089655 50.3426804759 0.0
173 1 38.1407089655 51.0639804759 0.0
174 1 46.2425089655 50.4634804759 0.0
175 1 50.9894089655 52.5168804759 0.0
176 1 55.7036089655 53.9552804759 0.0
177 1 59.4366089655 53.5432804759 0.0
178 1 63.3317089655 52.0121804759 0.0
179 1 68.0916089655 52.1019804759 0.0
180 1 72.3511089655 55.7731804759 0.0
181 1 3.11586896545 58.1948804759 0.0
182 1 8.49159896545 57.5437804759 0.0
183 1 13.9831089655 56.3002804759 0.0
184 1 20.2872089655 54.8464804759 0.0
185 1 23.2827089655 55.0645804759 0.0
186 1 28.9489089655 56.7141804759 0.0
187 1 34.4836089655 54.5071804759 0.0
188 1 39.9746089655 55.5765804759 0.0
189 1 46.4939089655 55.5091804759 0.0
190 1 53.9634089655 57.7051804759 0.0
191 1 58.9835089655 58.8298804759 0.0
192 1 63.1058089655 57.6177804759 0.0
193 1 66.0008089655 56.8753804759 0.0
194 1 70.8925089655 58.3785804759 0.0
195 1 0.116548965451 58.3511804759 0.0
196 1 0.669178965451 63.0195804759 0.0
197 1 5.86219896545 62.2267804759 0.0
198 1 10.9432089655 61.0647804759 0.0
199 1 16.1337089655 60.9027804759 0.0
200 1 20.8300089655 60.7174804759 0.0
201 1 28.7073089655 59.6907804759 0.0
202 1 31.5936089655 58.9733804759 0.0
203 1 36.3518089655 59.0791804759 0.0
204 1 41.2195089655 58.3667804759 0.0
205 1 45.6675089655 62.4492804759 0.0
206 1 51.5225089655 61.8094804759 0.0
207 1 56.8423089655 62.7774804759 0.0
208 1 62.9253089655 63.0062804759 0.0
209 1 68.0061089655 62.1468804759 0.0
210 1 72.8093089655 65.2807804759 0.0
211 1 3.41231896545 67.1249804759 0.0
212 1 8.71197896545 66.1694804759 0.0
213 1 13.9867089655 65.4655804759 0.0
214 1 17.7012089655 68.3444804759 0.0
215 1 24.8700089655 64.9039804759 0.0
216 1 27.8873089655 64.5643804759 0.0
217 1 32.9964089655 63.6513804759 0.0
218 1 37.6891089655 61.7494804759 0.0
219 1 43.7056089655 64.7193804759 0.0
220 1 48.9461089655 65.6077804759 0.0
221 1 54.2787089655 66.5254804759 0.0
222 1 58.4921089655 65.3328804759 0.0
223 1 66.1553089655 67.1241804759 0.0
224 1 71.8621089655 68.1251804759 0.0
225 1 0.370248965451 67.5433804759 0.0
226 1 0.388848965451 73.8493804759 0.0
227 1 8.04841896545 70.5908804759 0.0
228 1 11.0676089655 70.2417804759 0.0
229 1 16.1550089655 70.9989804759 0.0
230 1 20.9634089655 71.2464804759 0.0
231 1 25.8583089655 69.8068804759 0.0
232 1 32.9987089655 67.7894804759 0.0
233 1 36.0319089655 67.1989804759 0.0
234 1 40.6514089655 69.7269804759 0.0
235 1 47.6455089655 69.0488804759 0.0
236 1 50.4369089655 70.1042804759 0.0
237 1 56.5394089655 70.9174804759 0.0
238 1 62.1627089655 70.9593804759 0.0
239 1 67.7759089655 71.4478804759 0.0
240 1 72.9863089655 73.1394804759 0.0
241 1 2.37752896545 76.1012804759 0.0
242 1 9.33620896545 75.9020804759 0.0
243 1 13.4950089655 77.8784804759 0.0
244 1 20.1595089655 75.4258804759 0.0
245 1 23.1357089655 74.9455804759 0.0
246 1 28.0805089655 73.9161804759 0.0
247 1 33.2063089655 73.1683804759 0.0
248 1 40.3606089655 72.7331804759 0.0
249 1 43.1441089655 73.8627804759 0.0
250 1 48.3127089655 73.9065804759 0.0
251 1 54.8203089655 75.8816804759 0.0
252 1 59.7825089655 76.8096804759 0.0
253 1 65.1479089655 75.3463804759 0.0
254 1 70.1494089655 76.4988804759 0.0
255 1 75.2824089655 78.2557804759 0.0
256 1 1.22505896545 5.22016047589 0.0
257 1 6.02194896545 4.42493047589 0.0
258 1 8.97786896545 4.98985047589 0.0
259 1 15.1519089655 4.61957047589 0.0
260 1 23.6640089655 4.02497047589 0.0
261 1 27.8348089655 1.66518047589 0.0
262 1 33.1170089655 82.8304804759 0.0
263 1 37.1596089655 3.76738047589 0.0
264 1 39.7811089655 2.30774047589 0.0
265 1 45.9877089655 0.241847575888 0.0
266 1 51.4448089655 0.989926475888 0.0
267 1 56.5683089655 2.29450047589 0.0
268 1 61.4059089655 3.41754047589 0.0
269 1 66.7084089655 4.05299047589 0.0
270 1 71.6736089655 3.60366047589 0.0
271 1 0.959438965451 8.23605047589 0.0
272 1 3.79031896545 9.14576047589 0.0
273 1 12.7568089655 10.0472304759 0.0
274 1 17.3717089655 7.79530047589 0.0
275 1 26.0905089655 5.87785047589 0.0
276 1 31.8134089655 4.38391047589 0.0
277 1 35.6529089655 8.43863047589 0.0
278 1 38.6118089655 9.07930047589 0.0
279 1 44.5197089655 5.57051047589 0.0
280 1 48.4846089655 5.43995047589 0.0
281 1 53.3556089655 6.27326047589 0.0
282 1 59.1958089655 5.45499047589 0.0
283 1 63.5225089655 9.11017047589 0.0
284 1 66.5196089655 9.19536047589 0.0
285 1 73.7196089655 8.08379047589 0.0
286 1 75.1255089655 13.2619804759 0.0
287 1 1.89832896545 13.2999804759 0.0
288 1 5.89699896545 14.6455804759 0.0
289 1 15.1332089655 11.8820804759 0.0
290 1 20.7315089655 11.7415804759 0.0
291 1 26.6975089655 11.6211804759 0.0
292 1 31.6518089655 11.2847804759 0.0
293 1 37.1291089655 12.8827804759 0.0
294 1 44.4094089655 13.3683804759 0.0
295 1 46.2424089655 10.8813804759 0.0
296 1 51.9591089655 11.5198804759 0.0
297 1 56.2387089655 11.2801804759 0.0
298 1 61.8943089655 11.6212804759 0.0
299 1 66.0815089655 14.1798804759 0.0
300 1 70.7464089655 12.9409804759 0.0
301 1 0.993748965451 17.9943804759 0.0
302 1 8.79821896545 13.9003804759 0.0
303 1 11.8387089655 16.7006804759 0.0
304 1 18.9560089655 17.3253804759 0.0
305 1 23.3642089655 14.9435804759 0.0
306 1 28.1596089655 14.2925804759 0.0
307 1 33.8662089655 15.5541804759 0.0
308 1 39.6894089655 16.9351804759 0.0
309 1 46.3777089655 15.6718804759 0.0
310 1 51.8448089655 16.8076804759 0.0
311 1 52.7711089655 19.7081804759 0.0
312 1 57.8216089655 16.9700804759 0.0
313 1 63.0415089655 18.1919804759 0.0
314 1 66.0221089655 18.2999804759 0.0
315 1 73.3740089655 18.0491804759 0.0
316 1 76.5495089655 22.5703804759 0.0
317 1 4.84701896545 21.4919804759 0.0
318 1 9.70380896545 21.5053804759 0.0
319 1 12.7063089655 21.6854804759 0.0
320 1 21.0661089655 19.4233804759 0.0
321 1 26.1352089655 19.5185804759 0.0
322 1 30.2924089655 19.4150804759 0.0
323 1 35.6240089655 20.0263804759 0.0
324 1 40.8286089655 24.2694804759 0.0
325 1 43.6244089655 23.2081804759 0.0
326 1 48.5250089655 22.7341804759 0.0
327 1 54.9591089655 21.8658804759 0.0
328 1 59.8361089655 21.7519804759 0.0
329 1 65.7626089655 21.2693804759 0.0
330 1 71.1425089655 22.4118804759 0.0
331 1 2.80870896545 26.6940804759 0.0
332 1 7.45922896545 26.2489804759 0.0
333 1 12.4779089655 26.0056804759 0.0
334 1 17.5616089655 24.6899804759 0.0
335 1 20.5459089655 24.4820804759 0.0
336 1 26.6298089655 25.0870804759 0.0
337 1 29.6231089655 25.0351804759 0.0
338 1 35.8172089655 24.8438804759 0.0
339 1 42.0323089655 27.0094804759 0.0
340 1 47.4477089655 27.3952804759 0.0
341 1 54.7295089655 27.9577804759 0.0
342 1 58.1136089655 26.2089804759 0.0
343 1 63.2586089655 26.1641804759 0.0
344 1 68.8195089655 26.8304804759 0.0
345 1 76.1664089655 28.3797804759 0.0
346 1 0.0518889654512 31.1995804759 0.0
347 1 4.98183896545 31.7283804759 0.0
348 1 7.96952896545 31.4840804759 0.0
349 1 14.5913089655 30.7684804759 0.0
350 1 17.5675089655 30.4117804759 0.0
351 1 23.3542089655 29.6050804759 0.0
352 1 28.4209089655 29.6041804759 0.0
353 1 33.8552089655 27.1982804759 0.0
354 1 39.9329089655 31.8826804759 0.0
355 1 46.4213089655 33.8136804759 0.0
356 1 49.1300089655 32.5719804759 0.0
357 1 55.9785089655 30.7867804759 0.0
358 1 61.5472089655 28.6691804759 0.0
359 1 66.1366089655 31.6026804759 0.0
360 1 69.1396089655 31.7682804759 0.0
361 1 1.25516896545 36.5778804759 0.0
362 1 4.21741896545 37.2159804759 0.0
363 1 11.0410089655 36.2943804759 0.0
364 1 13.9765089655 35.7543804759 0.0
365 1 21.4064089655 34.7601804759 0.0
366 1 26.6072089655 32.0482804759 0.0
367 1 31.1556089655 35.0175804759 0.0
368 1 35.9827089655 34.3965804759 0.0
369 1 41.3981089655 34.4874804759 0.0
370 1 47.4126089655 36.6303804759 0.0
371 1 53.0882089655 35.8494804759 0.0
372 1 59.6297089655 36.0409804759 0.0
373 1 63.5546089655 35.9121804759 0.0
374 1 68.9315089655 35.7608804759 0.0
375 1 73.8197089655 35.4631804759 0.0
376 1 75.7272089655 41.3166804759 0.0
377 1 3.32395896545 41.3940804759 0.0
378 1 8.25336896545 41.6282804759 0.0
379 1 11.2600089655 41.7351804759 0.0
380 1 18.1653089655 39.3976804759 0.0
381 1 25.1763089655 39.7213804759 0.0
382 1 29.5919089655 38.9152804759 0.0
383 1 35.1990089655 38.8187804759 0.0
384 1 40.5531089655 37.3706804759 0.0
385 1 45.7294089655 39.1119804759 0.0
386 1 50.7829089655 40.9139804759 0.0
387 1 55.9629089655 39.6184804759 0.0
388 1 61.6827089655 38.2206804759 0.0
389 1 66.5060089655 40.1551804759 0.0
390 1 72.1314089655 38.0077804759 0.0
391 1 1.63280896545 45.9493804759 0.0
392 1 6.33523896545 46.3354804759 0.0
393 1 11.3209089655 46.1785804759 0.0
394 1 16.2134089655 44.7439804759 0.0
395 1 21.0672089655 43.2240804759 0.0
396 1 27.7468089655 41.2624804759 0.0
397 1 35.4488089655 44.1872804759 0.0
398 1 39.2446089655 42.9277804759 0.0
399 1 43.6944089655 45.0612804759 0.0
400 1 49.0640089655 45.6975804759 0.0
401 1 54.3679089655 44.6355804759 0.0
402 1 59.2616089655 44.2532804759 0.0
403 1 64.7781089655 44.6650804759 0.0
404 1 70.3114089655 42.7115804759 0.0
405 1 74.1899089655 46.1444804759 0.0
406 1 76.9436089655 50.8484804759 0.0
407 1 4.44002896545 50.5815804759 0.0
408 1 11.6333089655 51.8059804759 0.0
409 1 16.7148089655 47.7434804759 0.0
410 1 21.3878089655 46.2633804759 0.0
411 1 26.9343089655 48.6107804759 0.0
412 1 31.8170089655 47.4045804759 0.0
413 1 38.0362089655 45.6734804759 0.0
414 1 42.3906089655 47.8137804759 0.0
415 1 48.7145089655 48.6872804759 0.0
416 1 54.0170089655 47.6539804759 0.0
417 1 57.3268089655 51.4462804759 0.0
418 1 62.0083089655 49.2562804759 0.0
419 1 67.0607089655 49.2854804759 0.0
420 1 71.8207089655 50.3387804759 0.0
421 1 2.52798896545 55.2640804759 0.0
422 1 7.69897896545 54.6487804759 0.0
423 1 14.2523089655 53.2536804759 0.0
424 1 20.0735089655 51.7498804759 0.0
425 1 24.6893089655 52.4252804759 0.0
426 1 27.6004089655 52.9604804759 0.0
427 1 35.1275089655 51.5678804759 0.0
428 1 40.7615089655 52.6173804759 0.0
429 1 47.9929089655 52.9059804759 0.0
430 1 52.8795089655 54.8731804759 0.0
431 1 57.8342089655 56.0552804759 0.0
432 1 62.1390089655 54.7663804759 0.0
433 1 65.7079089655 53.8692804759 0.0
434 1 70.8847089655 53.1662804759 0.0
435 1 75.3219089655 56.1579804759 0.0
436 1 75.8226089655 60.8915804759 0.0
437 1 5.95762896545 59.2154804759 0.0
438 1 11.4719089655 58.0728804759 0.0
439 1 16.5524089655 57.9238804759 0.0
440 1 19.5884089655 57.8523804759 0.0
441 1 26.2045089655 55.6212804759 0.0
442 1 31.8543089655 55.9891804759 0.0
443 1 37.0117089655 56.1431804759 0.0
444 1 43.9924089655 57.1804804759 0.0
445 1 48.3787089655 57.8425804759 0.0
446 1 51.2045089655 58.8446804759 0.0
447 1 56.1614089655 59.8274804759 0.0
448 1 61.6499089655 60.2499804759 0.0
449 1 67.9899089655 59.1346804759 0.0
450 1 72.8238089655 60.6697804759 0.0
451 1 3.48626896545 64.0968804759 0.0
452 1 8.72818896545 63.1426804759 0.0
453 1 13.5814089655 62.4900804759 0.0
454 1 18.5246089655 62.7304804759 0.0
455 1 23.5859089655 62.1417804759 0.0
456 1 26.6018089655 61.8211804759 0.0
457 1 33.9086089655 60.8067804759 0.0
458 1 40.6556089655 61.4058804759 0.0
459 1 45.8849089655 59.4854804759 0.0
460 1 48.6593089655 62.6563804759 0.0
461 1 53.9585089655 63.5593804759 0.0
462 1 61.4923089655 65.6581804759 0.0
463 1 65.7337089655 64.1222804759 0.0
464 1 70.9013089655 62.9679804759 0.0
465 1 75.8287089655 65.1435804759 0.0
466 1 75.6021089655 71.6743804759 0.0
467 1 6.33508896545 68.0713804759 0.0
468 1 11.5373089655 67.2586804759 0.0
469 1 17.0157089655 65.3946804759 0.0
470 1 20.7297089655 68.2740804759 0.0
471 1 23.7002089655 67.6719804759 0.0
472 1 30.7686089655 65.6709804759 0.0
473 1 35.9406089655 64.2075804759 0.0
474 1 40.7137089655 64.4784804759 0.0
475 1 46.0914089655 66.5194804759 0.0
476 1 51.4129089655 67.3074804759 0.0
477 1 56.9212089655 67.9172804759 0.0
478 1 63.2701089655 68.1160804759 0.0
479 1 68.8279089655 68.6113804759 0.0
480 1 74.8532089655 68.7924804759 0.0
481 1 5.35854896545 75.7336804759 0.0
482 1 7.43328896545 73.5588804759 0.0
483 1 13.3529089655 72.2421804759 0.0
484 1 18.4820089655 72.9271804759 0.0
485 1 23.8479089655 72.0389804759 0.0
486 1 28.6663089655 70.9505804759 0.0
487 1 31.6909089655 70.5327804759 0.0
488 1 39.0931089655 67.1042804759 0.0
489 1 43.4330089655 70.8730804759 0.0
490 1 46.3060089655 71.6748804759 0.0
491 1 51.1934089655 72.9945804759 0.0
492 1 59.3032089655 72.1339804759 0.0
493 1 64.8762089655 72.3430804759 0.0
494 1 70.0096089655 73.4865804759 0.0
495 1 75.0336089655 75.2979804759 0.0
496 1 0.973948965451 78.7737804759 0.0
497 1 7.22281896545 78.0979804759 0.0
498 1 12.2702089655 75.1067804759 0.0
499 1 16.3310089655 78.9463804759 0.0
500 1 19.2577089655 78.2859804759 0.0
501 1 25.9233089655 76.0352804759 0.0
502 1 30.8621089655 75.0429804759 0.0
503 1 35.5307089655 75.1292804759 0.0
504 1 38.5356089655 75.0832804759 0.0
505 1 45.7415089655 75.4598804759 0.0
506 1 54.2157089655 72.9235804759 0.0
507 1 57.6647089655 74.7115804759 0.0
508 1 62.7572089655 77.1475804759 0.0
509 1 67.3053089655 77.4492804759 0.0
510 1 72.3118089655 78.6081804759 0.0
511 1 6.46628896545 81.0636804759 0.0
512 1 11.8057089655 80.3933804759 0.0
513 1 16.8957089655 81.9085804759 0.0
514 1 21.0052089655 80.7427804759 0.0
515 1 26.0025089655 79.0401804759 0.0
516 1 31.2072089655 78.0182804759 0.0
517 1 35.9831089655 78.1209804759 0.0
518 1 40.4355089655 77.4326804759 0.0
519 1 46.0737089655 78.4371804759 0.0
520 1 52.9956089655 78.4077804759 0.0
521 1 58.0873089655 79.2697804759 0.0
522 1 63.0465089655 80.1294804759 0.0
523 1 67.3994089655 80.4576804759 0.0
524 1 72.7847089655 81.5654804759 0.0
525 1 1.16097896545 81.7711804759 0.0
526 1 3.97693896545 0.0203484758884 0.0
527 1 9.30760896545 82.1170804759 0.0
528 1 13.9638089655 82.4854804759 0.0
529 1 19.5381089655 0.506134475888 0.0
530 1 23.9625089655 81.2482804759 0.0
531 1 28.8740089655 79.8827804759 0.0
532 1 33.5647089655 79.8693804759 0.0
533 1 38.5281089655 79.7397804759 0.0
534 1 43.1017089655 78.8428804759 0.0
535 1 50.9877089655 80.7926804759 0.0
536 1 55.2887089655 80.3188804759 0.0
537 1 60.2883089655 81.2735804759 0.0
538 1 65.0608089655 82.3423804759 0.0
539 1 69.8516089655 82.1763804759 0.0
540 1 75.5575089655 82.7849804759 0.0
541 2 3.66972896545 1.52092047589 0.0
542 2 4.72980896545 3.67053047589 0.0
543 2 2.23470896545 4.06901047589 0.0
544 2 9.57360896545 3.60101047589 0.0
545 2 9.61710896545 0.744601475888 0.0
546 2 11.5772089655 2.38548047589 0.0
547 2 13.5547089655 1.05833547589 0.0
548 2 14.1059089655 3.54646047589 0.0
549 2 19.4537089655 4.16063047589 0.0
550 2 20.1513089655 1.88454047589 0.0
551 2 22.1506089655 3.78290047589 0.0
552 2 26.3624089655 1.40538047589 0.0
553 2 24.3740089655 82.6988804759 0.0
554 2 24.2166089655 2.61615047589 0.0
555 2 29.4862089655 81.2463804759 0.0
556 2 28.9925089655 0.719449475888 0.0
557 2 31.6056089655 82.8074804759 0.0
558 2 33.8465089655 1.27817047589 0.0
559 2 35.7373089655 3.25909047589 0.0
560 2 33.0401089655 3.50307047589 0.0
561 2 41.7519089655 82.1210804759 0.0
562 2 39.9497089655 0.823071475888 0.0
563 2 39.2846089655 81.0507804759 0.0
564 2 44.5716089655 82.5491804759 0.0
565 2 43.1498089655 80.3433804759 0.0
566 2 49.4582089655 80.7154804759 0.0
567 2 47.0484089655 82.0204804759 0.0
568 2 47.0809089655 79.5541804759 0.0
569 2 54.8370089655 81.7435804759 0.0
570 2 55.4481089655 1.31441047589 0.0
571 2 52.9301089655 0.720995475888 0.0
572 2 57.9635089655 1.75252047589 0.0
573 2 60.4495089655 2.26388047589 0.0
574 2 59.8355089655 82.6929804759 0.0
575 2 64.6473089655 0.927549475888 0.0
576 2 65.4035089655 3.31894047589 0.0
577 2 62.8434089655 2.97343047589 0.0
578 2 69.3599089655 0.730884475888 0.0
579 2 70.3726089655 2.87938047589 0.0
580 2 67.8347089655 3.05400047589 0.0
581 2 75.1456089655 1.38215047589 0.0
582 2 75.0286089655 4.17284047589 0.0
583 2 73.0602089655 3.04738047589 0.0
584 2 76.9733089655 5.32791047589 0.0
585 2 74.7225089655 6.92574047589 0.0
586 2 7.59501896545 7.85352047589 0.0
587 2 4.97327896545 8.25291047589 0.0
588 2 5.93695896545 5.92703047589 0.0
589 2 9.44660896545 9.51486047589 0.0
590 2 9.28780896545 6.49011047589 0.0
591 2 14.5628089655 6.01428047589 0.0
592 2 15.8695089655 7.75832047589 0.0
593 2 13.4183089655 8.67331047589 0.0
594 2 16.6661089655 4.57067047589 0.0
595 2 17.9674089655 6.41390047589 0.0
596 2 28.3216089655 3.07277047589 0.0
597 2 30.3017089655 4.46579047589 0.0
598 2 27.4718089655 5.24346047589 0.0
599 2 32.4345089655 5.74856047589 0.0
600 2 34.3473089655 7.65340047589 0.0
601 2 31.5790089655 7.86654047589 0.0
602 2 38.9572089655 7.61121047589 0.0
603 2 37.9244089655 5.08164047589 0.0
604 2 40.4125089655 5.52270047589 0.0
605 2 40.8732089655 3.35405047589 0.0
606 2 43.0590089655 5.17276047589 0.0
607 2 46.2418089655 1.73956047589 0.0
608 2 45.3480089655 4.30862047589 0.0
609 2 47.5576089655 4.23586047589 0.0
610 2 51.2429089655 2.52766047589 0.0
611 2 49.8760089655 4.82554047589 0.0
612 2 52.2911089655 5.18235047589 0.0
613 2 56.3027089655 3.75677047589 0.0
614 2 57.6921089655 5.48464047589 0.0
615 2 54.7997089655 5.79932047589 0.0
616 2 59.9776089655 6.72766047589 0.0
617 2 62.2325089655 8.31482047589 0.0
618 2 59.8309089655 9.16573047589 0.0
619 2 67.3325089655 7.94194047589 0.0
620 2 67.3377089655 5.41310047589 0.0
621 2 69.6430089655 6.71659047589 0.0
622 2 71.4517089655 5.08561047589 0.0
623 2 72.3715089655 7.40007047589 0.0
624 2 0.228828965451 9.58291047589 0.0
625 2 76.1093089655 12.1225804759 0.0
626 2 0.916368965451 12.1855804759 0.0
627 2 4.30336896545 10.5425804759 0.0
628 2 5.36615896545 13.2429804759 0.0
629 2 3.20774896545 12.5967804759 0.0
630 2 11.3573089655 10.5880804759 0.0
631 2 9.36690896545 12.4519804759 0.0
632 2 17.7723089655 9.23346047589 0.0
633 2 19.3549089655 11.1457804759 0.0
634 2 16.5597089655 11.3984804759 0.0
635 2 26.5160089655 7.34613047589 0.0
636 2 26.9866089655 10.1365204759 0.0
637 2 28.7931089655 8.54108047589 0.0
638 2 30.8658089655 10.0257904759 0.0
639 2 35.8333089655 12.1336804759 0.0
640 2 35.1169089655 9.83341047589 0.0
641 2 33.1534089655 11.2870804759 0.0
642 2 39.4428089655 10.3467804759 0.0
643 2 38.5097089655 12.3380804759 0.0
644 2 40.7901089655 13.0465804759 0.0
645 2 45.3888089655 6.81355047589 0.0
646 2 46.3493089655 9.33518047589 0.0
647 2 47.6882089655 6.75628047589 0.0
648 2 47.6578089655 11.4503804759 0.0
649 2 50.4577089655 11.6371804759 0.0
650 2 49.2179089655 13.6031804759 0.0
651 2 53.5866089655 7.79366047589 0.0
652 2 55.1599089655 10.2112104759 0.0
653 2 52.8569089655 10.3165804759 0.0
654 2 60.4340089655 11.2637804759 0.0
655 2 57.6848089655 10.8363804759 0.0
656 2 62.4937089655 12.9769804759 0.0
657 2 64.5834089655 14.3414804759 0.0
658 2 61.8607089655 15.2357804759 0.0
659 2 67.2782089655 10.4881804759 0.0
660 2 69.3566089655 12.3487804759 0.0
661 2 66.9238089655 12.9363804759 0.0
662 2 73.4724089655 9.58609047589 0.0
663 2 74.0249089655 12.2313804759 0.0
664 2 71.8243089655 11.8931804759 0.0
665 2 75.4649089655 14.7441804759 0.0
666 2 77.0138089655 17.1195804759 0.0
667 2 74.5825089655 17.1518804759 0.0
668 2 2.38146896545 14.7207804759 0.0
669 2 4.67682896545 15.5568804759 0.0
670 2 2.21180896545 17.0964804759 0.0
671 2 8.90293896545 15.4346804759 0.0
672 2 10.3697089655 16.9495804759 0.0
673 2 7.96259896545 18.2181804759 0.0
674 2 14.5890089655 13.2845804759 0.0
675 2 15.1531089655 15.7128804759 0.0
676 2 12.7892089655 15.5086804759 0.0
677 2 20.3920089655 13.2129804759 0.0
678 2 21.8666089655 14.9245804759 0.0
679 2 19.5957089655 15.9691804759 0.0
680 2 25.1879089655 11.6922804759 0.0
681 2 23.7070089655 13.4948804759 0.0
682 2 22.2459089655 11.6052804759 0.0
683 2 31.3286089655 12.7299804759 0.0
684 2 32.5342089655 14.8410804759 0.0
685 2 29.6686089655 14.3203804759 0.0
686 2 38.2487089655 16.4528804759 0.0
687 2 37.0484089655 14.3583804759 0.0
688 2 35.3609089655 15.7375804759 0.0
689 2 42.9754089655 13.9090804759 0.0
690 2 40.7130089655 15.7519804759 0.0
691 2 50.4969089655 16.0710804759 0.0
692 2 47.8576089655 15.4090804759 0.0
693 2 52.6526089655 15.5386804759 0.0
694 2 54.8238089655 14.3472804759 0.0
695 2 52.6598089655 12.8631804759 0.0
696 2 56.3734089655 12.7941804759 0.0
697 2 57.0643089655 15.6457804759 0.0
698 2 61.8452089655 17.3154804759 0.0
699 2 59.2959089655 16.5894804759 0.0
700 2 67.1604089655 15.2216804759 0.0
701 2 67.2146089655 17.4118804759 0.0
702 2 69.7067089655 16.2334804759 0.0
703 2 71.0781089655 14.4208804759 0.0
704 2 72.2254089655 17.0392804759 0.0
705 2 1.38539896545 19.4479804759 0.0
706 2 3.34628896545 21.1670804759 0.0
707 2 0.588598965451 21.7662804759 0.0
708 2 8.52801896545 20.5729804759 0.0
709 2 6.02974896545 20.4902804759 0.0
710 2 13.3666089655 20.3416804759 0.0
711 2 12.7432089655 17.8906804759 0.0
712 2 15.0601089655 18.0994804759 0.0
713 2 17.4761089655 17.1780804759 0.0
714 2 24.8609089655 18.7352804759 0.0
715 2 23.6795089655 16.4036804759 0.0
716 2 22.3320089655 18.6205804759 0.0
717 2 28.0065089655 15.8128804759 0.0
718 2 29.2863089655 18.3121804759 0.0
719 2 27.1373089655 18.4183804759 0.0
720 2 33.4146089655 16.9779804759 0.0
721 2 34.4083089655 19.1599804759 0.0
722 2 31.7047089655 18.9115804759 0.0
723 2 39.3499089655 18.4751804759 0.0
724 2 38.5060089655 21.3740804759 0.0
725 2 37.0928089655 19.7821804759 0.0
726 2 46.3325089655 19.8529804759 0.0
727 2 44.6326089655 22.0962804759 0.0
728 2 47.1338089655 22.1610804759 0.0
729 2 46.5862089655 17.1808804759 0.0
730 2 48.5625089655 19.1303804759 0.0
731 2 51.2747089655 19.9425804759 0.0
732 2 49.2863089655 21.4450804759 0.0
733 2 57.5157089655 18.4687804759 0.0
734 2 58.6221089655 20.8638804759 0.0
735 2 56.1638089655 20.9225804759 0.0
736 2 62.8357089655 19.6629804759 0.0
737 2 61.3138089655 21.4440804759 0.0
738 2 64.2585089655 21.4766804759 0.0
739 2 67.0029089655 22.0838804759 0.0
740 2 69.6157089655 22.5958804759 0.0
741 2 67.1701089655 24.2122804759 0.0
742 2 73.6214089655 19.5440804759 0.0
743 2 75.1976089655 21.8255804759 0.0
744 2 72.4706089655 21.6814804759 0.0
745 2 76.8386089655 24.0832804759 0.0
746 2 1.45132896545 26.0405804759 0.0
747 2 76.6738089655 26.9473804759 0.0
748 2 3.87129896545 25.6172804759 0.0
749 2 6.19881896545 25.4329804759 0.0
750 2 4.93813896545 23.0301804759 0.0
751 2 11.1813089655 25.2388804759 0.0
752 2 9.68430896545 23.0143804759 0.0
753 2 8.64768896545 25.3330804759 0.0
754 2 16.1384089655 24.2151804759 0.0
755 2 13.7317089655 22.7809804759 0.0
756 2 13.6580089655 25.0870804759 0.0
757 2 21.4423089655 23.2967804759 0.0
758 2 21.5963089655 20.8185804759 0.0
759 2 23.8299089655 22.2888804759 0.0
760 2 25.8955089655 20.9990804759 0.0
761 2 25.9608089655 23.7458804759 0.0
762 2 30.2711089655 23.6781804759 0.0
763 2 30.4503089655 20.9203804759 0.0
764 2 32.4547089655 22.4465804759 0.0
765 2 34.8630089655 21.3248804759 0.0
766 2 34.7962089655 23.7409804759 0.0
767 2 39.5018089655 23.6023804759 0.0
768 2 37.0630089655 23.9367804759 0.0
769 2 43.4791089655 26.6087804759 0.0
770 2 46.0998089655 26.7394804759 0.0
771 2 44.3709089655 24.5220804759 0.0
772 2 50.9107089655 26.4174804759 0.0
773 2 49.2170089655 24.0626804759 0.0
774 2 48.5355089655 26.3638804759 0.0
775 2 56.8240089655 25.4467804759 0.0
776 2 55.0851089655 23.4165804759 0.0
777 2 54.9775089655 26.4352804759 0.0
778 2 60.1696089655 23.2239804759 0.0
779 2 62.0372089655 25.2565804759 0.0
780 2 59.4194089655 25.4779804759 0.0
781 2 67.4147089655 26.3178804759 0.0
782 2 64.7328089655 25.7684804759 0.0
783 2 71.4355089655 23.8919804759 0.0
784 2 72.5052089655 26.4520804759 0.0
785 2 70.0605089655 25.9646804759 0.0
786 2 3.87236896545 30.7193804759 0.0
787 2 2.81243896545 28.2266804759 0.0