# input file

1350 atoms
2 atom types

0.0 77.6291264506 xlo xhi
0.0 82.4838007804 ylo yhi
-10.0 10.0 zlo zhi
0.0 0.0 0.0 xy xz yz

Masses

1 28.0855 #Si
2 15.9994 #O

Atoms

1 1 7.10700100213 0.778327390197 0.0
2 1 10.0745010021 1.3921303902 0.0
3 1 14.6060010021 2.5573303902 0.0
4 1 21.4545010021 0.629426390197 0.0
5 1 24.4343010021 0.231170390197 0.0
6 1 29.4999010021 1.4683003902 0.0
7 1 34.6157010021 1.4422703902 0.0
8 1 40.2171010021 2.9711703902 0.0
9 1 45.9015010021 1.3119703902 0.0
10 1 53.4547010021 0.786392390197 0.0
11 1 56.4911010021 1.0183293902 0.0
12 1 62.0848010021 1.7110303902 0.0
13 1 68.8316010021 1.8317203902 0.0
14 1 71.7730010021 1.2334003902 0.0
15 1 77.0536010021 1.1149103902 0.0
16 1 0.521961002125 5.3623003902 0.0
17 1 5.39048100213 5.8517303902 0.0
18 1 10.4957010021 6.6157003902 0.0
19 1 17.4416010021 6.9454803902 0.0
20 1 22.6818010021 5.2655903902 0.0
21 1 25.7504010021 5.2102403902 0.0
22 1 31.4081010021 6.0155503902 0.0
23 1 40.0827010021 8.8036203902 0.0
24 1 43.9130010021 5.6876303902 0.0
25 1 48.7748010021 6.0904903902 0.0
26 1 51.7866010021 5.8788103902 0.0
27 1 59.9952010021 5.3847603902 0.0
28 1 62.7748010021 6.5620803902 0.0
29 1 67.8579010021 7.1934403902 0.0
30 1 75.1597010021 5.5197603902 0.0
31 1 2.84915100213 10.3120003902 0.0
32 1 6.08966100213 13.2430003902 0.0
33 1 11.2946010021 12.0660003902 0.0
34 1 15.7835010021 11.8760003902 0.0
35 1 21.0232010021 10.2228003902 0.0
36 1 27.6425010021 9.6863003902 0.0
37 1 33.0387010021 10.0990003902 0.0
38 1 35.3499010021 14.1211003902 0.0
39 1 42.5660010021 10.6461003902 0.0
40 1 45.6458010021 10.6480003902 0.0
41 1 55.1559010021 9.8388303902 0.0
42 1 58.1356010021 10.1996003902 0.0
43 1 64.9091010021 11.4806003902 0.0
44 1 70.4300010021 10.9391003902 0.0
45 1 75.4753010021 10.7222003902 0.0
46 1 1.16553100213 15.1758003902 0.0
47 1 4.16391100213 15.5780003902 0.0
48 1 8.48975100213 16.9940003902 0.0
49 1 13.6268010021 16.9969003902 0.0
50 1 20.9000010021 14.2679003902 0.0
51 1 23.1592010021 12.3125003902 0.0
52 1 29.8720010021 14.1223003902 0.0
53 1 32.3795010021 18.3004003902 0.0
54 1 37.2972010021 16.3743003902 0.0
55 1 44.3946010021 15.7865003902 0.0
56 1 47.9533010021 12.7078003902 0.0
57 1 55.4687010021 14.2206003902 0.0
58 1 59.8711010021 12.6961003902 0.0
59 1 69.2394010021 14.9654003902 0.0
60 1 72.2232010021 15.3247003902 0.0
61 1 0.0567100021254 20.7245003902 0.0
62 1 7.00323100213 23.0249003902 0.0
63 1 11.0242010021 23.7401003902 0.0
64 1 17.9157010021 20.0354003902 0.0
65 1 20.8823010021 19.7284003902 0.0
66 1 27.0939010021 18.2553003902 0.0
67 1 29.7379010021 19.7173003902 0.0
68 1 36.6242010021 21.3372003902 0.0
69 1 41.2230010021 18.7081003902 0.0
70 1 48.6964010021 18.3864003902 0.0
71 1 55.1692010021 18.0173003902 0.0
72 1 58.1950010021 18.2897003902 0.0
73 1 63.9155010021 19.4517003902 0.0
74 1 66.8977010021 19.6927003902 0.0
75 1 72.3504010021 20.0553003902 0.0
76 1 73.1732010021 22.9352003902 0.0
77 1 2.23491100213 22.8073003902 0.0
78 1 9.61280100213 26.3789003902 0.0
79 1 15.5436010021 26.2050003902 0.0
80 1 18.3760010021 25.3037003902 0.0
81 1 22.8302010021 25.1340003902 0.0
82 1 27.1199010021 23.4157003902 0.0
83 1 32.2740010021 24.7161003902 0.0
84 1 40.7988010021 23.9687003902 0.0
85 1 47.5410010021 23.4314003902 0.0
86 1 50.5304010021 23.2641003902 0.0
87 1 55.6180010021 23.2703003902 0.0
88 1 58.6069010021 23.6678003902 0.0
89 1 63.6786010021 25.0225003902 0.0
90 1 70.3724010021 23.9682003902 0.0
91 1 77.5720010021 28.4088003902 0.0
92 1 5.58575100213 28.9186003902 0.0
93 1 10.7359010021 31.6627003902 0.0
94 1 16.3748010021 31.1530003902 0.0
95 1 21.8266010021 31.3618003902 0.0
96 1 26.9911010021 28.8033003902 0.0
97 1 31.8863010021 27.6976003902 0.0
98 1 37.4952010021 27.9682003902 0.0
99 1 42.4360010021 28.4548003902 0.0
100 1 47.2420010021 29.0210003902 0.0
101 1 52.0518010021 29.8917003902 0.0
102 1 56.5510010021 29.3967003902 0.0
103 1 61.5151010021 30.8045003902 0.0
104 1 66.6873010021 29.7826003902 0.0
105 1 71.7199010021 28.6993003902 0.0
106 1 75.8295010021 35.1828003902 0.0
107 1 3.21694100213 32.8351003902 0.0
108 1 8.01003100213 36.0892003902 0.0
109 1 13.8716010021 35.5766003902 0.0
110 1 22.3607010021 34.2991003902 0.0
111 1 25.3094010021 33.8166003902 0.0
112 1 31.1910010021 32.6056003902 0.0
113 1 35.8947010021 31.5784003902 0.0
114 1 38.6990010021 32.6289003902 0.0
115 1 43.3945010021 33.2029003902 0.0
116 1 49.7310010021 34.1907003902 0.0
117 1 54.7613010021 36.3032003902 0.0
118 1 59.8745010021 33.3123003902 0.0
119 1 66.9490010021 37.0254003902 0.0
120 1 71.2156010021 33.3232003902 0.0
121 1 2.42264100213 37.9135003902 0.0
122 1 7.65130100213 39.0988003902 0.0
123 1 11.6972010021 39.3932003902 0.0
124 1 16.1899010021 37.5072003902 0.0
125 1 23.9970010021 39.2313003902 0.0
126 1 27.1415010021 36.1906003902 0.0
127 1 34.1289010021 38.1729003902 0.0
128 1 38.0011010021 38.3076003902 0.0
129 1 42.2836010021 37.3398003902 0.0
130 1 47.3860010021 39.5219003902 0.0
131 1 53.3322010021 38.9410003902 0.0
132 1 59.7550010021 37.2785003902 0.0
133 1 62.0456010021 35.3843003902 0.0
134 1 70.4965010021 38.8954003902 0.0
135 1 75.0214010021 38.1279003902 0.0
136 1 0.142304002125 42.6539003902 0.0
137 1 5.20380100213 42.8272003902 0.0
138 1 10.1320010021 44.4564003902 0.0
139 1 15.5010010021 42.9054003902 0.0
140 1 20.3041010021 41.2047003902 0.0
141 1 28.6484010021 41.7214003902 0.0
142 1 31.5665010021 41.1105003902 0.0
143 1 35.6592010021 45.3493003902 0.0
144 1 40.9354010021 42.7987003902 0.0
145 1 46.1313010021 42.3273003902 0.0
146 1 50.7112010021 42.4586003902 0.0
147 1 55.3227010021 44.3698003902 0.0
148 1 61.9336010021 42.1330003902 0.0
149 1 67.3806010021 43.0070003902 0.0
150 1 72.7491010021 43.4981003902 0.0
151 1 2.78406100213 47.3216003902 0.0
152 1 7.63843100213 48.0565003902 0.0
153 1 11.7757010021 47.0339003902 0.0
154 1 19.2362010021 46.3888003902 0.0
155 1 24.6328010021 47.1459003902 0.0
156 1 29.7502010021 47.3559003902 0.0
157 1 34.7915010021 48.2404003902 0.0
158 1 39.9468010021 47.4260003902 0.0
159 1 44.5675010021 49.6364003902 0.0
160 1 49.8214010021 46.9824003902 0.0
161 1 55.1710010021 47.3698003902 0.0
162 1 60.0121010021 47.2114003902 0.0
163 1 64.3121010021 48.8145003902 0.0
164 1 68.5264010021 45.8322003902 0.0
165 1 75.3986010021 47.6302003902 0.0
166 1 0.964901002125 52.0208003902 0.0
167 1 5.57618100213 52.2971003902 0.0
168 1 9.46570100213 50.4480003902 0.0
169 1 16.5477010021 50.7526003902 0.0
170 1 21.8211010021 50.9522003902 0.0
171 1 26.5535010021 51.7420003902 0.0
172 1 31.1334010021 52.3587003902 0.0
173 1 37.9347010021 52.3210003902 0.0
174 1 45.5130010021 52.5208003902 0.0
175 1 48.3633010021 51.6191003902 0.0
176 1 53.2305010021 51.4746003902 0.0
177 1 57.9435010021 52.0742003902 0.0
178 1 63.5931010021 51.7098003902 0.0
179 1 67.6435010021 54.3423003902 0.0
180 1 73.3815010021 52.0836003902 0.0
181 1 3.99754100213 56.9260003902 0.0
182 1 8.93705100213 56.1949003902 0.0
183 1 15.5083010021 55.3318003902 0.0
184 1 20.0231010021 55.0704003902 0.0
185 1 22.8844010021 55.9064003902 0.0
186 1 27.7721010021 56.8666003902 0.0
187 1 32.5228010021 55.0391003902 0.0
188 1 35.8300010021 58.4370003902 0.0
189 1 42.5392010021 56.2665003902 0.0
190 1 49.5791010021 55.9817003902 0.0
191 1 54.2734010021 56.4747003902 0.0
192 1 60.5642010021 55.9503003902 0.0
193 1 66.1180010021 56.9035003902 0.0
194 1 69.9426010021 56.2410003902 0.0
195 1 76.8244010021 56.4606003902 0.0
196 1 2.01760100213 61.4262003902 0.0
197 1 7.70735100213 61.0376003902 0.0
198 1 10.6814010021 60.8066003902 0.0
199 1 15.8062010021 60.7572003902 0.0
200 1 19.7418010021 59.6651003902 0.0
201 1 27.0535010021 61.8238003902 0.0
202 1 31.1598010021 63.1122003902 0.0
203 1 35.4492010021 61.3670003902 0.0
204 1 38.6567010021 59.3858003902 0.0
205 1 45.6237010021 60.9398003902 0.0
206 1 51.3445010021 61.1414003902 0.0
207 1 56.3606010021 58.6401003902 0.0
208 1 62.0686010021 60.1424003902 0.0
209 1 67.7007010021 61.7124003902 0.0
210 1 74.3054010021 60.7068003902 0.0
211 1 3.16889100213 66.5674003902 0.0
212 1 8.56332100213 66.5292003902 0.0
213 1 13.4217010021 65.3040003902 0.0
214 1 20.7107010021 67.6166003902 0.0
215 1 25.9899010021 64.7066003902 0.0
216 1 30.4386010021 66.0039003902 0.0
217 1 36.5860010021 65.5016003902 0.0
218 1 39.5222010021 65.0299003902 0.0
219 1 44.9248010021 66.5461003902 0.0
220 1 49.6566010021 66.6838003902 0.0
221 1 54.9421010021 65.9661003902 0.0
222 1 58.9149010021 64.3934003902 0.0
223 1 64.2668010021 64.6858003902 0.0
224 1 70.1045010021 63.5546003902 0.0
225 1 75.6500010021 65.1333003902 0.0
226 1 0.621521002125 70.2124003902 0.0
227 1 6.08251100213 70.8875003902 0.0
228 1 13.9444010021 69.2240003902 0.0
229 1 15.9255010021 66.9431003902 0.0
230 1 24.1662010021 69.3180003902 0.0
231 1 28.6583010021 70.0962003902 0.0
232 1 33.0822010021 71.1192003902 0.0
233 1 38.6610010021 72.5616003902 0.0
234 1 43.8768010021 69.4702003902 0.0
235 1 48.6777010021 69.5617003902 0.0
236 1 53.5153010021 70.4545003902 0.0
237 1 60.2887010021 68.5612003902 0.0
238 1 60.7750010021 73.8850003902 0.0
239 1 66.7884010021 69.7150003902 0.0
240 1 70.8299010021 72.2301003902 0.0
241 1 4.09165100213 74.6363003902 0.0
242 1 8.32910100213 72.8902003902 0.0
243 1 15.2028010021 75.0227003902 0.0
244 1 22.4221010021 73.5302003902 0.0
245 1 25.3589010021 74.4983003902 0.0
246 1 31.0590010021 75.4808003902 0.0
247 1 36.8974010021 75.0603003902 0.0
248 1 41.7945010021 74.4719003902 0.0
249 1 46.5078010021 74.3893003902 0.0
250 1 51.0508010021 74.7126003902 0.0
251 1 56.2137010021 74.7044003902 0.0
252 1 63.7050010021 74.4404003902 0.0
253 1 68.5732010021 74.2076003902 0.0
254 1 73.5009010021 73.5756003902 0.0
255 1 77.2538010021 75.2971003902 0.0
256 1 1.95169100213 2.7260603902 0.0
257 1 4.95566100213 2.8812803902 0.0
258 1 11.8305010021 3.8573303902 0.0
259 1 17.3061010021 3.9426003902 0.0
260 1 20.2936010021 3.3891603902 0.0
261 1 26.6058010021 2.3212003902 0.0
262 1 32.0611010021 3.0690103902 0.0
263 1 37.6602010021 1.2797303902 0.0
264 1 43.2469010021 2.7509103902 0.0
265 1 48.3396010021 3.1056603902 0.0
266 1 51.3376010021 2.9137903902 0.0
267 1 59.1645010021 2.4800603902 0.0
268 1 64.1442010021 3.9019903902 0.0
269 1 67.1206010021 4.2857503902 0.0
270 1 74.4409010021 2.6104903902 0.0
271 1 2.76950100213 7.3235803902 0.0
272 1 7.68323100213 7.7892603902 0.0
273 1 12.1417010021 9.1492903902 0.0
274 1 15.1521010021 8.9320003902 0.0
275 1 20.4498010021 7.2939703902 0.0
276 1 28.3999010021 6.7488303902 0.0
277 1 34.1732010021 7.3335803902 0.0
278 1 37.0368010021 8.4504203902 0.0
279 1 40.9202010021 5.9126703902 0.0
280 1 46.2037010021 7.6706503902 0.0
281 1 54.6369010021 6.8994103902 0.0
282 1 57.6357010021 7.2239903902 0.0
283 1 65.1090010021 8.4752903902 0.0
284 1 70.7804010021 7.9771003902 0.0
285 1 73.7993010021 8.1916703902 0.0
286 1 0.493391002125 12.2101003902 0.0
287 1 5.87132100213 10.2417003902 0.0
288 1 8.98511100213 14.0168003902 0.0
289 1 13.6233010021 13.9723003902 0.0
290 1 18.7621010021 12.1786003902 0.0
291 1 26.1519010021 12.3300003902 0.0
292 1 30.2427010021 11.1540003902 0.0
293 1 35.8137010021 11.1817003902 0.0
294 1 40.2449010021 15.8721003902 0.0
295 1 42.2642010021 13.6536003902 0.0
296 1 50.8133010021 13.7760003902 0.0
297 1 53.3179010021 12.1519003902 0.0
298 1 62.7558010021 13.5954003902 0.0
299 1 67.7906010021 12.3390003902 0.0
300 1 73.0247010021 12.4465003902 0.0
301 1 77.1535010021 17.7347003902 0.0
302 1 5.69547100213 18.1862003902 0.0
303 1 11.0274010021 18.6114003902 0.0
304 1 16.6459010021 17.3447003902 0.0
305 1 19.6553010021 16.9777003902 0.0
306 1 27.0872010021 15.2179003902 0.0
307 1 32.6040010021 15.3201003902 0.0
308 1 35.3482010021 18.6504003902 0.0
309 1 44.1993010021 18.7866003902 0.0
310 1 47.3820010021 15.6618003902 0.0
311 1 52.9956010021 15.9150003902 0.0
312 1 58.2957010021 15.2679003902 0.0
313 1 63.8360010021 16.4286003902 0.0
314 1 66.8224010021 16.7131003902 0.0
315 1 74.1373010021 17.6368003902 0.0
316 1 76.1313010021 23.2964003902 0.0
317 1 4.72119100213 21.0743003902 0.0
318 1 9.44920100213 21.2132003902 0.0
319 1 13.9938010021 23.6645003902 0.0
320 1 16.8192010021 22.7724003902 0.0
321 1 22.7896010021 22.0795003902 0.0
322 1 25.5421010021 20.8503003902 0.0
323 1 35.1880010021 23.9515003902 0.0
324 1 39.6201010021 21.2268003902 0.0
325 1 46.6146010021 20.5631003902 0.0
326 1 51.0205010021 20.3018003902 0.0
327 1 53.9894010021 20.7481003902 0.0
328 1 59.7988010021 20.9048003902 0.0
329 1 62.5797010021 22.1492003902 0.0
330 1 69.5383010021 21.0956003902 0.0
331 1 0.631841002125 25.4138003902 0.0
332 1 6.63717100213 26.0570003902 0.0
333 1 11.4155010021 28.7613003902 0.0
334 1 14.3935010021 28.9269003902 0.0
335 1 20.6419010021 27.2401003902 0.0
336 1 25.7033010021 26.0667003902 0.0
337 1 30.0298010021 22.7128003902 0.0
338 1 37.9914010021 25.0414003902 0.0
339 1 43.3189010021 25.6008003902 0.0
340 1 46.2776010021 26.1552003902 0.0
341 1 53.0807010021 24.8658003902 0.0
342 1 54.0647010021 27.6908003902 0.0
343 1 60.7408010021 25.8281003902 0.0
344 1 66.2571010021 26.7792003902 0.0
345 1 69.3277010021 26.7739003902 0.0
346 1 74.6867010021 29.5974003902 0.0
347 1 2.66725100213 29.8448003902 0.0
348 1 7.71869100213 31.1307003902 0.0
349 1 13.6728010021 32.5881003902 0.0
350 1 19.1863010021 29.9219003902 0.0
351 1 24.7982010021 30.8629003902 0.0
352 1 29.8220010021 29.8891003902 0.0
353 1 34.6507010021 28.8613003902 0.0
354 1 39.8054010021 29.8611003902 0.0
355 1 44.6305010021 30.4788003902 0.0
356 1 49.3414010021 31.1854003902 0.0
357 1 54.4991010021 31.6172003902 0.0
358 1 59.4809010021 28.5770003902 0.0
359 1 64.3998010021 31.7511003902 0.0
360 1 69.5563010021 30.8045003902 0.0
361 1 1.24022100213 35.1280003902 0.0
362 1 6.13079100213 33.6942003902 0.0
363 1 10.9979010021 36.4769003902 0.0
364 1 19.0428010021 38.4694003902 0.0
365 1 21.7596010021 37.2220003902 0.0
366 1 29.9977010021 35.3576003902 0.0
367 1 36.1069010021 35.9589003902 0.0
368 1 33.9620010021 33.8267003902 0.0
369 1 40.8168010021 34.7273003902 0.0
370 1 44.8486010021 35.8059003902 0.0
371 1 52.7596010021 34.0785003902 0.0
372 1 57.5730010021 35.2360003902 0.0
373 1 64.9661010021 34.7313003902 0.0
374 1 69.7782010021 35.9852003902 0.0
375 1 74.1705010021 32.6185003902 0.0
376 1 77.6083010021 39.6537003902 0.0
377 1 4.75100100213 39.8427003902 0.0
378 1 9.55300100213 41.4710003902 0.0
379 1 14.6111010021 40.0518003902 0.0
380 1 23.1713010021 42.1034003902 0.0
381 1 26.9875010021 39.1944003902 0.0
382 1 31.1681010021 38.1245003902 0.0
383 1 35.9678010021 40.5110003902 0.0
384 1 40.6056010021 39.8049003902 0.0
385 1 47.7482010021 36.5082003902 0.0
386 1 50.3857010021 39.5002003902 0.0
387 1 57.5260010021 42.3569003902 0.0
388 1 59.6226010021 40.2477003902 0.0
389 1 67.6958010021 39.9727003902 0.0
390 1 73.0546010021 40.4587003902 0.0
391 1 2.62276100213 44.3303003902 0.0
392 1 7.21113100213 45.0809003902 0.0
393 1 14.4351010021 45.6913003902 0.0
394 1 18.4263010021 43.5154003902 0.0
395 1 25.2947010021 44.2429003902 0.0
396 1 28.2760010021 44.7010003902 0.0
397 1 34.0607010021 42.8106003902 0.0
398 1 38.6194010021 44.7341003902 0.0
399 1 43.6564010021 44.1110003902 0.0
400 1 48.3964010021 44.3266003902 0.0
401 1 53.6256010021 41.9223003902 0.0
402 1 59.8146010021 44.2452003902 0.0
403 1 64.4611010021 43.6971003902 0.0
404 1 71.5009010021 46.2851003902 0.0
405 1 75.5177010021 44.6274003902 0.0
406 1 0.379461002125 49.0857003902 0.0
407 1 4.96443100213 49.3698003902 0.0
408 1 12.4179010021 50.0342003902 0.0
409 1 16.5870010021 47.7659003902 0.0
410 1 21.7690010021 47.9698003902 0.0
411 1 27.1246010021 48.8075003902 0.0
412 1 31.9851010021 49.4180003902 0.0
413 1 37.6109010021 49.3348003902 0.0
414 1 42.9451010021 47.0760003902 0.0
415 1 47.4441010021 48.7925003902 0.0
416 1 52.4120010021 48.5616003902 0.0
417 1 57.6543010021 49.0766003902 0.0
418 1 62.8529010021 46.2371003902 0.0
419 1 67.2953010021 48.6081003902 0.0
420 1 72.7682010021 49.0741003902 0.0
421 1 3.17132100213 54.0475003902 0.0
422 1 8.40803100213 53.2474003902 0.0
423 1 14.1709010021 52.5552003902 0.0
424 1 19.1342010021 52.2281003902 0.0
425 1 23.9023010021 53.1010003902 0.0
426 1 28.5612010021 53.9448003902 0.0
427 1 35.2841010021 53.7707003902 0.0
428 1 40.0286010021 54.5280003902 0.0
429 1 46.6347010021 55.3298003902 0.0
430 1 50.8448010021 53.2739003902 0.0
431 1 55.3444010021 53.6222003902 0.0
432 1 60.8280010021 52.9576003902 0.0
433 1 66.6143010021 51.5420003902 0.0
434 1 72.6596010021 55.0283003902 0.0
435 1 76.0312010021 53.5391003902 0.0
436 1 1.44555100213 58.4718003902 0.0
437 1 6.70812100213 58.2063003902 0.0
438 1 11.3843010021 57.9064003902 0.0
439 1 14.3657010021 58.0960003902 0.0
440 1 17.9423010021 57.1918003902 0.0
441 1 22.6894010021 58.8977003902 0.0
442 1 30.7134010021 57.5464003902 0.0
443 1 37.3582010021 55.8994003902 0.0
444 1 41.5852010021 59.0848003902 0.0
445 1 45.1128010021 57.9080003902 0.0
446 1 51.6912010021 58.1154003902 0.0
447 1 59.3865010021 58.7234003902 0.0
448 1 63.1791010021 57.3702003902 0.0
449 1 68.4234010021 58.8086003902 0.0
450 1 74.1018010021 57.6916003902 0.0
451 1 4.00682100213 63.6888003902 0.0
452 1 7.00528100213 63.9458003902 0.0
453 1 13.2549010021 62.3248003902 0.0
454 1 18.3683010021 62.3750003902 0.0
455 1 25.7056010021 59.1241003902 0.0
456 1 29.7773010021 60.4522003902 0.0
457 1 34.0209010021 63.9549003902 0.0
458 1 38.2926010021 62.3145003902 0.0
459 1 42.7756010021 61.8292003902 0.0
460 1 46.5217010021 63.8730003902 0.0
461 1 56.1720010021 63.2462003902 0.0
462 1 54.3533010021 60.8863003902 0.0
463 1 64.6630010021 61.7215003902 0.0
464 1 73.1175010021 63.4730003902 0.0
465 1 76.8058010021 62.3667003902 0.0
466 1 0.219531002125 67.2274003902 0.0
467 1 5.88386100213 67.9025003902 0.0
468 1 11.4274010021 67.5315003902 0.0
469 1 18.5606010021 65.4475003902 0.0
470 1 23.4887010021 66.4041003902 0.0
471 1 27.7166010021 67.2049003902 0.0
472 1 32.4908010021 68.1866003902 0.0
473 1 35.4637010021 68.2213003902 0.0
474 1 42.4854010021 64.8168003902 0.0
475 1 49.5395010021 63.6426003902 0.0
476 1 52.4886010021 67.6433003902 0.0
477 1 57.6780010021 67.1233003902 0.0
478 1 61.5186010021 65.8389003902 0.0
479 1 66.4085010021 66.7664003902 0.0
480 1 69.3864010021 66.4611003902 0.0
481 1 3.21078100213 71.7666003902 0.0
482 1 11.2772010021 73.4422003902 0.0
483 1 14.0268010021 72.2423003902 0.0
484 1 21.4683010021 70.5955003902 0.0
485 1 26.0930010021 71.5987003902 0.0
486 1 30.4690010021 72.5213003902 0.0
487 1 36.0611010021 71.1206003902 0.0
488 1 41.5178010021 71.4699003902 0.0
489 1 46.2445010021 71.3540003902 0.0
490 1 50.7987010021 71.7141003902 0.0
491 1 56.2429010021 71.7106003902 0.0
492 1 59.2191010021 71.3354003902 0.0
493 1 66.0455010021 72.5986003902 0.0
494 1 69.7756010021 69.4243003902 0.0
495 1 76.2799010021 72.4663003902 0.0
496 1 2.15130100213 76.9034003902 0.0
497 1 6.94743100213 75.5533003902 0.0
498 1 12.4361010021 76.2103003902 0.0
499 1 17.6305010021 76.8233003902 0.0
500 1 20.5304010021 75.9006003902 0.0
501 1 28.0330010021 76.0594003902 0.0
502 1 34.0759010021 76.2798003902 0.0
503 1 39.5434010021 76.4811003902 0.0
504 1 44.1732010021 76.2843003902 0.0
505 1 48.6567010021 76.5152003902 0.0
506 1 53.6433010021 76.2242003902 0.0
507 1 58.8324010021 76.1543003902 0.0
508 1 64.7453010021 77.2459003902 0.0
509 1 67.7488010021 77.0896003902 0.0
510 1 74.4773010021 76.4055003902 0.0
511 1 7.77295100213 78.4477003902 0.0
512 1 11.9406010021 81.5022003902 0.0
513 1 17.0227010021 79.8064003902 0.0
514 1 22.1286010021 78.4565003902 0.0
515 1 27.8149010021 79.0661003902 0.0
516 1 35.2429010021 79.0982003902 0.0
517 1 40.5072010021 79.3357003902 0.0
518 1 43.5401010021 79.2342003902 0.0
519 1 48.9124010021 79.5393003902 0.0
520 1 54.2143010021 79.1678003902 0.0
521 1 59.5406010021 79.0642003902 0.0
522 1 64.0159010021 81.8974003902 0.0
523 1 69.1200010021 79.7493003902 0.0
524 1 74.6671010021 79.3966003902 0.0
525 1 2.72038100213 79.8498003902 0.0
526 1 5.66030100213 80.6073003902 0.0
527 1 10.7770010021 78.7275003902 0.0
528 1 14.9110010021 82.0133003902 0.0
529 1 19.9442010021 80.5264003902 0.0
530 1 24.8689010021 79.7383003902 0.0
531 1 30.1423010021 81.0124003902 0.0
532 1 33.1594010021 81.2705003902 0.0
533 1 37.8202010021 80.7316003902 0.0
534 1 46.1444010021 80.7876003902 0.0
535 1 51.6914010021 80.8008003902 0.0
536 1 56.9100010021 80.5264003902 0.0
537 1 62.5434010021 79.2910003902 0.0
538 1 67.0314010021 81.9116003902 0.0
539 1 71.9651010021 80.7228003902 0.0
540 1 77.4269010021 80.6288003902 0.0
541 2 6.04737100213 1.8558303902 0.0
542 2 6.38152100213 81.9354003902 0.0
543 2 8.58299100213 1.1096103902 0.0
544 2 10.8674010021 2.6792403902 0.0
545 2 10.9894010021 0.187960390197 0.0
546 2 14.8340010021 1.0508463902 0.0
547 2 13.2557010021 3.2830903902 0.0
548 2 15.9655010021 3.2447403902 0.0
549 2 20.8143010021 1.9788703902 0.0
550 2 20.6248010021 81.8655003902 0.0
551 2 22.9525010021 0.494196390197 0.0
552 2 24.6895010021 81.2341003902 0.0
553 2 25.5210010021 1.2708903902 0.0
554 2 29.7534010021 82.4689003902 0.0
555 2 30.7680010021 2.2803503902 0.0
556 2 28.0621010021 1.9288203902 0.0
557 2 36.1408010021 1.5145303902 0.0
558 2 33.8976010021 0.106477090197 0.0
559 2 33.4181010021 2.3878403902 0.0
560 2 38.9250010021 2.1540903902 0.0
561 2 41.7227010021 2.6456803902 0.0
562 2 40.3714010021 4.4936903902 0.0
563 2 46.0326010021 82.2942003902 0.0
564 2 47.1383010021 2.1943903902 0.0
565 2 44.5216010021 1.9293003902 0.0
566 2 52.5202010021 82.0742003902 0.0
567 2 52.4364010021 1.8999003902 0.0
568 2 54.9612010021 1.0141113902 0.0
569 2 56.7773010021 82.0197003902 0.0
570 2 57.7931010021 1.8199203902 0.0
571 2 63.0121010021 0.527065390197 0.0
572 2 63.1160010021 2.8146803902 0.0
573 2 60.5958010021 1.9424503902 0.0
574 2 68.0498010021 3.1101703902 0.0
575 2 67.8950010021 0.658173390197 0.0
576 2 70.3229010021 1.6380303902 0.0
577 2 71.9125010021 82.2225003902 0.0
578 2 73.0752010021 1.9825403902 0.0
579 2 77.2117010021 82.1145003902 0.0
580 2 0.750881002125 1.8235003902 0.0
581 2 75.7258010021 1.8223803902 0.0
582 2 1.56708100213 6.4338703902 0.0
583 2 1.24887100213 4.0546103902 0.0
584 2 76.6637010021 5.4979103902 0.0
585 2 5.26469100213 4.3550103902 0.0
586 2 6.59705100213 6.7387003902 0.0
587 2 4.08863100213 6.6046903902 0.0
588 2 11.3344010021 7.8786003902 0.0
589 2 11.1725010021 5.2438003902 0.0
590 2 9.07502100213 7.1841903902 0.0
591 2 16.2750010021 7.9147603902 0.0
592 2 17.2628010021 5.4506603902 0.0
593 2 18.9454010021 7.1387703902 0.0
594 2 21.6407010021 6.3776603902 0.0
595 2 21.5340010021 4.2578703902 0.0
596 2 24.2096010021 5.3105603902 0.0
597 2 26.1670010021 3.7566603902 0.0
598 2 27.0613010021 5.9925603902 0.0
599 2 29.9040010021 6.3980003902 0.0
600 2 32.8282010021 6.5947503902 0.0
601 2 31.7316010021 4.5345703902 0.0
602 2 40.4576010021 7.3386403902 0.0
603 2 38.5551010021 8.6290903902 0.0
604 2 41.3063010021 9.7554003902 0.0
605 2 42.4271010021 5.9428803902 0.0
606 2 43.7289010021 4.1866603902 0.0
607 2 45.0439010021 6.6848803902 0.0
608 2 47.5518010021 6.9790103902 0.0
609 2 48.4192010021 4.6165203902 0.0
610 2 50.2947010021 6.2193503902 0.0
611 2 51.6906010021 4.3754003902 0.0
612 2 53.2168010021 6.3819003902 0.0
613 2 61.3402010021 6.0773203902 0.0
614 2 58.8003010021 6.2908603902 0.0
615 2 59.5295010021 3.9487303902 0.0
616 2 63.8565010021 7.6186703902 0.0
617 2 63.4922010021 5.2453603902 0.0
618 2 67.5538010021 5.7167403902 0.0
619 2 69.3433010021 7.4912203902 0.0
620 2 66.5156010021 7.9063603902 0.0
621 2 74.6789010021 4.0953403902 0.0
622 2 74.4692010021 6.8411903902 0.0
623 2 1.70311100213 11.2909003902 0.0
624 2 4.35484100213 10.2939003902 0.0
625 2 2.67436100213 8.8128703902 0.0
626 2 6.02851100213 11.7435003902 0.0
627 2 7.54736100213 13.5907003902 0.0
628 2 5.08002100213 14.3692003902 0.0
629 2 12.4409010021 13.0460003902 0.0
630 2 11.6274010021 10.5853003902 0.0
631 2 10.0903010021 12.9886003902 0.0
632 2 15.4928010021 10.4016003902 0.0
633 2 17.2728010021 12.0942003902 0.0
634 2 14.7848010021 12.9973003902 0.0
635 2 20.8145010021 8.7501703902 0.0
636 2 22.2245010021 11.1285003902 0.0
637 2 19.7851010021 11.0760003902 0.0
638 2 27.9432010021 8.2075503902 0.0
639 2 26.7944010021 10.9550003902 0.0
640 2 28.9886010021 10.3595003902 0.0
641 2 34.3619010021 10.7873003902 0.0
642 2 33.5155010021 8.6861203902 0.0
643 2 31.6379010021 10.6133003902 0.0
644 2 33.9498010021 14.6672003902 0.0
645 2 35.7304010021 12.6763003902 0.0
646 2 36.3871010021 15.1874003902 0.0
647 2 42.3327010021 12.1576003902 0.0
648 2 44.1078010021 10.6337003902 0.0
649 2 45.9958010021 9.1636903902 0.0
650 2 46.8228010021 11.6627003902 0.0
651 2 54.0835010021 10.8729003902 0.0
652 2 54.7545010021 8.4014503902 0.0
653 2 56.6185010021 10.2002003902 0.0
654 2 58.0695010021 8.6798803902 0.0
655 2 59.0702010021 11.3977003902 0.0
656 2 64.9307010021 9.9736703902 0.0
657 2 66.3474010021 11.9476003902 0.0
658 2 63.8107010021 12.5079003902 0.0
659 2 70.5686010021 9.4614803902 0.0
660 2 71.7240010021 11.6947003902 0.0
661 2 69.0557010021 11.5251003902 0.0
662 2 74.7185010021 9.3996003902 0.0
663 2 74.3005010021 11.6734003902 0.0
664 2 76.8101010021 11.4393003902 0.0
665 2 0.334941002125 16.4524003902 0.0
666 2 0.754321002125 13.7088003902 0.0
667 2 2.66518100213 15.3953003902 0.0
668 2 4.84371100213 16.9297003902 0.0
669 2 7.12773100213 17.6657003902 0.0
670 2 9.77640100213 17.7687003902 0.0
671 2 8.80877100213 15.5182003902 0.0
672 2 13.5750010021 15.4752003902 0.0
673 2 12.3794010021 17.8832003902 0.0
674 2 15.1435010021 17.1881003902 0.0
675 2 20.3827010021 15.6670003902 0.0
676 2 19.7234010021 13.3282003902 0.0
677 2 22.1679010021 13.4590003902 0.0
678 2 24.6448010021 12.3000003902 0.0
679 2 31.2406010021 14.7145003902 0.0
680 2 30.0268010021 12.6324003902 0.0
681 2 28.5298010021 14.7678003902 0.0
682 2 32.4478010021 16.8050003902 0.0
683 2 33.8544010021 18.5864003902 0.0
684 2 31.0763010021 19.0250003902 0.0
685 2 38.7586010021 16.0785003902 0.0
686 2 36.3701010021 17.5525003902 0.0
687 2 44.2825010021 17.2851003902 0.0
688 2 45.8872010021 15.6817003902 0.0
689 2 43.3999010021 14.6608003902 0.0
690 2 47.6584010021 14.1913003902 0.0
691 2 49.4494010021 13.1207003902 0.0
692 2 54.5254010021 13.0567003902 0.0
693 2 56.8727010021 14.7379003902 0.0
694 2 54.2658010021 15.1094003902 0.0
695 2 61.3343010021 13.0850003902 0.0
696 2 59.1305010021 14.0136003902 0.0
697 2 70.7152010021 15.2352003902 0.0
698 2 68.0694010021 15.8997003902 0.0
699 2 68.4863010021 13.6676003902 0.0
700 2 73.1999010021 16.4568003902 0.0
701 2 72.7417010021 13.9159003902 0.0
702 2 76.7545010021 21.9222003902 0.0
703 2 1.23510100213 21.6670003902 0.0
704 2 77.4982010021 19.2202003902 0.0
705 2 5.84920100213 22.0649003902 0.0
706 2 8.18346100213 22.0614003902 0.0
707 2 6.70285100213 24.5260003902 0.0
708 2 10.3227010021 22.4370003902 0.0
709 2 12.5152010021 23.6354003902 0.0
710 2 10.3244010021 25.0583003902 0.0
711 2 17.3279010021 21.3896003902 0.0
712 2 17.1263010021 18.7765003902 0.0
713 2 19.4061010021 20.0225003902 0.0
714 2 20.4803010021 18.2518003902 0.0
715 2 21.8205010021 20.9035003902 0.0
716 2 26.1815010021 19.4758003902 0.0
717 2 26.9569010021 16.7382003902 0.0
718 2 28.4513010021 18.9374003902 0.0
719 2 29.9393010021 21.2105003902 0.0
720 2 35.9647010021 20.0055003902 0.0
721 2 38.1241010021 21.2950003902 0.0
722 2 35.7838010021 22.5664003902 0.0
723 2 42.7058010021 18.9047003902 0.0
724 2 40.3865010021 19.9463003902 0.0
725 2 40.7546010021 17.2883003902 0.0
726 2 48.1630010021 16.9667003902 0.0
727 2 49.9754010021 19.2082003902 0.0
728 2 47.6583010021 19.4795003902 0.0
729 2 54.6356010021 19.4117003902 0.0
730 2 53.9538010021 17.1066003902 0.0
731 2 56.6818010021 18.1594003902 0.0
732 2 59.0568010021 19.5571003902 0.0
733 2 58.4528010021 16.7731003902 0.0
734 2 63.6378010021 17.9483003902 0.0
735 2 63.2727010021 20.8031003902 0.0
736 2 65.4018010021 19.7341003902 0.0
737 2 68.1793010021 20.4654003902 0.0
738 2 67.0119010021 18.1962003902 0.0
739 2 73.2453010021 18.8543003902 0.0
740 2 70.8705010021 20.3832003902 0.0
741 2 72.8908010021 21.4567003902 0.0
742 2 74.6314010021 23.2605003902 0.0
743 2 71.8477010021 23.6343003902 0.0
744 2 3.49911100213 21.9664003902 0.0
745 2 1.64588100213 24.2287003902 0.0
746 2 10.4953010021 27.5875003902 0.0
747 2 8.12832100213 26.3009003902 0.0
748 2 14.9831010021 27.5673003902 0.0
749 2 14.6491010021 25.0160003902 0.0
750 2 17.0006010021 25.9121003902 0.0
751 2 19.5391010021 26.2112003902 0.0
752 2 17.7800010021 23.9236003902 0.0
753 2 24.2461010021 25.6701003902 0.0
754 2 22.7125010021 23.6020003902 0.0
755 2 21.8071010021 26.2576003902 0.0
756 2 26.3584010021 22.1197003902 0.0
757 2 28.6007010021 23.1765003902 0.0
758 2 26.4821010021 24.7744003902 0.0
759 2 31.9894010021 26.1962003902 0.0
760 2 31.1717010021 23.6921003902 0.0
761 2 33.7353010021 24.3301003902 0.0
762 2 39.4066010021 24.5566003902 0.0
763 2 42.1264010021 24.6736003902 0.0
764 2 40.3529010021 22.5341003902 0.0
765 2 49.0439010021 23.4645003902 0.0
766 2 46.9352010021 24.8009003902 0.0
767 2 46.9739010021 22.0269003902 0.0
768 2 51.7571010021 24.1443003902 0.0
769 2 50.7150010021 21.7772003902 0.0
770 2 54.3860010021 24.1268003902 0.0
771 2 57.0908010021 23.5736003902 0.0
772 2 54.8691010021 21.9587003902 0.0
773 2 59.6558010021 24.7583003902 0.0
774 2 59.1093010021 22.2495003902 0.0
775 2 62.2314010021 25.5424003902 0.0
776 2 64.9904010021 25.8653003902 0.0
777 2 63.2334010021 23.5336003902 0.0
778 2 69.8232010021 25.3459003902 0.0
779 2 69.7755010021 22.5830003902 0.0
780 2 0.312181002125 26.9064003902 0.0
781 2 1.29528100213 29.1608003902 0.0
782 2 76.1228010021 28.9810003902 0.0
783 2 5.98944100213 27.4364003902 0.0
784 2 6.70654100213 29.9693003902 0.0
785 2 4.10113100213 29.2931003902 0.0
786 2 11.0152010021 30.1886003902 0.0
787 2 12.1779010021 32.2068003902 0.0
788 2 9.20780100213 31.4888003902 0.0
789 2 17.8190010021 30.6196003902 0.0
790 2 15.4294010021 29.9831003902 0.0