# input file

1350 atoms
2 atom types

0.0 78.9442678501 xlo xhi
0.0 80.9152054868 ylo yhi
-10.0 10.0 zlo zhi
0.0 0.0 0.0 xy xz yz

Masses

1 28.0855 #Si
2 15.9994 #O

Atoms

1 1 3.32196170192 0.984312743395 0.0
2 1 8.27184170192 2.3292727434 0.0
3 1 14.1682717019 2.0073727434 0.0
4 1 19.6008717019 1.0926727434 0.0
5 1 25.1774717019 2.9347427434 0.0
6 1 27.9398717019 1.7198727434 0.0
7 1 34.6448717019 0.552262743395 0.0
8 1 39.9083717019 2.2963727434 0.0
9 1 46.4368717019 1.4931927434 0.0
10 1 49.8523717019 4.2880627434 0.0
11 1 55.0584717019 2.4742727434 0.0
12 1 61.2908717019 1.4563627434 0.0
13 1 66.5990717019 1.2124527434 0.0
14 1 71.2024717019 0.894502743395 0.0
15 1 76.7159717019 80.8566027434 0.0
16 1 0.526405701918 4.5029427434 0.0
17 1 5.60380170192 6.1426927434 0.0
18 1 9.81127170192 4.9220127434 0.0
19 1 17.1688717019 5.7203127434 0.0
20 1 22.4134717019 7.8940727434 0.0
21 1 27.1027717019 7.5562827434 0.0
22 1 30.0851717019 3.8184727434 0.0
23 1 36.5804717019 7.6267927434 0.0
24 1 41.5463717019 4.7901327434 0.0
25 1 48.0432717019 6.6665527434 0.0
26 1 52.7283717019 7.4819527434 0.0
27 1 56.8983717019 4.8553427434 0.0
28 1 64.0663717019 5.8657027434 0.0
29 1 69.1843717019 6.0240827434 0.0
30 1 74.2758717019 4.5038827434 0.0
31 1 2.06722170192 9.5461027434 0.0
32 1 8.51819170192 10.5310027434 0.0
33 1 15.0738717019 10.1259027434 0.0
34 1 18.0699717019 10.3378027434 0.0
35 1 23.0554717019 10.8273027434 0.0
36 1 30.8226717019 9.6947027434 0.0
37 1 35.6868717019 10.5058027434 0.0
38 1 40.3572717019 9.9654027434 0.0
39 1 45.0285717019 11.5939027434 0.0
40 1 48.1113717019 14.0039027434 0.0
41 1 55.7961717019 10.6429027434 0.0
42 1 60.9025717019 9.7412027434 0.0
43 1 65.0653717019 8.7381527434 0.0
44 1 73.2654717019 9.3603027434 0.0
45 1 76.2179717019 8.9111327434 0.0
46 1 0.862111701918 13.5835027434 0.0
47 1 3.49550170192 12.1653027434 0.0
48 1 9.67080170192 15.3718027434 0.0
49 1 14.7686717019 15.6604027434 0.0
50 1 20.5790717019 15.2101027434 0.0
51 1 26.2622717019 15.2881027434 0.0
52 1 32.0796717019 14.6925027434 0.0
53 1 37.6091717019 15.0743027434 0.0
54 1 45.1642717019 14.5926027434 0.0
55 1 51.0973717019 14.2504027434 0.0
56 1 55.6751717019 15.2214027434 0.0
57 1 58.6169717019 14.6703027434 0.0
58 1 63.2105717019 14.3741027434 0.0
59 1 68.3756717019 14.5829027434 0.0
60 1 73.4618717019 14.8267027434 0.0
61 1 1.75209170192 18.7039027434 0.0
62 1 5.63024170192 20.8508027434 0.0
63 1 13.3410717019 21.2928027434 0.0
64 1 18.7771717019 19.1242027434 0.0
65 1 23.5555717019 19.3229027434 0.0
66 1 29.1968717019 18.8601027434 0.0
67 1 34.3286717019 19.1204027434 0.0
68 1 39.4336717019 19.8287027434 0.0
69 1 44.1097717019 19.5836027434 0.0
70 1 49.5533717019 19.8081027434 0.0
71 1 54.3195717019 20.6898027434 0.0
72 1 59.9241717019 19.3286027434 0.0
73 1 65.8264717019 19.0404027434 0.0
74 1 71.4047717019 19.2655027434 0.0
75 1 76.1413717019 19.7200027434 0.0
76 1 78.6859717019 24.0988027434 0.0
77 1 4.43271170192 23.6005027434 0.0
78 1 8.46617170192 21.8370027434 0.0
79 1 17.0031717019 23.6294027434 0.0
80 1 21.3520717019 24.0866027434 0.0
81 1 26.4400717019 23.1089027434 0.0
82 1 31.4497717019 23.5764027434 0.0
83 1 37.3469717019 26.6737027434 0.0
84 1 42.3313717019 24.5622027434 0.0
85 1 47.4874717019 23.8857027434 0.0
86 1 51.9424717019 27.2821027434 0.0
87 1 57.9818717019 23.7424027434 0.0
88 1 62.8813717019 24.1782027434 0.0
89 1 68.5195717019 25.8481027434 0.0
90 1 73.9027717019 24.3137027434 0.0
91 1 2.16264170192 28.7334027434 0.0
92 1 6.73543170192 27.5775027434 0.0
93 1 14.8878717019 27.0139027434 0.0
94 1 17.8092717019 26.5002027434 0.0
95 1 24.4945717019 28.0530027434 0.0
96 1 28.0879717019 30.5380027434 0.0
97 1 34.8644717019 28.3877027434 0.0
98 1 40.5761717019 29.8008027434 0.0
99 1 45.3742717019 28.7053027434 0.0
100 1 50.5122717019 29.9123027434 0.0
101 1 54.6976717019 28.4749027434 0.0
102 1 62.0679717019 27.0883027434 0.0
103 1 66.9430717019 28.3936027434 0.0
104 1 71.4722717019 29.0899027434 0.0
105 1 76.3934717019 29.0736027434 0.0
106 1 78.7581717019 33.8057027434 0.0
107 1 5.30261170192 32.9938027434 0.0
108 1 10.0946717019 31.6547027434 0.0
109 1 15.2736717019 33.5669027434 0.0
110 1 20.9426717019 32.6309027434 0.0
111 1 26.2474717019 32.8690027434 0.0
112 1 35.0868717019 31.4019027434 0.0
113 1 37.8874717019 34.4460027434 0.0
114 1 44.5833717019 33.6488027434 0.0
115 1 47.5726717019 33.6736027434 0.0
116 1 51.7234717019 32.6577027434 0.0
117 1 58.6461717019 31.4215027434 0.0
118 1 63.6665717019 32.2705027434 0.0
119 1 69.1810717019 33.6234027434 0.0
120 1 73.4261717019 35.9413027434 0.0
121 1 1.69869170192 36.1647027434 0.0
122 1 9.48350170192 36.5584027434 0.0
123 1 14.5500717019 36.4627027434 0.0
124 1 18.5890717019 39.6281027434 0.0
125 1 21.8148717019 35.5317027434 0.0
126 1 29.0355717019 36.2157027434 0.0
127 1 34.1841717019 37.3840027434 0.0
128 1 40.1979717019 39.6184027434 0.0
129 1 45.3931717019 40.9789027434 0.0
130 1 51.2361717019 38.0401027434 0.0
131 1 56.6317717019 36.6571027434 0.0
132 1 61.4110717019 36.3282027434 0.0
133 1 66.9619717019 38.8405027434 0.0
134 1 72.3226717019 38.7312027434 0.0
135 1 76.4971717019 38.6917027434 0.0
136 1 0.506017701918 41.9313027434 0.0
137 1 8.53897170192 40.5780027434 0.0
138 1 11.5330717019 41.0608027434 0.0
139 1 16.9111717019 42.1414027434 0.0
140 1 23.4355717019 40.7393027434 0.0
141 1 26.4459717019 40.9251027434 0.0
142 1 31.2030717019 41.1085027434 0.0
143 1 35.5314717019 43.0665027434 0.0
144 1 43.4089717019 43.1915027434 0.0
145 1 47.7619717019 42.8161027434 0.0
146 1 54.3768717019 41.4918027434 0.0
147 1 59.3964717019 41.3689027434 0.0
148 1 64.8519717019 40.9765027434 0.0
149 1 69.4684717019 43.0916027434 0.0
150 1 74.4421717019 43.8876027434 0.0
151 1 3.40281170192 45.8674027434 0.0
152 1 8.16514170192 47.8938027434 0.0
153 1 13.7336717019 45.8808027434 0.0
154 1 18.9733717019 47.2581027434 0.0
155 1 23.6962717019 45.7498027434 0.0
156 1 29.1563717019 45.9053027434 0.0
157 1 34.5091717019 45.9136027434 0.0
158 1 41.7717717019 46.6818027434 0.0
159 1 44.6401717019 45.9150027434 0.0
160 1 52.7777717019 45.9528027434 0.0
161 1 55.3155717019 44.3338027434 0.0
162 1 62.1418717019 45.4117027434 0.0
163 1 66.2568717019 46.4483027434 0.0
164 1 70.2653717019 45.9805027434 0.0
165 1 77.3132717019 47.1638027434 0.0
166 1 1.05916170192 50.9159027434 0.0
167 1 6.44518170192 50.3698027434 0.0
168 1 11.5933717019 50.3687027434 0.0
169 1 14.7888717019 53.5150027434 0.0
170 1 25.3433717019 52.4243027434 0.0
171 1 24.5499717019 49.5202027434 0.0
172 1 32.5760717019 50.3182027434 0.0
173 1 35.5837717019 50.6319027434 0.0
174 1 41.1806717019 51.3879027434 0.0
175 1 47.0355717019 51.4647027434 0.0
176 1 52.2386717019 51.6045027434 0.0
177 1 60.0774717019 49.9308027434 0.0
178 1 62.9555717019 50.8725027434 0.0
179 1 67.8228717019 51.3468027434 0.0
180 1 72.7577717019 49.6478027434 0.0
181 1 2.48005170192 54.6437027434 0.0
182 1 7.76911170192 54.6315027434 0.0
183 1 12.6895717019 55.6847027434 0.0
184 1 16.5214717019 57.6727027434 0.0
185 1 20.3810717019 55.5404027434 0.0
186 1 27.6229717019 56.3834027434 0.0
187 1 32.5476717019 55.7241027434 0.0
188 1 38.2285717019 55.0669027434 0.0
189 1 43.9114717019 55.4144027434 0.0
190 1 49.5138717019 56.1710027434 0.0
191 1 56.0178717019 55.3431027434 0.0
192 1 59.0151717019 55.1651027434 0.0
193 1 65.3026717019 55.9644027434 0.0
194 1 70.7110717019 54.9995027434 0.0
195 1 76.2915717019 55.1091027434 0.0
196 1 78.8335717019 59.4635027434 0.0
197 1 5.03575170192 59.0047027434 0.0
198 1 9.00425170192 61.9223027434 0.0
199 1 13.4801717019 63.3932027434 0.0
200 1 19.0835717019 61.3654027434 0.0
201 1 24.4649717019 60.1648027434 0.0
202 1 29.1270717019 58.9726027434 0.0
203 1 36.0907717019 59.2460027434 0.0
204 1 40.3349717019 61.2501027434 0.0
205 1 46.1319717019 59.9500027434 0.0
206 1 51.7420717019 61.0151027434 0.0
207 1 57.8046717019 59.4253027434 0.0
208 1 60.4398717019 57.8537027434 0.0
209 1 68.0472717019 59.7957027434 0.0
210 1 73.3113717019 59.2201027434 0.0
211 1 3.96439170192 63.4710027434 0.0
212 1 6.93044170192 64.1074027434 0.0
213 1 11.6216717019 65.7874027434 0.0
214 1 16.9235717019 65.8171027434 0.0
215 1 22.6078717019 64.8548027434 0.0
216 1 28.0989717019 64.1816027434 0.0
217 1 33.5591717019 64.2790027434 0.0
218 1 39.3371717019 64.0921027434 0.0
219 1 45.3305717019 64.5971027434 0.0
220 1 48.3379717019 64.4763027434 0.0
221 1 53.5715717019 65.6895027434 0.0
222 1 59.2688717019 64.7442027434 0.0
223 1 65.0649717019 64.0598027434 0.0
224 1 72.0051717019 63.7655027434 0.0
225 1 75.0118717019 63.4042027434 0.0
226 1 77.5413717019 68.1729027434 0.0
227 1 4.12224170192 69.8746027434 0.0
228 1 9.01300170192 71.4891027434 0.0
229 1 14.6437717019 70.1886027434 0.0
230 1 20.3060717019 69.1255027434 0.0
231 1 25.8547717019 68.6798027434 0.0
232 1 29.8637717019 70.8561027434 0.0
233 1 36.5550717019 68.3117027434 0.0
234 1 42.1883717019 69.2383027434 0.0
235 1 46.8499717019 69.3238027434 0.0
236 1 51.4049717019 69.3441027434 0.0
237 1 55.1387717019 68.2815027434 0.0
238 1 61.7855717019 68.3306027434 0.0
239 1 67.0857717019 69.1632027434 0.0
240 1 72.0761717019 68.9327027434 0.0
241 1 2.73546170192 72.5621027434 0.0
242 1 7.84218170192 74.2711027434 0.0
243 1 13.0385717019 74.5212027434 0.0
244 1 18.4927717019 73.4251027434 0.0
245 1 23.0239717019 75.1735027434 0.0
246 1 28.4281717019 73.4831027434 0.0
247 1 32.5186717019 72.2424027434 0.0
248 1 39.6809717019 72.6258027434 0.0
249 1 45.3572717019 73.9955027434 0.0
250 1 48.3711717019 74.1399027434 0.0
251 1 53.7890717019 74.1031027434 0.0
252 1 58.7067717019 73.2195027434 0.0
253 1 63.7328717019 73.0073027434 0.0
254 1 68.2335717019 71.9778027434 0.0
255 1 75.9286717019 72.6404027434 0.0
256 1 0.361133701918 1.4986127434 0.0
257 1 5.39538170192 3.1544027434 0.0
258 1 12.8026717019 4.6987327434 0.0
259 1 17.0856717019 2.7274927434 0.0
260 1 22.5863717019 1.4271527434 0.0
261 1 24.6269717019 5.8813127434 0.0
262 1 32.9597717019 3.0227427434 0.0
263 1 36.9280717019 2.4780427434 0.0
264 1 44.4173717019 3.8060727434 0.0
265 1 49.4535717019 1.3447127434 0.0
266 1 52.8239717019 4.4833927434 0.0
267 1 59.7951717019 4.0807527434 0.0
268 1 64.0206717019 2.8112527434 0.0
269 1 69.0241717019 2.9978927434 0.0
270 1 74.1452717019 1.5108327434 0.0
271 1 2.65651170192 6.6178527434 0.0
272 1 8.27287170192 7.5174627434 0.0
273 1 14.5347717019 7.1603927434 0.0
274 1 19.4310717019 7.6673127434 0.0
275 1 27.9190717019 10.4268027434 0.0
276 1 29.9985717019 6.8128627434 0.0
277 1 35.2420717019 4.9517427434 0.0
278 1 39.5433717019 7.0729227434 0.0
279 1 45.0496717019 6.7496427434 0.0
280 1 50.0614717019 8.8770727434 0.0
281 1 55.7165717019 7.6427527434 0.0
282 1 61.1976717019 6.7404427434 0.0
283 1 68.0654717019 8.8391327434 0.0
284 1 72.1237717019 6.5899827434 0.0
285 1 76.8725717019 5.9889727434 0.0
286 1 78.3810717019 10.9623027434 0.0
287 1 6.43338170192 12.7134027434 0.0
288 1 10.7316717019 12.5595027434 0.0
289 1 13.7277717019 12.8181027434 0.0
290 1 20.4000717019 12.2221027434 0.0
291 1 25.6410717019 12.3577027434 0.0
292 1 32.9617717019 11.8004027434 0.0
293 1 38.2291717019 12.1140027434 0.0
294 1 43.2596717019 9.1848027434 0.0
295 1 47.9649717019 11.0213027434 0.0
296 1 53.7867717019 12.8852027434 0.0
297 1 58.6101717019 11.6731027434 0.0
298 1 63.4605717019 11.3240027434 0.0
299 1 69.1572717019 11.6678027434 0.0
300 1 72.1325717019 12.1289027434 0.0
301 1 78.7815717019 16.3895027434 0.0
302 1 6.68471170192 15.7175027434 0.0
303 1 12.1034717019 17.1345027434 0.0
304 1 17.7550717019 16.2968027434 0.0
305 1 23.4055717019 16.3230027434 0.0
306 1 29.2559717019 15.8504027434 0.0
307 1 34.7538717019 16.1307027434 0.0
308 1 40.0408717019 16.8776027434 0.0
309 1 43.0613717019 16.7569027434 0.0
310 1 51.0921717019 17.2415027434 0.0
311 1 54.0372717019 17.7210027434 0.0
312 1 61.0080717019 16.4804027434 0.0
313 1 65.7288717019 16.0251027434 0.0
314 1 70.8549717019 16.3090027434 0.0
315 1 75.8034717019 16.7299027434 0.0
316 1 78.8318717019 21.0766027434 0.0
317 1 4.68831170192 17.9988027434 0.0
318 1 10.7405717019 19.8367027434 0.0
319 1 16.2791717019 20.7446027434 0.0
320 1 21.0936717019 21.0645027434 0.0
321 1 26.4577717019 20.1136027434 0.0
322 1 31.6813717019 20.5670027434 0.0
323 1 36.6697717019 21.0083027434 0.0
324 1 41.8701717019 21.5866027434 0.0
325 1 46.7880717019 20.9548027434 0.0
326 1 51.6217717019 21.9873027434 0.0
327 1 57.3003717019 20.8246027434 0.0
328 1 64.8113717019 21.8754027434 0.0
329 1 68.5800717019 20.2298027434 0.0
330 1 73.6073717019 21.3169027434 0.0
331 1 2.27531170192 25.7083027434 0.0
332 1 7.25574170192 24.6025027434 0.0
333 1 14.0594717019 24.1692027434 0.0
334 1 20.7202717019 27.0511027434 0.0
335 1 24.1693717019 25.0612027434 0.0
336 1 28.7913717019 24.9483027434 0.0
337 1 33.6130717019 25.6510027434 0.0
338 1 40.3392717019 26.8148027434 0.0
339 1 45.1082717019 25.7136027434 0.0
340 1 50.3818717019 24.7124027434 0.0
341 1 57.0643717019 26.6144027434 0.0
342 1 60.5898717019 22.2668027434 0.0
343 1 67.5648717019 23.0250027434 0.0
344 1 71.4978717019 26.1003027434 0.0
345 1 76.3742717019 26.0383027434 0.0
346 1 78.8814717019 30.7733027434 0.0
347 1 4.89383170192 29.9848027434 0.0
348 1 9.47977170192 28.7392027434 0.0
349 1 12.4457717019 28.6770027434 0.0
350 1 22.0204717019 29.7783027434 0.0
351 1 27.4690717019 27.6369027434 0.0
352 1 36.0916717019 23.9611027434 0.0
353 1 38.0894717019 31.4740027434 0.0
354 1 43.3505717019 30.9121027434 0.0
355 1 47.6362717019 30.6657027434 0.0
356 1 54.4789717019 31.4952027434 0.0
357 1 59.4001717019 28.4961027434 0.0
358 1 64.0964717019 29.2988027434 0.0
359 1 68.9045717019 30.6449027434 0.0
360 1 73.9211717019 30.7969027434 0.0
361 1 4.68845170192 35.9524027434 0.0
362 1 8.15449170192 33.8904027434 0.0
363 1 13.0619717019 31.5850027434 0.0
364 1 18.2329717019 33.9130027434 0.0
365 1 24.7982717019 35.4924027434 0.0
366 1 29.2045717019 33.2588027434 0.0
367 1 34.8968717019 34.4318027434 0.0
368 1 39.8981717019 36.6467027434 0.0
369 1 42.8245717019 36.0605027434 0.0
370 1 50.1502717019 35.2227027434 0.0
371 1 56.5901717019 33.6219027434 0.0
372 1 60.8947717019 33.3754027434 0.0
373 1 64.2136717019 35.2167027434 0.0
374 1 72.1660717019 33.2427027434 0.0
375 1 76.4017717019 35.6857027434 0.0
376 1 0.524320701918 38.9350027434 0.0
377 1 6.88992170192 38.0436027434 0.0
378 1 12.0508717019 38.1064027434 0.0
379 1 17.5126717019 36.8344027434 0.0
380 1 21.3904717019 38.5277027434 0.0
381 1 26.5726717019 37.9135027434 0.0
382 1 31.2942717019 38.1294027434 0.0
383 1 38.3277717019 41.9745027434 0.0
384 1 43.1490717019 39.0228027434 0.0
385 1 49.9609717019 40.7785027434 0.0
386 1 54.2227717019 38.4825027434 0.0
387 1 59.1495717019 38.3397027434 0.0
388 1 67.1433717019 35.8469027434 0.0
389 1 69.6755717019 40.1102027434 0.0
390 1 74.4175717019 40.8714027434 0.0
391 1 3.33410170192 42.8790027434 0.0
392 1 6.30288170192 42.5575027434 0.0
393 1 13.9699717019 42.8683027434 0.0
394 1 19.0670717019 44.2462027434 0.0
395 1 21.9323717019 43.3316027434 0.0
396 1 28.7668717019 42.8896027434 0.0
397 1 34.1321717019 40.4122027434 0.0
398 1 40.5406717019 43.9674027434 0.0
399 1 47.6267717019 45.8502027434 0.0
400 1 51.8490717019 43.0955027434 0.0
401 1 58.2934717019 44.2007027434 0.0
402 1 62.2137717019 42.3947027434 0.0
403 1 66.5071717019 43.4692027434 0.0
404 1 73.1623717019 46.6364027434 0.0
405 1 77.4186717019 44.1602027434 0.0
406 1 1.24835170192 47.9378027434 0.0
407 1 6.36146170192 45.5352027434 0.0
408 1 11.1318717019 47.4104027434 0.0
409 1 16.0128717019 47.8747027434 0.0
410 1 21.8716717019 48.1361027434 0.0
411 1 26.3731717019 47.1109027434 0.0
412 1 31.8384717019 47.3624027434 0.0
413 1 36.7872717019 47.8918027434 0.0
414 1 39.6760717019 48.7783027434 0.0
415 1 48.4483717019 48.7641027434 0.0
416 1 51.4658717019 48.6869027434 0.0
417 1 59.5660717019 46.9344027434 0.0
418 1 63.7066717019 47.9665027434 0.0
419 1 68.4997717019 48.4079027434 0.0
420 1 75.7473717019 49.7423027434 0.0
421 1 3.85556170192 51.9539027434 0.0
422 1 9.01231170192 51.9153027434 0.0
423 1 14.5856717019 50.5268027434 0.0
424 1 17.4697717019 54.8320027434 0.0
425 1 23.2297717019 54.5812027434 0.0
426 1 28.1896717019 53.4359027434 0.0
427 1 31.1766717019 53.0098027434 0.0
428 1 38.2322717019 52.0990027434 0.0
429 1 44.0947717019 52.3831027434 0.0
430 1 49.5986717019 53.1292027434 0.0
431 1 55.1490717019 52.4781027434 0.0
432 1 58.1689717019 52.2605027434 0.0
433 1 65.2088717019 52.9137027434 0.0
434 1 70.7738717019 51.9717027434 0.0
435 1 77.3296717019 52.2859027434 0.0
436 1 0.0465087019184 56.4460027434 0.0
437 1 5.11653170192 56.0235027434 0.0
438 1 9.87787170192 56.7352027434 0.0
439 1 13.6568717019 58.5218027434 0.0
440 1 19.4168717019 58.3888027434 0.0
441 1 24.7332717019 57.1752027434 0.0
442 1 32.1053717019 58.7305027434 0.0
443 1 35.4864717019 56.3083027434 0.0
444 1 40.9806717019 56.2922027434 0.0
445 1 46.5548717019 56.9514027434 0.0
446 1 51.9783717019 58.0091027434 0.0
447 1 55.0229717019 58.1557027434 0.0
448 1 63.4742717019 58.4257027434 0.0
449 1 68.2261717019 56.7689027434 0.0
450 1 73.4761717019 56.2151027434 0.0
451 1 2.61320170192 60.7759027434 0.0
452 1 8.02972170192 59.1064027434 0.0
453 1 11.8335717019 60.9126027434 0.0
454 1 16.4549717019 62.8661027434 0.0
455 1 22.0317717019 61.9248027434 0.0
456 1 27.2477717019 61.3047027434 0.0
457 1 33.8195717019 61.2330027434 0.0
458 1 39.0302717019 58.5936027434 0.0
459 1 43.3222717019 61.1304027434 0.0
460 1 48.7500717019 61.5005027434 0.0
461 1 54.2611717019 62.7494027434 0.0
462 1 57.2910717019 62.4136027434 0.0
463 1 65.2342717019 60.9661027434 0.0
464 1 70.8437717019 60.9721027434 0.0
465 1 76.0106717019 60.5637027434 0.0
466 1 77.4503717019 65.1739027434 0.0
467 1 1.51346170192 65.2132027434 0.0
468 1 8.67257170192 66.5702027434 0.0
469 1 14.2575717019 67.2278027434 0.0
470 1 19.9060717019 66.1720027434 0.0
471 1 25.4897717019 65.7063027434 0.0
472 1 30.7561717019 65.6152027434 0.0
473 1 36.4773717019 65.2737027434 0.0
474 1 42.3889717019 63.9979027434 0.0
475 1 44.5641717019 67.4488027434 0.0
476 1 50.6603717019 66.4189027434 0.0
477 1 58.0412717019 67.5293027434 0.0
478 1 62.2588717019 65.3267027434 0.0
479 1 67.3774717019 66.1319027434 0.0
480 1 70.4256717019 66.3525027434 0.0
481 1 1.60678170192 68.2090027434 0.0
482 1 7.08622170192 69.1606027434 0.0
483 1 12.0326717019 71.6912027434 0.0
484 1 17.6393717019 70.5576027434 0.0
485 1 23.1485717019 70.1459027434 0.0
486 1 28.8570717019 68.0355027434 0.0
487 1 35.2838717019 71.0642027434 0.0
488 1 39.2384717019 69.6561027434 0.0
489 1 44.4942717019 71.1401027434 0.0
490 1 49.1157717019 71.2429027434 0.0
491 1 53.8916717019 71.0404027434 0.0
492 1 59.4110717019 70.2229027434 0.0
493 1 64.2266717019 70.0528027434 0.0
494 1 71.2407717019 71.8445027434 0.0
495 1 74.9904717019 69.7684027434 0.0
496 1 78.8169717019 73.5822027434 0.0
497 1 4.84110170192 74.7189027434 0.0
498 1 10.3703717019 75.9303027434 0.0
499 1 15.9988717019 75.1651027434 0.0
500 1 21.4357717019 72.6552027434 0.0
501 1 26.0178717019 75.2645027434 0.0
502 1 31.0809717019 74.8827027434 0.0
503 1 36.8612717019 73.6470027434 0.0
504 1 41.7730717019 76.9132027434 0.0
505 1 42.3521717019 74.0112027434 0.0
506 1 51.0575717019 75.5189027434 0.0
507 1 56.5578717019 75.4024027434 0.0
508 1 61.3002717019 74.7636027434 0.0
509 1 66.3925717019 74.3894027434 0.0
510 1 73.2785717019 74.0904027434 0.0
511 1 5.02137170192 79.4246027434 0.0
512 1 10.6430717019 78.9221027434 0.0
513 1 15.8945717019 78.1776027434 0.0
514 1 21.3690717019 77.6663027434 0.0
515 1 26.3800717019 78.2401027434 0.0
516 1 31.2845717019 77.8856027434 0.0
517 1 36.5939717019 76.6558027434 0.0
518 1 41.1591717019 80.5024027434 0.0
519 1 46.8151717019 79.4069027434 0.0
520 1 51.7895717019 80.3344027434 0.0
521 1 57.2102717019 78.4158027434 0.0
522 1 62.3862717019 77.5802027434 0.0
523 1 67.6751717019 79.2838027434 0.0
524 1 73.2439717019 77.1229027434 0.0
525 1 0.0363267019184 76.5975027434 0.0
526 1 3.03918170192 77.1388027434 0.0
527 1 7.94058170192 80.2545027434 0.0
528 1 13.4706717019 79.9868027434 0.0
529 1 18.7495717019 79.1256027434 0.0
530 1 23.6853717019 79.5606027434 0.0
531 1 28.9450717019 79.7905027434 0.0
532 1 34.2212717019 78.5008027434 0.0
533 1 39.1274717019 78.2874027434 0.0
534 1 43.8183717019 79.0874027434 0.0
535 1 49.6499717019 78.2117027434 0.0
536 1 54.8422717019 80.3692027434 0.0
537 1 60.0748717019 79.5613027434 0.0
538 1 65.4215717019 77.2599027434 0.0
539 1 70.6948717019 78.8360027434 0.0
540 1 76.2119717019 77.8821027434 0.0
541 2 4.13898170192 80.6465027434 0.0
542 2 4.28409170192 2.1477127434 0.0
543 2 1.82696170192 1.1331027434 0.0
544 2 8.21248170192 0.826582743395 0.0
545 2 9.11400170192 3.5810227434 0.0
546 2 6.82271170192 2.7106827434 0.0
547 2 13.7601717019 0.556522743395 0.0
548 2 15.6514717019 2.2857427434 0.0
549 2 13.4214717019 3.3206427434 0.0
550 2 19.1575717019 80.5712027434 0.0
551 2 21.0787717019 1.4023427434 0.0
552 2 18.3690717019 1.9522427434 0.0
553 2 24.8900717019 4.4125227434 0.0
554 2 23.8388717019 2.2518027434 0.0
555 2 26.5376717019 2.2847627434 0.0
556 2 28.4967717019 0.317542743395 0.0
557 2 28.9976717019 2.7924727434 0.0
558 2 34.4638717019 79.9876027434 0.0
559 2 35.9112717019 1.3680927434 0.0
560 2 33.6429717019 1.6832827434 0.0
561 2 40.6042717019 0.975282743395 0.0
562 2 40.6967717019 3.5533627434 0.0
563 2 38.4138717019 2.3638127434 0.0
564 2 46.5158717019 80.8920027434 0.0
565 2 47.9478717019 1.4472327434 0.0
566 2 45.3849717019 2.6166127434 0.0
567 2 51.3400717019 4.3491127434 0.0
568 2 49.6483717019 2.8218227434 0.0
569 2 48.8761717019 5.4154327434 0.0
570 2 55.0440717019 0.969032743395 0.0
571 2 56.0548717019 3.6083727434 0.0
572 2 53.8599717019 3.4045327434 0.0
573 2 60.6491717019 0.0737127433951 0.0
574 2 62.6988717019 2.0537427434 0.0
575 2 60.4571717019 2.7297927434 0.0
576 2 67.0966717019 80.6956027434 0.0
577 2 67.7682717019 2.1687027434 0.0
578 2 65.2792717019 1.9589227434 0.0
579 2 70.9746717019 80.3218027434 0.0
580 2 72.6837717019 1.1714627434 0.0
581 2 70.1650717019 1.9932027434 0.0
582 2 75.4220717019 0.720702743395 0.0
583 2 78.0395717019 0.681842743395 0.0
584 2 76.4847717019 79.3736027434 0.0
585 2 78.1717717019 5.2573727434 0.0
586 2 1.64690170192 5.5093927434 0.0
587 2 0.422893701918 3.0092427434 0.0
588 2 5.48596170192 4.6457127434 0.0
589 2 6.88290170192 6.9193427434 0.0
590 2 4.14163170192 6.4646327434 0.0
591 2 11.3082717019 4.8269527434 0.0
592 2 9.13461170192 6.2741327434 0.0
593 2 17.1865717019 4.2263727434 0.0
594 2 18.3886717019 6.5933527434 0.0
595 2 15.8673717019 6.4589027434 0.0
596 2 23.4464717019 6.8089127434 0.0
597 2 22.8189717019 9.3416027434 0.0
598 2 20.9279717019 7.6750827434 0.0
599 2 25.8724717019 6.7184127434 0.0
600 2 28.5173717019 7.0685527434 0.0
601 2 27.3460717019 9.0337827434 0.0
602 2 31.5099717019 3.3530927434 0.0
603 2 30.1056717019 5.3186627434 0.0
604 2 35.7829717019 6.3454727434 0.0
605 2 38.0424717019 7.2600427434 0.0
606 2 36.0485717019 9.0355327434 0.0
607 2 42.9508717019 4.2343627434 0.0
608 2 40.5931717019 5.9782027434 0.0
609 2 49.0316717019 7.7833927434 0.0
610 2 46.5565717019 6.7969227434 0.0
611 2 54.2110717019 7.6614427434 0.0
612 2 52.8034717019 5.9837227434 0.0
613 2 51.4604717019 8.3107427434 0.0
614 2 58.3371717019 4.4401827434 0.0
615 2 56.3825717019 6.2842527434 0.0
616 2 64.1435717019 4.3401327434 0.0
617 2 64.6672717019 7.2670627434 0.0
618 2 62.6294717019 6.3065627434 0.0
619 2 69.0150717019 4.5152827434 0.0
620 2 70.6652717019 6.2920827434 0.0
621 2 68.5830717019 7.4132827434 0.0
622 2 74.2290717019 3.0129827434 0.0
623 2 75.6018717019 5.1985027434 0.0
624 2 73.1500717019 5.4964327434 0.0
625 2 2.33791170192 8.0822027434 0.0
626 2 2.94570170192 10.7655027434 0.0
627 2 0.696014701918 10.1414027434 0.0
628 2 9.73475170192 11.4298027434 0.0
629 2 8.44021170192 9.0208127434 0.0
630 2 7.41958170192 11.5760027434 0.0
631 2 14.3917717019 11.4634027434 0.0
632 2 14.6525717019 8.6694427434 0.0
633 2 16.5738717019 10.3010027434 0.0
634 2 18.7521717019 9.0016827434 0.0
635 2 19.1555717019 11.3800027434 0.0
636 2 21.7395717019 11.5478027434 0.0
637 2 24.3349717019 11.6123027434 0.0
638 2 30.6393717019 8.1863927434 0.0
639 2 31.9167717019 10.7126027434 0.0
640 2 29.4081717019 10.2343027434 0.0
641 2 36.9332717019 11.3435027434 0.0
642 2 34.3351717019 11.1705027434 0.0
643 2 41.8329717019 9.6458027434 0.0
644 2 39.9377717019 8.5217227434 0.0
645 2 39.3910717019 11.1306027434 0.0
646 2 44.0995717019 10.4287027434 0.0
647 2 46.4605717019 11.1210027434 0.0
648 2 44.9072717019 13.0989027434 0.0
649 2 49.6009717019 14.1492027434 0.0
650 2 48.1288717019 12.5035027434 0.0
651 2 46.6901717019 14.5337027434 0.0
652 2 55.8553717019 9.1431627434 0.0
653 2 57.2023717019 11.1656027434 0.0
654 2 54.6659717019 11.6531027434 0.0
655 2 60.9528717019 8.2326527434 0.0
656 2 62.1513717019 10.5729027434 0.0
657 2 59.7229717019 10.6709027434 0.0
658 2 66.5660717019 8.8249927434 0.0
659 2 64.3563717019 10.0852027434 0.0
660 2 74.7545717019 9.1954127434 0.0
661 2 72.7351717019 10.7535027434 0.0
662 2 72.6159717019 8.0099327434 0.0
663 2 77.2175717019 10.0258027434 0.0
664 2 76.6171717019 7.4660027434 0.0
665 2 0.378433701918 14.9901027434 0.0
666 2 78.8999717019 12.3713027434 0.0
667 2 2.26856170192 13.0444027434 0.0
668 2 4.95976170192 12.4170027434 0.0
669 2 10.1350717019 13.9402027434 0.0
670 2 10.8813717019 16.2512027434 0.0
671 2 8.20243170192 15.7076027434 0.0
672 2 16.2638717019 15.9713027434 0.0
673 2 14.3218717019 14.2054027434 0.0
674 2 13.4950717019 16.5122027434 0.0
675 2 21.9922717019 15.7641027434 0.0
676 2 20.4849717019 13.7111027434 0.0
677 2 19.1463717019 15.6900027434 0.0
678 2 25.9488717019 13.8133027434 0.0
679 2 27.7608717019 15.5404027434 0.0
680 2 24.8472717019 15.8465027434 0.0
681 2 32.4897717019 13.2297027434 0.0
682 2 33.4105717019 15.4287027434 0.0
683 2 30.6447717019 15.2130027434 0.0
684 2 37.9703717019 13.6012027434 0.0
685 2 38.8456717019 15.9552027434 0.0
686 2 36.1749717019 15.5823027434 0.0
687 2 44.1020717019 15.6583027434 0.0
688 2 52.3718717019 13.4319027434 0.0
689 2 51.0676717019 15.7540027434 0.0
690 2 54.9455717019 16.5325027434 0.0
691 2 54.7426717019 14.0494027434 0.0
692 2 57.1599717019 15.0383027434 0.0
693 2 58.7146717019 13.1696027434 0.0
694 2 59.7773717019 15.6046027434 0.0
695 2 62.1252717019 15.4511027434 0.0
696 2 64.4874717019 15.1839027434 0.0
697 2 63.3618717019 12.8512027434 0.0
698 2 68.6248717019 13.0907027434 0.0
699 2 69.5924717019 15.4863027434 0.0
700 2 67.0435717019 15.2855027434 0.0
701 2 72.9236717019 13.4117027434 0.0
702 2 74.6823717019 15.7206027434 0.0
703 2 72.1702717019 15.5906027434 0.0
704 2 0.797540701918 17.5357027434 0.0
705 2 0.944331701918 19.9888027434 0.0
706 2 3.20127170192 18.2888027434 0.0
707 2 5.20760170192 19.4157027434 0.0
708 2 7.08937170192 21.2203027434 0.0
709 2 4.81342170192 22.1298027434 0.0
710 2 12.0302717019 20.6128027434 0.0
711 2 14.7738717019 20.8064027434 0.0
712 2 13.4572717019 22.7995027434 0.0
713 2 18.2865717019 17.7100027434 0.0
714 2 19.9450717019 20.0786027434 0.0
715 2 17.4718717019 19.8657027434 0.0
716 2 23.4178717019 17.8280027434 0.0
717 2 25.0178717019 19.6889027434 0.0
718 2 22.3624717019 20.2372027434 0.0
719 2 30.4303717019 19.7238027434 0.0
720 2 29.2791717019 17.3620027434 0.0
721 2 27.8068717019 19.4532027434 0.0
722 2 34.5512717019 17.6322027434 0.0
723 2 35.5084717019 20.0570027434 0.0
724 2 32.9967717019 19.8314027434 0.0
725 2 39.6996717019 18.3493027434 0.0
726 2 40.6043717019 20.7746027434 0.0
727 2 38.0541717019 20.4262027434 0.0
728 2 43.6495717019 18.1508027434 0.0
729 2 45.4773717019 20.2223027434 0.0
730 2 43.0239717019 20.6231027434 0.0
731 2 48.1257717019 20.2605027434 0.0
732 2 50.5741717019 20.9118027434 0.0
733 2 50.1970717019 18.4483027434 0.0
734 2 54.2116717019 19.1955027434 0.0
735 2 55.8070717019 20.7778027434 0.0
736 2 53.0319717019 21.4601027434 0.0
737 2 60.5548717019 17.9465027434 0.0
738 2 60.4676717019 20.7563027434 0.0
739 2 58.4986717019 19.8990027434 0.0
740 2 65.6835717019 17.5394027434 0.0
741 2 67.2674717019 19.4990027434 0.0
742 2 65.0824717019 20.3730027434 0.0
743 2 71.1628717019 17.7820027434 0.0
744 2 72.4873717019 20.3059027434 0.0
745 2 69.9957717019 19.7818027434 0.0
746 2 75.8808717019 18.2377027434 0.0
747 2 77.4761717019 20.4086027434 0.0
748 2 74.8987717019 20.5562027434 0.0
749 2 78.7906717019 22.5878027434 0.0
750 2 1.00287170192 24.9122027434 0.0
751 2 77.5284717019 25.0640027434 0.0
752 2 5.82022170192 24.1636027434 0.0
753 2 3.36228170192 24.6565027434 0.0
754 2 8.09663170192 23.3266027434 0.0
755 2 9.58774170192 20.8192027434 0.0
756 2 16.8564717019 22.1433027434 0.0
757 2 17.6216717019 24.9928027434 0.0
758 2 15.5311717019 23.8946027434 0.0
759 2 21.1060717019 22.5851027434 0.0
760 2 20.9707717019 25.5545027434 0.0
761 2 22.8077717019 24.4614027434 0.0
762 2 26.4680717019 21.6190027434 0.0
763 2 27.6607717019 23.9711027434 0.0
764 2 25.2815717019 24.0600027434 0.0
765 2 31.5840717019 22.0759027434 0.0
766 2 32.4739717019 24.6737027434 0.0
767 2 30.1258717019 24.2878027434 0.0
768 2 36.8866717019 25.2386027434 0.0
769 2 38.8407717019 26.7316027434 0.0
770 2 36.2048717019 27.6598027434 0.0
771 2 42.0633717019 23.0809027434 0.0
772 2 43.7322717019 25.1120027434 0.0
773 2 41.3060717019 25.6681027434 0.0
774 2 47.0896717019 22.4322027434 0.0
775 2 48.9103717019 24.3832027434 0.0
776 2 46.3193717019 24.8314027434 0.0
777 2 51.1799717019 25.9868027434 0.0
778 2 53.3623717019 27.7737027434 0.0
779 2 51.1675717019 28.5717027434 0.0
780 2 57.4835717019 22.3238027434 0.0
781 2 59.3648717019 23.1413027434 0.0
782 2 57.4395717019 25.1491027434 0.0
783 2 61.7308717019 23.2160027434 0.0
784 2 63.8842717019 23.0549027434 0.0
785 2 62.5264717019 25.6461027434 0.0
786 2 68.0134717019 24.4428027434 0.0
787 2 70.0138717019 25.8887027434 0.0
788 2 67.6648717019 27.0784027434 0.0
789 2 73.7285717019 22.8176027434 0.0
790 2 75.1311717019 25.1791027434 0.0