ITEM: TIMESTEP
0
ITEM: NUMBER OF ATOMS
1350
ITEM: BOX BOUNDS xy xz yz pp pp pp
0.0 77.7873475378 0
0.0 82.2480821526 0
-10.0 10.0 0
ITEM: ATOMS id type x y z vx vy vz
1 1 3.89407154576 2.09640107631 0.0 0.0 0.0 0.0
2 1 6.39408154576 5.42785107631 0.0 0.0 0.0 0.0
3 1 13.4523115458 0.785737076308 0.0 0.0 0.0 0.0
4 1 19.2031115458 81.8206410763 0.0 0.0 0.0 0.0
5 1 23.9424115458 0.105210076308 0.0 0.0 0.0 0.0
6 1 28.8045115458 81.9858410763 0.0 0.0 0.0 0.0
7 1 34.1644115458 0.318038076308 0.0 0.0 0.0 0.0
8 1 38.9427115458 1.13613107631 0.0 0.0 0.0 0.0
9 1 43.5999115458 2.18087107631 0.0 0.0 0.0 0.0
10 1 50.3405115458 2.57086107631 0.0 0.0 0.0 0.0
11 1 56.2303115458 2.57964107631 0.0 0.0 0.0 0.0
12 1 61.5062115458 2.88363107631 0.0 0.0 0.0 0.0
13 1 66.7957115458 2.34396107631 0.0 0.0 0.0 0.0
14 1 74.2855115458 1.95043107631 0.0 0.0 0.0 0.0
15 1 77.2440115458 2.20569107631 0.0 0.0 0.0 0.0
16 1 1.18214154576 7.13712107631 0.0 0.0 0.0 0.0
17 1 9.31261154576 6.09417107631 0.0 0.0 0.0 0.0
18 1 12.2995115458 6.11962107631 0.0 0.0 0.0 0.0
19 1 16.9926115458 3.56265107631 0.0 0.0 0.0 0.0
20 1 20.5055115458 7.20238107631 0.0 0.0 0.0 0.0
21 1 25.8817115458 4.66583107631 0.0 0.0 0.0 0.0
22 1 31.4065115458 4.44507107631 0.0 0.0 0.0 0.0
23 1 36.6142115458 5.45190107631 0.0 0.0 0.0 0.0
24 1 41.1651115458 8.76159107631 0.0 0.0 0.0 0.0
25 1 45.0453115458 4.86347107631 0.0 0.0 0.0 0.0
26 1 54.2579115458 8.37814107631 0.0 0.0 0.0 0.0
27 1 59.3569115458 7.12985107631 0.0 0.0 0.0 0.0
28 1 63.9702115458 7.09111107631 0.0 0.0 0.0 0.0
29 1 70.5517115458 6.92928107631 0.0 0.0 0.0 0.0
30 1 73.5777115458 6.87696107631 0.0 0.0 0.0 0.0
31 1 5.63405154576 10.1724410763 0.0 0.0 0.0 0.0
32 1 8.37898154576 11.4036410763 0.0 0.0 0.0 0.0
33 1 13.8419115458 11.8894410763 0.0 0.0 0.0 0.0
34 1 18.8970115458 9.79845107631 0.0 0.0 0.0 0.0
35 1 23.6500115458 9.54922107631 0.0 0.0 0.0 0.0
36 1 28.6901115458 8.79247107631 0.0 0.0 0.0 0.0
37 1 33.5202115458 9.40288107631 0.0 0.0 0.0 0.0
38 1 40.7862115458 11.7956410763 0.0 0.0 0.0 0.0
39 1 45.4027115458 10.4619410763 0.0 0.0 0.0 0.0
40 1 49.4977115458 7.18230107631 0.0 0.0 0.0 0.0
41 1 56.5122115458 12.0440410763 0.0 0.0 0.0 0.0
42 1 60.6889115458 11.9663410763 0.0 0.0 0.0 0.0
43 1 65.8034115458 11.5646410763 0.0 0.0 0.0 0.0
44 1 70.7468115458 12.3073410763 0.0 0.0 0.0 0.0
45 1 76.6874115458 11.4930410763 0.0 0.0 0.0 0.0
46 1 1.65834154576 16.1712410763 0.0 0.0 0.0 0.0
47 1 6.16800154576 15.2939410763 0.0 0.0 0.0 0.0
48 1 10.5700115458 17.9330410763 0.0 0.0 0.0 0.0
49 1 17.7788115458 14.9633410763 0.0 0.0 0.0 0.0
50 1 20.7385115458 14.4415410763 0.0 0.0 0.0 0.0
51 1 25.7279115458 13.6267410763 0.0 0.0 0.0 0.0
52 1 30.3277115458 13.8124410763 0.0 0.0 0.0 0.0
53 1 34.7599115458 16.8448410763 0.0 0.0 0.0 0.0
54 1 38.0072115458 12.9488410763 0.0 0.0 0.0 0.0
55 1 49.2954115458 12.8213410763 0.0 0.0 0.0 0.0
56 1 52.0987115458 13.8307410763 0.0 0.0 0.0 0.0
57 1 56.7105115458 15.0293410763 0.0 0.0 0.0 0.0
58 1 63.8239115458 16.1931410763 0.0 0.0 0.0 0.0
59 1 68.4675115458 16.4862410763 0.0 0.0 0.0 0.0
60 1 72.5204115458 14.7332410763 0.0 0.0 0.0 0.0
61 1 5.29092154576 20.4723410763 0.0 0.0 0.0 0.0
62 1 8.25510154576 19.8862410763 0.0 0.0 0.0 0.0
63 1 12.8489115458 21.0264410763 0.0 0.0 0.0 0.0
64 1 18.0740115458 20.4310410763 0.0 0.0 0.0 0.0
65 1 25.6789115458 17.6636410763 0.0 0.0 0.0 0.0
66 1 28.2083115458 21.3589410763 0.0 0.0 0.0 0.0
67 1 34.1181115458 19.7777410763 0.0 0.0 0.0 0.0
68 1 39.2208115458 18.4785410763 0.0 0.0 0.0 0.0
69 1 44.2079115458 19.6472410763 0.0 0.0 0.0 0.0
70 1 49.3657115458 17.8381410763 0.0 0.0 0.0 0.0
71 1 54.5227115458 20.8111410763 0.0 0.0 0.0 0.0
72 1 62.3547115458 20.2872410763 0.0 0.0 0.0 0.0
73 1 65.2948115458 21.0664410763 0.0 0.0 0.0 0.0
74 1 70.7053115458 20.4348410763 0.0 0.0 0.0 0.0
75 1 76.3750115458 20.1035410763 0.0 0.0 0.0 0.0
76 1 77.6001115458 27.5220410763 0.0 0.0 0.0 0.0
77 1 4.68744154576 25.8637410763 0.0 0.0 0.0 0.0
78 1 9.77521154576 25.1884410763 0.0 0.0 0.0 0.0
79 1 15.3698115458 25.0974410763 0.0 0.0 0.0 0.0
80 1 19.9399115458 22.8333410763 0.0 0.0 0.0 0.0
81 1 27.1030115458 24.1701410763 0.0 0.0 0.0 0.0
82 1 32.0666115458 23.5349410763 0.0 0.0 0.0 0.0
83 1 37.5951115458 23.6105410763 0.0 0.0 0.0 0.0
84 1 43.5052115458 22.5814410763 0.0 0.0 0.0 0.0
85 1 48.5514115458 22.6878410763 0.0 0.0 0.0 0.0
86 1 53.1686115458 23.5087410763 0.0 0.0 0.0 0.0
87 1 57.9188115458 26.7121410763 0.0 0.0 0.0 0.0
88 1 62.6931115458 24.6305410763 0.0 0.0 0.0 0.0
89 1 68.2561115458 25.1208410763 0.0 0.0 0.0 0.0
90 1 73.6057115458 24.2799410763 0.0 0.0 0.0 0.0
91 1 2.50669154576 31.1808410763 0.0 0.0 0.0 0.0
92 1 9.23126154576 29.5547410763 0.0 0.0 0.0 0.0
93 1 12.2547115458 29.1979410763 0.0 0.0 0.0 0.0
94 1 17.9011115458 28.4440410763 0.0 0.0 0.0 0.0
95 1 23.6656115458 28.3350410763 0.0 0.0 0.0 0.0
96 1 30.8725115458 28.2314410763 0.0 0.0 0.0 0.0
97 1 33.7815115458 27.5388410763 0.0 0.0 0.0 0.0
98 1 39.4130115458 26.0406410763 0.0 0.0 0.0 0.0
99 1 44.8616115458 26.9903410763 0.0 0.0 0.0 0.0
100 1 49.8023115458 27.9211410763 0.0 0.0 0.0 0.0
101 1 57.6456115458 29.6770410763 0.0 0.0 0.0 0.0
102 1 60.6189115458 29.9747410763 0.0 0.0 0.0 0.0
103 1 65.3212115458 29.1784410763 0.0 0.0 0.0 0.0
104 1 72.7967115458 28.5983410763 0.0 0.0 0.0 0.0
105 1 75.5993115458 29.7627410763 0.0 0.0 0.0 0.0
106 1 77.0752115458 35.1891410763 0.0 0.0 0.0 0.0
107 1 4.42672154576 36.0477410763 0.0 0.0 0.0 0.0
108 1 9.27871154576 34.7957410763 0.0 0.0 0.0 0.0
109 1 14.7160115458 32.9349410763 0.0 0.0 0.0 0.0
110 1 20.3540115458 32.3045410763 0.0 0.0 0.0 0.0
111 1 25.7942115458 33.4556410763 0.0 0.0 0.0 0.0
112 1 30.7222115458 32.8436410763 0.0 0.0 0.0 0.0
113 1 36.1528115458 32.4905410763 0.0 0.0 0.0 0.0
114 1 40.6707115458 34.6531410763 0.0 0.0 0.0 0.0
115 1 45.9941115458 31.9949410763 0.0 0.0 0.0 0.0
116 1 51.3506115458 32.8798410763 0.0 0.0 0.0 0.0
117 1 56.1965115458 33.6299410763 0.0 0.0 0.0 0.0
118 1 61.9813115458 34.1776410763 0.0 0.0 0.0 0.0
119 1 67.3937115458 33.6129410763 0.0 0.0 0.0 0.0
120 1 72.7144115458 33.4131410763 0.0 0.0 0.0 0.0
121 1 0.718491545759 40.0595410763 0.0 0.0 0.0 0.0
122 1 8.24120154576 39.9583410763 0.0 0.0 0.0 0.0
123 1 12.7035115458 37.8150410763 0.0 0.0 0.0 0.0
124 1 18.1804115458 36.5988410763 0.0 0.0 0.0 0.0
125 1 22.8960115458 38.9699410763 0.0 0.0 0.0 0.0
126 1 30.5751115458 37.0418410763 0.0 0.0 0.0 0.0
127 1 33.6039115458 36.9622410763 0.0 0.0 0.0 0.0
128 1 38.9910115458 37.2250410763 0.0 0.0 0.0 0.0
129 1 45.4568115458 36.3104410763 0.0 0.0 0.0 0.0
130 1 48.4264115458 36.7269410763 0.0 0.0 0.0 0.0
131 1 53.1701115458 37.9646410763 0.0 0.0 0.0 0.0
132 1 58.1713115458 37.6892410763 0.0 0.0 0.0 0.0
133 1 63.7415115458 36.6393410763 0.0 0.0 0.0 0.0
134 1 69.4758115458 37.7450410763 0.0 0.0 0.0 0.0
135 1 72.7474115458 41.5281410763 0.0 0.0 0.0 0.0
136 1 75.7295115458 44.4989410763 0.0 0.0 0.0 0.0
137 1 3.19567154576 44.6210410763 0.0 0.0 0.0 0.0
138 1 6.27389154576 42.2556410763 0.0 0.0 0.0 0.0
139 1 15.3667115458 41.2440410763 0.0 0.0 0.0 0.0
140 1 20.7553115458 41.0835410763 0.0 0.0 0.0 0.0
141 1 25.5438115458 42.4406410763 0.0 0.0 0.0 0.0
142 1 30.4419115458 42.0534410763 0.0 0.0 0.0 0.0
143 1 35.3247115458 41.4645410763 0.0 0.0 0.0 0.0
144 1 42.2218115458 42.0121410763 0.0 0.0 0.0 0.0
145 1 45.2211115458 41.9099410763 0.0 0.0 0.0 0.0
146 1 50.4897115458 42.0681410763 0.0 0.0 0.0 0.0
147 1 55.9515115458 42.5058410763 0.0 0.0 0.0 0.0
148 1 60.7558115458 42.7129410763 0.0 0.0 0.0 0.0
149 1 65.2123115458 45.2087410763 0.0 0.0 0.0 0.0
150 1 70.8206115458 43.9418410763 0.0 0.0 0.0 0.0
151 1 1.06862154576 48.9276410763 0.0 0.0 0.0 0.0
152 1 6.60051154576 48.3000410763 0.0 0.0 0.0 0.0
153 1 13.9025115458 45.8784410763 0.0 0.0 0.0 0.0
154 1 16.8395115458 45.1997410763 0.0 0.0 0.0 0.0
155 1 21.9429115458 46.2157410763 0.0 0.0 0.0 0.0
156 1 27.5580115458 46.8518410763 0.0 0.0 0.0 0.0
157 1 32.4988115458 46.5085410763 0.0 0.0 0.0 0.0
158 1 36.4370115458 46.8844410763 0.0 0.0 0.0 0.0
159 1 41.4037115458 46.6289410763 0.0 0.0 0.0 0.0
160 1 48.1478115458 46.4643410763 0.0 0.0 0.0 0.0
161 1 54.0346115458 46.4281410763 0.0 0.0 0.0 0.0
162 1 59.3235115458 47.2557410763 0.0 0.0 0.0 0.0
163 1 64.0824115458 48.0257410763 0.0 0.0 0.0 0.0
164 1 68.1816115458 51.2314410763 0.0 0.0 0.0 0.0
165 1 73.2920115458 48.9239410763 0.0 0.0 0.0 0.0
166 1 75.9461115458 53.0758410763 0.0 0.0 0.0 0.0
167 1 3.11549154576 52.7167410763 0.0 0.0 0.0 0.0
168 1 8.11428154576 53.0565410763 0.0 0.0 0.0 0.0
169 1 11.8687115458 51.1958410763 0.0 0.0 0.0 0.0
170 1 18.9147115458 50.1302410763 0.0 0.0 0.0 0.0
171 1 24.1240115458 50.4212410763 0.0 0.0 0.0 0.0
172 1 29.2023115458 51.2150410763 0.0 0.0 0.0 0.0
173 1 34.4636115458 51.9987410763 0.0 0.0 0.0 0.0
174 1 39.7148115458 51.2944410763 0.0 0.0 0.0 0.0
175 1 43.3710115458 48.8535410763 0.0 0.0 0.0 0.0
176 1 49.8848115458 48.9112410763 0.0 0.0 0.0 0.0
177 1 56.9004115458 53.3930410763 0.0 0.0 0.0 0.0
178 1 61.0468115458 54.7028410763 0.0 0.0 0.0 0.0
179 1 66.8346115458 53.9467410763 0.0 0.0 0.0 0.0
180 1 72.9803115458 53.4997410763 0.0 0.0 0.0 0.0
181 1 0.848281545759 57.5996410763 0.0 0.0 0.0 0.0
182 1 5.86147154576 57.4844410763 0.0 0.0 0.0 0.0
183 1 10.1693115458 55.2387410763 0.0 0.0 0.0 0.0
184 1 16.9938115458 53.8966410763 0.0 0.0 0.0 0.0
185 1 22.3528115458 54.5708410763 0.0 0.0 0.0 0.0
186 1 26.9759115458 55.2636410763 0.0 0.0 0.0 0.0
187 1 32.6971115458 57.5021410763 0.0 0.0 0.0 0.0
188 1 39.3664115458 55.2051410763 0.0 0.0 0.0 0.0
189 1 44.6519115458 54.0149410763 0.0 0.0 0.0 0.0
190 1 49.2310115458 56.8617410763 0.0 0.0 0.0 0.0
191 1 54.9807115458 55.7821410763 0.0 0.0 0.0 0.0
192 1 59.2796115458 57.1656410763 0.0 0.0 0.0 0.0
193 1 63.7017115458 58.0915410763 0.0 0.0 0.0 0.0
194 1 68.4138115458 59.2552410763 0.0 0.0 0.0 0.0
195 1 73.4582115458 58.7342410763 0.0 0.0 0.0 0.0
196 1 77.3549115458 62.4126410763 0.0 0.0 0.0 0.0
197 1 4.16328154576 62.1026410763 0.0 0.0 0.0 0.0
198 1 9.60721154576 60.7962410763 0.0 0.0 0.0 0.0
199 1 16.8052115458 58.8077410763 0.0 0.0 0.0 0.0
200 1 19.8187115458 58.5024410763 0.0 0.0 0.0 0.0
201 1 24.6184115458 61.7014410763 0.0 0.0 0.0 0.0
202 1 31.7917115458 60.3716410763 0.0 0.0 0.0 0.0
203 1 35.4719115458 58.5946410763 0.0 0.0 0.0 0.0
204 1 42.8124115458 58.8026410763 0.0 0.0 0.0 0.0
205 1 48.0505115458 59.6597410763 0.0 0.0 0.0 0.0
206 1 52.2931115458 60.1459410763 0.0 0.0 0.0 0.0
207 1 55.4775115458 64.1022410763 0.0 0.0 0.0 0.0
208 1 60.6775115458 62.5429410763 0.0 0.0 0.0 0.0
209 1 65.3140115458 65.1556410763 0.0 0.0 0.0 0.0
210 1 72.0013115458 63.4412410763 0.0 0.0 0.0 0.0
211 1 2.37282154576 67.1974410763 0.0 0.0 0.0 0.0
212 1 9.00241154576 64.8355410763 0.0 0.0 0.0 0.0
213 1 11.4710115458 63.1365410763 0.0 0.0 0.0 0.0
214 1 18.6843115458 64.3318410763 0.0 0.0 0.0 0.0
215 1 23.5617115458 64.5143410763 0.0 0.0 0.0 0.0
216 1 27.4501115458 62.7687410763 0.0 0.0 0.0 0.0
217 1 35.4265115458 64.3016410763 0.0 0.0 0.0 0.0
218 1 40.3183115458 63.3236410763 0.0 0.0 0.0 0.0
219 1 43.8745115458 65.8857410763 0.0 0.0 0.0 0.0
220 1 49.4283115458 65.0290410763 0.0 0.0 0.0 0.0
221 1 53.9477115458 66.7460410763 0.0 0.0 0.0 0.0
222 1 58.5400115458 67.6144410763 0.0 0.0 0.0 0.0
223 1 64.2058115458 67.9224410763 0.0 0.0 0.0 0.0
224 1 67.9661115458 66.5027410763 0.0 0.0 0.0 0.0
225 1 74.9602115458 67.1317410763 0.0 0.0 0.0 0.0
226 1 77.0933115458 73.5672410763 0.0 0.0 0.0 0.0
227 1 5.87766154576 71.3440410763 0.0 0.0 0.0 0.0
228 1 10.4775115458 69.4710410763 0.0 0.0 0.0 0.0
229 1 16.1577115458 68.9644410763 0.0 0.0 0.0 0.0
230 1 21.7180115458 69.1974410763 0.0 0.0 0.0 0.0
231 1 27.8962115458 68.1277410763 0.0 0.0 0.0 0.0
232 1 33.2863115458 68.2132410763 0.0 0.0 0.0 0.0
233 1 38.2465115458 68.4901410763 0.0 0.0 0.0 0.0
234 1 42.5736115458 68.5824410763 0.0 0.0 0.0 0.0
235 1 45.4598115458 72.1724410763 0.0 0.0 0.0 0.0
236 1 50.5418115458 70.5979410763 0.0 0.0 0.0 0.0
237 1 54.5523115458 69.7116410763 0.0 0.0 0.0 0.0
238 1 61.0228115458 71.6244410763 0.0 0.0 0.0 0.0
239 1 66.6139115458 72.2346410763 0.0 0.0 0.0 0.0
240 1 72.6663115458 71.8074410763 0.0 0.0 0.0 0.0
241 1 2.13850154576 74.4658410763 0.0 0.0 0.0 0.0
242 1 9.17764154576 74.9247410763 0.0 0.0 0.0 0.0
243 1 13.7792115458 73.1557410763 0.0 0.0 0.0 0.0
244 1 19.0005115458 73.2375410763 0.0 0.0 0.0 0.0
245 1 23.8312115458 71.4295410763 0.0 0.0 0.0 0.0
246 1 29.4620115458 72.2393410763 0.0 0.0 0.0 0.0
247 1 36.7526115458 72.9010410763 0.0 0.0 0.0 0.0
248 1 39.7105115458 73.6126410763 0.0 0.0 0.0 0.0
249 1 44.2075115458 74.8886410763 0.0 0.0 0.0 0.0
250 1 48.4927115458 78.1232410763 0.0 0.0 0.0 0.0
251 1 53.5423115458 75.3128410763 0.0 0.0 0.0 0.0
252 1 58.8962115458 76.2837410763 0.0 0.0 0.0 0.0
253 1 63.6628115458 75.8722410763 0.0 0.0 0.0 0.0
254 1 71.2760115458 74.5331410763 0.0 0.0 0.0 0.0
255 1 75.7595115458 76.2431410763 0.0 0.0 0.0 0.0
256 1 1.70766154576 4.16904107631 0.0 0.0 0.0 0.0
257 1 6.86526154576 2.45510107631 0.0 0.0 0.0 0.0
258 1 14.0278115458 3.71120107631 0.0 0.0 0.0 0.0
259 1 16.4233115458 0.629075076308 0.0 0.0 0.0 0.0
260 1 21.3645115458 1.64929107631 0.0 0.0 0.0 0.0
261 1 26.4878115458 1.69288107631 0.0 0.0 0.0 0.0
262 1 31.3449115458 1.40541107631 0.0 0.0 0.0 0.0
263 1 36.2583115458 2.46691107631 0.0 0.0 0.0 0.0
264 1 40.8595115458 3.44997107631 0.0 0.0 0.0 0.0
265 1 48.0520115458 4.55432107631 0.0 0.0 0.0 0.0
266 1 53.2763115458 3.29108107631 0.0 0.0 0.0 0.0
267 1 58.7883115458 4.18533107631 0.0 0.0 0.0 0.0
268 1 64.2886115458 4.07272107631 0.0 0.0 0.0 0.0
269 1 69.2911115458 4.16160107631 0.0 0.0 0.0 0.0
270 1 72.3051115458 4.13884107631 0.0 0.0 0.0 0.0
271 1 4.19534154576 7.52047107631 0.0 0.0 0.0 0.0
272 1 10.0521115458 8.96833107631 0.0 0.0 0.0 0.0
273 1 13.0348115458 9.00997107631 0.0 0.0 0.0 0.0
274 1 19.8921115458 4.27290107631 0.0 0.0 0.0 0.0
275 1 23.4787115458 6.55812107631 0.0 0.0 0.0 0.0
276 1 28.6916115458 5.78497107631 0.0 0.0 0.0 0.0
277 1 33.7458115458 6.39025107631 0.0 0.0 0.0 0.0
278 1 39.5502115458 6.18894107631 0.0 0.0 0.0 0.0
279 1 44.0180115458 7.75490107631 0.0 0.0 0.0 0.0
280 1 52.3105115458 6.12933107631 0.0 0.0 0.0 0.0
281 1 57.1460115458 9.13039107631 0.0 0.0 0.0 0.0
282 1 61.6480115458 9.06218107631 0.0 0.0 0.0 0.0
283 1 66.5153115458 8.68017107631 0.0 0.0 0.0 0.0
284 1 69.3621115458 9.64723107631 0.0 0.0 0.0 0.0
285 1 76.2159115458 8.46874107631 0.0 0.0 0.0 0.0
286 1 1.40786154576 13.1678410763 0.0 0.0 0.0 0.0
287 1 4.37940154576 12.8764410763 0.0 0.0 0.0 0.0
288 1 10.9876115458 12.9229410763 0.0 0.0 0.0 0.0
289 1 16.8598115458 12.0719410763 0.0 0.0 0.0 0.0
290 1 21.3616115458 11.4997410763 0.0 0.0 0.0 0.0
291 1 26.3907115458 10.7104410763 0.0 0.0 0.0 0.0
292 1 30.8750115458 10.8404410763 0.0 0.0 0.0 0.0
293 1 35.1934115458 11.8948410763 0.0 0.0 0.0 0.0
294 1 45.2079115458 13.5035410763 0.0 0.0 0.0 0.0
295 1 48.3621115458 9.96834107631 0.0 0.0 0.0 0.0
296 1 53.6272115458 11.2789410763 0.0 0.0 0.0 0.0
297 1 59.6897115458 14.8545410763 0.0 0.0 0.0 0.0
298 1 63.3701115458 13.2522410763 0.0 0.0 0.0 0.0
299 1 68.0335115458 13.5429410763 0.0 0.0 0.0 0.0
300 1 75.4733115458 14.2744410763 0.0 0.0 0.0 0.0
301 1 4.28484154576 17.6361410763 0.0 0.0 0.0 0.0
302 1 9.17814154576 15.2989410763 0.0 0.0 0.0 0.0
303 1 13.5844115458 18.1248410763 0.0 0.0 0.0 0.0
304 1 16.6060115458 17.7627410763 0.0 0.0 0.0 0.0
305 1 23.4904115458 15.6144410763 0.0 0.0 0.0 0.0
306 1 27.9286115458 15.6501410763 0.0 0.0 0.0 0.0
307 1 33.2948115458 14.2364410763 0.0 0.0 0.0 0.0
308 1 37.6217115458 15.9360410763 0.0 0.0 0.0 0.0
309 1 42.3410115458 14.4226410763 0.0 0.0 0.0 0.0
310 1 47.6415115458 15.3174410763 0.0 0.0 0.0 0.0
311 1 53.9451115458 16.1877410763 0.0 0.0 0.0 0.0
312 1 61.1530115458 17.5086410763 0.0 0.0 0.0 0.0
313 1 66.0371115458 18.1838410763 0.0 0.0 0.0 0.0
314 1 71.2753115458 17.4741410763 0.0 0.0 0.0 0.0
315 1 76.6040115458 17.0873410763 0.0 0.0 0.0 0.0
316 1 0.656631545759 22.3245410763 0.0 0.0 0.0 0.0
317 1 3.62149154576 23.0054410763 0.0 0.0 0.0 0.0
318 1 10.1024115458 22.2252410763 0.0 0.0 0.0 0.0
319 1 15.6095115458 22.1304410763 0.0 0.0 0.0 0.0
320 1 22.9793115458 22.6719410763 0.0 0.0 0.0 0.0
321 1 25.2665115458 20.6420410763 0.0 0.0 0.0 0.0
322 1 31.1960115458 20.6792410763 0.0 0.0 0.0 0.0
323 1 37.0593115458 20.6270410763 0.0 0.0 0.0 0.0
324 1 42.0804115458 17.4683410763 0.0 0.0 0.0 0.0
325 1 47.2333115458 19.9684410763 0.0 0.0 0.0 0.0
326 1 52.3123115458 18.7030410763 0.0 0.0 0.0 0.0
327 1 57.4231115458 21.8217410763 0.0 0.0 0.0 0.0
328 1 60.4126115458 22.5684410763 0.0 0.0 0.0 0.0
329 1 68.1485115458 22.0996410763 0.0 0.0 0.0 0.0
330 1 73.5943115458 21.2863410763 0.0 0.0 0.0 0.0
331 1 2.74209154576 28.1747410763 0.0 0.0 0.0 0.0
332 1 7.46105154576 27.0928410763 0.0 0.0 0.0 0.0
333 1 12.5871115458 26.2272410763 0.0 0.0 0.0 0.0
334 1 18.3478115458 25.4483410763 0.0 0.0 0.0 0.0
335 1 24.3373115458 25.3712410763 0.0 0.0 0.0 0.0
336 1 29.7810115458 25.4647410763 0.0 0.0 0.0 0.0
337 1 34.8078115458 24.7235410763 0.0 0.0 0.0 0.0
338 1 42.3336115458 25.3504410763 0.0 0.0 0.0 0.0
339 1 46.0026115458 24.2311410763 0.0 0.0 0.0 0.0
340 1 50.5306115458 24.9633410763 0.0 0.0 0.0 0.0
341 1 55.9901115458 24.4482410763 0.0 0.0 0.0 0.0
342 1 60.8844115458 26.9994410763 0.0 0.0 0.0 0.0
343 1 65.3706115458 26.1254410763 0.0 0.0 0.0 0.0
344 1 71.1627115458 26.0484410763 0.0 0.0 0.0 0.0
345 1 76.5857115458 24.6999410763 0.0 0.0 0.0 0.0
346 1 77.4355115458 32.1772410763 0.0 0.0 0.0 0.0
347 1 4.86820154576 33.0562410763 0.0 0.0 0.0 0.0
348 1 7.76296154576 32.1947410763 0.0 0.0 0.0 0.0
349 1 15.2013115458 29.9442410763 0.0 0.0 0.0 0.0
350 1 20.7956115458 29.3375410763 0.0 0.0 0.0 0.0
351 1 25.8742115458 30.4324410763 0.0 0.0 0.0 0.0
352 1 28.8904115458 30.4617410763 0.0 0.0 0.0 0.0
353 1 36.0093115458 29.5147410763 0.0 0.0 0.0 0.0
354 1 38.9610115458 29.0378410763 0.0 0.0 0.0 0.0
355 1 46.9958115458 29.1251410763 0.0 0.0 0.0 0.0
356 1 52.0522115458 29.9602410763 0.0 0.0 0.0 0.0
357 1 54.9224115458 30.8954410763 0.0 0.0 0.0 0.0
358 1 63.2417115458 31.4130410763 0.0 0.0 0.0 0.0
359 1 67.9398115458 30.6748410763 0.0 0.0 0.0 0.0
360 1 70.9587115458 30.9565410763 0.0 0.0 0.0 0.0
361 1 1.59159154576 37.1509410763 0.0 0.0 0.0 0.0
362 1 7.28004154576 37.0804410763 0.0 0.0 0.0 0.0
363 1 12.3078115458 34.8182410763 0.0 0.0 0.0 0.0
364 1 17.6462115458 33.6495410763 0.0 0.0 0.0 0.0
365 1 22.8285115458 34.0166410763 0.0 0.0 0.0 0.0
366 1 28.4947115458 34.8500410763 0.0 0.0 0.0 0.0
367 1 33.5326115458 33.9575410763 0.0 0.0 0.0 0.0
368 1 39.1275115458 32.0591410763 0.0 0.0 0.0 0.0
369 1 43.6363115458 33.9129410763 0.0 0.0 0.0 0.0
370 1 48.4765115458 33.7225410763 0.0 0.0 0.0 0.0
371 1 53.5155115458 34.9796410763 0.0 0.0 0.0 0.0
372 1 58.9964115458 34.7871410763 0.0 0.0 0.0 0.0
373 1 66.7311115458 36.5325410763 0.0 0.0 0.0 0.0
374 1 70.1064115458 34.8327410763 0.0 0.0 0.0 0.0
375 1 74.1795115458 36.0513410763 0.0 0.0 0.0 0.0
376 1 75.7998115458 41.4959410763 0.0 0.0 0.0 0.0
377 1 3.31485154576 41.6317410763 0.0 0.0 0.0 0.0
378 1 11.2213115458 40.4704410763 0.0 0.0 0.0 0.0
379 1 15.6706115458 38.2647410763 0.0 0.0 0.0 0.0
380 1 21.1874115458 36.5257410763 0.0 0.0 0.0 0.0
381 1 25.8613115458 39.4700410763 0.0 0.0 0.0 0.0
382 1 28.8696115458 39.4943410763 0.0 0.0 0.0 0.0
383 1 36.2058115458 38.5367410763 0.0 0.0 0.0 0.0
384 1 41.3014115458 39.1661410763 0.0 0.0 0.0 0.0
385 1 44.2976115458 39.0529410763 0.0 0.0 0.0 0.0
386 1 50.3664115458 39.0485410763 0.0 0.0 0.0 0.0
387 1 55.7613115458 39.4921410763 0.0 0.0 0.0 0.0
388 1 60.3308115458 39.7618410763 0.0 0.0 0.0 0.0
389 1 63.3157115458 39.6070410763 0.0 0.0 0.0 0.0
390 1 72.3796115458 38.5243410763 0.0 0.0 0.0 0.0
391 1 0.539681545759 45.9881410763 0.0 0.0 0.0 0.0
392 1 6.11914154576 45.2905410763 0.0 0.0 0.0 0.0
393 1 12.9153115458 42.9933410763 0.0 0.0 0.0 0.0
394 1 18.0881115458 42.4679410763 0.0 0.0 0.0 0.0
395 1 22.7001115458 43.3400410763 0.0 0.0 0.0 0.0
396 1 28.1256115458 43.9308410763 0.0 0.0 0.0 0.0
397 1 33.0684115458 43.5030410763 0.0 0.0 0.0 0.0
398 1 37.0240115458 43.9355410763 0.0 0.0 0.0 0.0
399 1 40.0114115458 43.9993410763 0.0 0.0 0.0 0.0
400 1 47.8160115458 43.4657410763 0.0 0.0 0.0 0.0
401 1 53.1282115458 43.5587410763 0.0 0.0 0.0 0.0
402 1 58.3041115458 44.4173410763 0.0 0.0 0.0 0.0
403 1 63.7499115458 42.5780410763 0.0 0.0 0.0 0.0
404 1 68.2119115458 45.5850410763 0.0 0.0 0.0 0.0
405 1 73.0802115458 45.9255410763 0.0 0.0 0.0 0.0
406 1 76.0775115458 50.0820410763 0.0 0.0 0.0 0.0
407 1 3.95287154576 49.8134410763 0.0 0.0 0.0 0.0
408 1 8.99156154576 50.1907410763 0.0 0.0 0.0 0.0
409 1 13.8673115458 48.9340410763 0.0 0.0 0.0 0.0
410 1 19.1047115458 47.1517410763 0.0 0.0 0.0 0.0
411 1 24.6421115458 47.4924410763 0.0 0.0 0.0 0.0
412 1 30.1297115458 48.3607410763 0.0 0.0 0.0 0.0
413 1 34.2691115458 48.9578410763 0.0 0.0 0.0 0.0
414 1 39.0076115458 48.3967410763 0.0 0.0 0.0 0.0
415 1 46.3353115458 48.8442410763 0.0 0.0 0.0 0.0
416 1 52.8400115458 49.1701410763 0.0 0.0 0.0 0.0
417 1 56.4816115458 48.1594410763 0.0 0.0 0.0 0.0
418 1 61.3712115458 49.4716410763 0.0 0.0 0.0 0.0
419 1 67.0849115458 48.4165410763 0.0 0.0 0.0 0.0
420 1 71.1948115458 51.0834410763 0.0 0.0 0.0 0.0
421 1 0.750921545759 54.5866410763 0.0 0.0 0.0 0.0
422 1 5.50446154576 54.5112410763 0.0 0.0 0.0 0.0
423 1 12.9272115458 54.0879410763 0.0 0.0 0.0 0.0
424 1 16.0629115458 51.0216410763 0.0 0.0 0.0 0.0
425 1 21.4506115458 51.7196410763 0.0 0.0 0.0 0.0
426 1 26.4235115458 52.3171410763 0.0 0.0 0.0 0.0
427 1 29.7640115458 54.1550410763 0.0 0.0 0.0 0.0
428 1 37.2924115458 53.0399410763 0.0 0.0 0.0 0.0
429 1 42.6725115458 51.7585410763 0.0 0.0 0.0 0.0
430 1 48.0694115458 51.2909410763 0.0 0.0 0.0 0.0
431 1 55.2645115458 50.8920410763 0.0 0.0 0.0 0.0
432 1 59.6595115458 52.0374410763 0.0 0.0 0.0 0.0
433 1 64.0368115458 55.1025410763 0.0 0.0 0.0 0.0
434 1 68.7709115458 56.2687410763 0.0 0.0 0.0 0.0
435 1 71.7819115458 56.2388410763 0.0 0.0 0.0 0.0
436 1 76.3602115458 59.5622410763 0.0 0.0 0.0 0.0
437 1 3.39878154576 59.1958410763 0.0 0.0 0.0 0.0
438 1 8.83144154576 57.9139410763 0.0 0.0 0.0 0.0
439 1 15.1154115458 56.2314410763 0.0 0.0 0.0 0.0
440 1 19.5245115458 55.5172410763 0.0 0.0 0.0 0.0
441 1 24.3847115458 56.7803410763 0.0 0.0 0.0 0.0
442 1 32.7342115458 54.4903410763 0.0 0.0 0.0 0.0
443 1 38.3818115458 58.0146410763 0.0 0.0 0.0 0.0
444 1 42.2965115458 55.8557410763 0.0 0.0 0.0 0.0
445 1 47.6504115458 54.2776410763 0.0 0.0 0.0 0.0
446 1 52.2452115458 57.1159410763 0.0 0.0 0.0 0.0
447 1 56.5152115458 58.3722410763 0.0 0.0 0.0 0.0
448 1 61.0732115458 59.5577410763 0.0 0.0 0.0 0.0
449 1 65.6336115458 60.3685410763 0.0 0.0 0.0 0.0
450 1 71.1003115458 60.5911410763 0.0 0.0 0.0 0.0
451 1 2.00676154576 64.1928410763 0.0 0.0 0.0 0.0
452 1 7.13953154576 62.4982410763 0.0 0.0 0.0 0.0
453 1 14.4474115458 63.5223410763 0.0 0.0 0.0 0.0
454 1 16.9370115458 61.8406410763 0.0 0.0 0.0 0.0
455 1 22.7510115458 59.3159410763 0.0 0.0 0.0 0.0
456 1 30.4600115458 63.0671410763 0.0 0.0 0.0 0.0
457 1 34.5961115458 61.4332410763 0.0 0.0 0.0 0.0
458 1 40.2399115458 60.3426410763 0.0 0.0 0.0 0.0
459 1 45.1916115458 60.6068410763 0.0 0.0 0.0 0.0
460 1 49.9266115458 62.0242410763 0.0 0.0 0.0 0.0
461 1 55.1464115458 61.0836410763 0.0 0.0 0.0 0.0
462 1 58.4460115458 64.5993410763 0.0 0.0 0.0 0.0
463 1 63.6863115458 62.6583410763 0.0 0.0 0.0 0.0
464 1 70.9241115458 66.2330410763 0.0 0.0 0.0 0.0
465 1 74.9062115458 64.1354410763 0.0 0.0 0.0 0.0
466 1 77.5188115458 68.6731410763 0.0 0.0 0.0 0.0
467 1 5.13468154576 68.4373410763 0.0 0.0 0.0 0.0
468 1 8.05799154576 67.6738410763 0.0 0.0 0.0 0.0
469 1 16.1692115458 65.9656410763 0.0 0.0 0.0 0.0
470 1 21.0834115458 66.2086410763 0.0 0.0 0.0 0.0
471 1 26.3616115458 65.5567410763 0.0 0.0 0.0 0.0
472 1 32.5768115458 65.2689410763 0.0 0.0 0.0 0.0
473 1 38.2023115458 65.4733410763 0.0 0.0 0.0 0.0
474 1 43.3075115458 62.9596410763 0.0 0.0 0.0 0.0
475 1 46.8058115458 66.5062410763 0.0 0.0 0.0 0.0
476 1 51.0510115458 67.5839410763 0.0 0.0 0.0 0.0
477 1 57.4422115458 70.4384410763 0.0 0.0 0.0 0.0
478 1 61.3204115458 68.6569410763 0.0 0.0 0.0 0.0
479 1 66.8692115458 69.2750410763 0.0 0.0 0.0 0.0
480 1 72.4553115458 68.8066410763 0.0 0.0 0.0 0.0
481 1 5.10346154576 74.2393410763 0.0 0.0 0.0 0.0
482 1 8.80883154576 71.9510410763 0.0 0.0 0.0 0.0
483 1 13.4014115458 70.1753410763 0.0 0.0 0.0 0.0
484 1 18.8909115458 70.2407410763 0.0 0.0 0.0 0.0
485 1 26.7785115458 70.9002410763 0.0 0.0 0.0 0.0
486 1 30.5703115458 69.4576410763 0.0 0.0 0.0 0.0
487 1 35.6907115458 70.0579410763 0.0 0.0 0.0 0.0
488 1 40.3662115458 70.6378410763 0.0 0.0 0.0 0.0
489 1 45.5021115458 69.1971410763 0.0 0.0 0.0 0.0
490 1 48.4000115458 72.7278410763 0.0 0.0 0.0 0.0
491 1 53.0202115458 72.3117410763 0.0 0.0 0.0 0.0
492 1 58.5311115458 73.2645410763 0.0 0.0 0.0 0.0
493 1 63.7038115458 72.8887410763 0.0 0.0 0.0 0.0
494 1 66.5689115458 75.2135410763 0.0 0.0 0.0 0.0
495 1 75.5933115458 71.0025410763 0.0 0.0 0.0 0.0
496 1 0.812571545759 77.1262410763 0.0 0.0 0.0 0.0
497 1 6.79133154576 76.7239410763 0.0 0.0 0.0 0.0
498 1 12.0722115458 75.6219410763 0.0 0.0 0.0 0.0
499 1 16.3643115458 74.6629410763 0.0 0.0 0.0 0.0
500 1 21.4947115458 74.9037410763 0.0 0.0 0.0 0.0
501 1 24.4499115458 74.4217410763 0.0 0.0 0.0 0.0
502 1 31.4194115458 74.5202410763 0.0 0.0 0.0 0.0
503 1 34.4130115458 74.8004410763 0.0 0.0 0.0 0.0
504 1 41.4645115458 76.1437410763 0.0 0.0 0.0 0.0
505 1 47.1569115458 75.4570410763 0.0 0.0 0.0 0.0
506 1 51.4402115458 77.4863410763 0.0 0.0 0.0 0.0
507 1 55.9871115458 77.1097410763 0.0 0.0 0.0 0.0
508 1 61.4816115458 77.9257410763 0.0 0.0 0.0 0.0
509 1 69.1340115458 76.6950410763 0.0 0.0 0.0 0.0
510 1 72.8857115458 77.0532410763 0.0 0.0 0.0 0.0
511 1 6.75072154576 79.7341410763 0.0 0.0 0.0 0.0
512 1 12.9585115458 78.4834410763 0.0 0.0 0.0 0.0
513 1 15.8336115458 77.6211410763 0.0 0.0 0.0 0.0
514 1 21.3222115458 77.8792410763 0.0 0.0 0.0 0.0
515 1 25.9539115458 77.1007410763 0.0 0.0 0.0 0.0
516 1 31.0143115458 77.4940410763 0.0 0.0 0.0 0.0
517 1 35.9229115458 80.1023410763 0.0 0.0 0.0 0.0
518 1 41.7508115458 79.2085410763 0.0 0.0 0.0 0.0
519 1 46.9580115458 80.7188410763 0.0 0.0 0.0 0.0
520 1 52.3726115458 80.3401410763 0.0 0.0 0.0 0.0
521 1 57.5983115458 82.1339410763 0.0 0.0 0.0 0.0
522 1 63.1129115458 80.5115410763 0.0 0.0 0.0 0.0
523 1 68.3706115458 79.6401410763 0.0 0.0 0.0 0.0
524 1 73.8998115458 81.2511410763 0.0 0.0 0.0 0.0
525 1 1.63789154576 79.9669410763 0.0 0.0 0.0 0.0
526 1 4.24926154576 81.3742410763 0.0 0.0 0.0 0.0
527 1 8.51515154576 82.1637410763 0.0 0.0 0.0 0.0
528 1 11.2828115458 80.9857410763 0.0 0.0 0.0 0.0
529 1 18.5298115458 78.9177410763 0.0 0.0 0.0 0.0
530 1 23.9359115458 79.3405410763 0.0 0.0 0.0 0.0
531 1 28.3774115458 78.9591410763 0.0 0.0 0.0 0.0
532 1 34.0101115458 77.7764410763 0.0 0.0 0.0 0.0
533 1 38.9460115458 80.3779410763 0.0 0.0 0.0 0.0
534 1 43.9662115458 81.3735410763 0.0 0.0 0.0 0.0
535 1 49.7574115458 81.8792410763 0.0 0.0 0.0 0.0
536 1 55.3848115458 80.0709410763 0.0 0.0 0.0 0.0
537 1 60.6379115458 0.00606967630827 0.0 0.0 0.0 0.0
538 1 66.0111115458 81.6023410763 0.0 0.0 0.0 0.0
539 1 71.3726115458 79.6614410763 0.0 0.0 0.0 0.0
540 1 76.8728115458 81.4876410763 0.0 0.0 0.0 0.0
541 2 3.96781154576 0.592827076308 0.0 0.0 0.0 0.0
542 2 5.37820154576 2.26705107631 0.0 0.0 0.0 0.0
543 2 2.86358154576 3.18988107631 0.0 0.0 0.0 0.0
544 2 7.86373154576 5.77576107631 0.0 0.0 0.0 0.0
545 2 6.68729154576 3.94914107631 0.0 0.0 0.0 0.0
546 2 5.23704154576 6.40295107631 0.0 0.0 0.0 0.0
547 2 12.3439115458 82.0508410763 0.0 0.0 0.0 0.0
548 2 14.9318115458 0.478774076308 0.0 0.0 0.0 0.0
549 2 13.5524115458 2.28682107631 0.0 0.0 0.0 0.0
550 2 18.9091115458 80.3604410763 0.0 0.0 0.0 0.0
551 2 20.3096115458 0.570759076308 0.0 0.0 0.0 0.0
552 2 17.7760115458 0.0275899763083 0.0 0.0 0.0 0.0
553 2 23.9681115458 80.8461410763 0.0 0.0 0.0 0.0
554 2 25.2144115458 0.888113076308 0.0 0.0 0.0 0.0
555 2 22.6872115458 0.940322076308 0.0 0.0 0.0 0.0
556 2 28.5605115458 80.4800410763 0.0 0.0 0.0 0.0
557 2 30.1055115458 0.533236076308 0.0 0.0 0.0 0.0
558 2 27.6662115458 0.743892076308 0.0 0.0 0.0 0.0
559 2 35.0009115458 81.3084410763 0.0 0.0 0.0 0.0
560 2 35.1361115458 1.47392107631 0.0 0.0 0.0 0.0
561 2 32.7239115458 0.773161076308 0.0 0.0 0.0 0.0
562 2 39.0246115458 81.8876410763 0.0 0.0 0.0 0.0
563 2 39.9298115458 2.26275107631 0.0 0.0 0.0 0.0
564 2 37.5827115458 1.76498107631 0.0 0.0 0.0 0.0
565 2 43.7858115458 0.658487076308 0.0 0.0 0.0 0.0
566 2 44.3907115458 3.49219107631 0.0 0.0 0.0 0.0
567 2 42.2289115458 2.82423107631 0.0 0.0 0.0 0.0
568 2 50.0081115458 1.11021107631 0.0 0.0 0.0 0.0
569 2 49.1622115458 3.52183107631 0.0 0.0 0.0 0.0
570 2 51.8349115458 2.81587107631 0.0 0.0 0.0 0.0
571 2 54.7411115458 2.89640107631 0.0 0.0 0.0 0.0
572 2 57.4554115458 3.48078107631 0.0 0.0 0.0 0.0
573 2 56.8694115458 1.21232107631 0.0 0.0 0.0 0.0
574 2 61.1238115458 1.43050107631 0.0 0.0 0.0 0.0
575 2 62.9040115458 3.44927107631 0.0 0.0 0.0 0.0
576 2 60.1637115458 3.57041107631 0.0 0.0 0.0 0.0
577 2 66.4421115458 0.841247076308 0.0 0.0 0.0 0.0
578 2 68.0793115458 3.22592107631 0.0 0.0 0.0 0.0
579 2 65.5492115458 3.22877107631 0.0 0.0 0.0 0.0
580 2 73.2468115458 2.99834107631 0.0 0.0 0.0 0.0
581 2 73.9359115458 0.502314076308 0.0 0.0 0.0 0.0
582 2 75.7435115458 2.28168107631 0.0 0.0 0.0 0.0
583 2 77.2089115458 0.704108076308 0.0 0.0 0.0 0.0
584 2 0.537451545759 3.22207107631 0.0 0.0 0.0 0.0
585 2 1.39737154576 5.63090107631 0.0 0.0 0.0 0.0
586 2 77.6009115458 7.80027107631 0.0 0.0 0.0 0.0
587 2 2.68371154576 7.44262107631 0.0 0.0 0.0 0.0
588 2 10.8105115458 5.87536107631 0.0 0.0 0.0 0.0
589 2 9.54891154576 7.57364107631 0.0 0.0 0.0 0.0
590 2 13.1622115458 4.91260107631 0.0 0.0 0.0 0.0
591 2 12.9107115458 7.50184107631 0.0 0.0 0.0 0.0
592 2 16.7669115458 2.08603107631 0.0 0.0 0.0 0.0
593 2 15.5209115458 3.87759107631 0.0 0.0 0.0 0.0
594 2 18.4140115458 3.99758107631 0.0 0.0 0.0 0.0
595 2 20.1085115458 5.74629107631 0.0 0.0 0.0 0.0
596 2 21.9818115458 6.82159107631 0.0 0.0 0.0 0.0
597 2 19.5850115458 8.41903107631 0.0 0.0 0.0 0.0
598 2 26.1628115458 3.17143107631 0.0 0.0 0.0 0.0