ITEM: TIMESTEP
0
ITEM: NUMBER OF ATOMS
3250
ITEM: BOX BOUNDS xy xz yz pp pp pp
0.0 132.0688740771269 0
0.0 118.94999999999999 0
-10.0 10.0 0
ITEM: ATOMS id type x y z vx vy vz
1 1 2.6416973934651025 1.5252027658299097 0.0 0.27111166640758505 0.33277443332390594 0.6223001896099069
2 1 7.925107441654991 1.5251953051649252 0.0 0.001415136792707473 0.027444022527000584 0.7273299948662821
3 1 13.208556368973511 1.525169052169992 0.0 -0.05376252961278676 -0.29019603051333537 -0.02362292120415089
4 1 18.49205079751615 1.525106999143372 0.0 -0.6263158445007084 -0.38879948444392237 0.16690329753068
5 1 23.775576916359025 1.5249967368673083 0.0 -0.36925875359598703 -0.4248172986149295 -0.30288379260014425
6 1 29.05909443014313 1.5248124357083799 0.0 0.15345502092896876 0.15248559084434762 -1.0444210466006993
7 1 34.34253554874167 1.5245400161064893 0.0 0.2973576688008096 -0.6021194147106949 -0.2177270403603496
8 1 39.62580725521948 1.5241612652564307 0.0 -0.03111790144240513 -0.398588980909036 -0.23521124212083205
9 1 44.90877816787585 1.5236393510562347 0.0 0.01873920224082977 0.048058980226781775 -0.6979496230282021
10 1 50.19126072862586 1.5229267450044741 0.0 -0.599446063121017 -0.627450555727803 0.19555220552756783
11 1 55.47304169040051 1.5220449356809087 0.0 0.42091504560046594 0.5767549431160123 -0.19592305989138722
12 1 60.75402219072826 1.521229420914444 0.0 -0.7371462016486308 0.6934854745148235 -0.013757918398079957
13 1 66.0344369650056 1.5208752967743615 0.0 -0.23750464059019114 0.0344028594864331 0.5738544904927004
14 1 71.31485173876797 1.5212294175622179 0.0 -0.29643621454215385 0.3310975914601918 0.13170582638731582
15 1 76.59583223336519 1.5220449307615307 0.0 0.15840080084949545 -0.007222059555283541 -0.03349996382598265
16 1 81.87761320413304 1.522926736667421 0.0 0.2480304785065875 -0.3204295609928527 -0.5199624906582012
17 1 87.16009576336417 1.5236393472746568 0.0 -0.1816065263311218 -0.7005360627102677 -0.05442603222717645
18 1 92.44306666752367 1.5241612770716515 0.0 -0.14852452208973685 0.15618189880191108 -0.018999980868098166
19 1 97.72633837449261 1.524540019280858 0.0 0.34259360375596637 0.4018552655867243 0.32855133907509104
20 1 103.00977950790947 1.5248124418698996 0.0 -0.2786056269437941 0.21413933833310478 0.3455873907122368
21 1 108.29329701544518 1.5249967354901228 0.0 -0.03197939631059355 0.6693099907624478 -0.28058633820869505
22 1 113.57682312892061 1.5251069918225966 0.0 0.7727694016452582 0.2977699182227301 0.006726214009162431
23 1 118.86031756823988 1.5251690459838976 0.0 0.01899757605495142 -0.3078663677478122 0.07770568674822152
24 1 124.14376648193978 1.5251953117472008 0.0 -0.3548740176629268 0.13913155835474883 -0.06476943682809452
25 1 129.42717653190402 1.525202757462514 0.0 0.21354739541579235 -0.30508380853738637 0.22073987414704724
26 1 132.06887399597517 6.100058140810076 0.0 -1.0384905758011094 0.15621836651920978 0.3173176017186751
27 1 5.283400495991938 6.100061394048065 0.0 0.016619965736195452 -1.043884038161608 1.15631558048469
28 1 10.566831095653033 6.100071354133259 0.0 0.32659707882404915 0.060631810828116556 0.04571494874591848
29 1 15.850308323840402 6.10008834235654 0.0 -0.37404263388421155 -0.1479281394077758 -0.329392338044834
30 1 21.133827612924833 6.1001122077791 0.0 -0.9674611137966366 0.06533798642553981 0.03562914670518272
31 1 26.41736580637027 6.100143250834563 0.0 0.33009289006582193 0.7882471942100892 -0.7777449204497852
32 1 31.70086574593383 6.1001817318848675 0.0 -0.00213325882910757 -0.5812979726553273 0.24340251709532068
33 1 36.984248453299145 6.100227051515316 0.0 0.09044871860100812 -0.31353790008877386 0.25456335059336677
34 1 42.26740712882549 6.100279194232751 0.0 -0.11175845824654758 0.46126710995846365 -0.25636281553884727
35 1 47.55018722187171 6.100338101332635 0.0 -0.43463989861818275 -0.5481647455192167 0.4092042852135288
36 1 52.83236991045658 6.100402989797486 0.0 0.8602137253670447 0.09709463925529052 -0.23907668845168314
37 1 58.11373961734046 6.100463455252074 0.0 0.2622370405502669 0.10120478111443815 0.6996502446069806
38 1 63.394320642241425 6.100502711423505 0.0 0.0816513508815418 -0.19968162504034837 0.11940739593768514
39 1 68.67455329425142 6.10050271215621 0.0 -0.261579767428158 -0.3270547735329135 0.233329008272548
40 1 73.95513431173062 6.100463456190681 0.0 -0.09823988735606101 -0.029480915553569895 -0.6995161725607356
41 1 79.23650401101193 6.100402988016751 0.0 0.15215945585445195 0.16122121668911274 -0.022734140375781108
42 1 84.51868671304143 6.100338108933523 0.0 -0.5316099385599928 0.19613311703347283 -0.28228628885119267
43 1 89.80146679855986 6.100279184572341 0.0 0.28373673743690214 -0.052851378621368114 0.29045633243950697
44 1 95.08462547553827 6.100227052395802 0.0 -0.7753599223949957 0.6339783392350846 -0.16709237273505426
45 1 100.36800817517305 6.100181729521975 0.0 0.05938230025669131 0.0941291823590428 -0.3587267394693342
46 1 105.651508115932 6.10014324267952 0.0 -0.11103175128390837 -0.6459086789614944 -0.2510143126561725
47 1 110.9350463146282 6.10011220572988 0.0 0.11444409794704842 -0.15345733471560202 -0.8201830367195814
48 1 116.21856559447673 6.100088343279474 0.0 -0.4600317728265074 0.14587868949541105 -0.13442205450548259
49 1 121.50204282450467 6.100071354480544 0.0 -0.506595928442183 0.8684607599116779 0.24781410151457137
50 1 126.78547342800006 6.100061396684464 0.0 -0.2435888574506937 0.43916933407067066 0.2771277475253168
51 1 2.6416973941920467 10.674911553492528 0.0 -0.03398103586926102 0.5114882375117392 -0.4780493695332042
52 1 7.925114916885872 10.674931625133297 0.0 0.3611424312191751 -0.39731622727783816 1.0676588551598203
53 1 13.208594066698545 10.674983992308485 0.0 0.32700968827680865 0.029990926385451328 -0.3835913056564954
54 1 18.49215354766461 10.675086636606364 0.0 0.13394626465985618 0.06157042637079271 0.21977366263641
55 1 23.77577866476039 10.675252894153118 0.0 0.37339074837919556 -0.3049393998109429 0.1239732924046419
56 1 29.059420389128878 10.675507802923695 0.0 0.37479930180381077 -0.26239159491732233 0.45201789047637836
57 1 34.34300234701303 10.675864924956809 0.0 0.185835902573342 -0.2540289730119254 -0.5565355118512816
58 1 39.62642418110241 10.676342000773653 0.0 0.3291056514310987 0.3428180805491454 0.08528435657432554
59 1 44.90953115219412 10.6769771912648 0.0 0.2937777324110379 -0.8611383907604414 0.2732003738431147
60 1 50.19209042467139 10.677818692990911 0.0 0.1975988615717706 0.0887486884784419 -0.5530828752802021
61 1 55.47383235284851 10.678835644345506 0.0 -0.5059790593979141 0.3329403914084266 -0.4934089056410579
62 1 60.754545399900515 10.679765507953128 0.0 -0.14493681039766393 -0.4927316694952224 -0.04194151247286539
63 1 66.03443696266018 10.680166258232195 0.0 -0.557774873060141 -0.17415310942647125 0.5771170355273673
64 1 71.31432851432224 10.679765500777979 0.0 0.37531221101644086 -0.130678062446972 -0.32126323017466185
65 1 76.5950415742844 10.678835644593612 0.0 -0.13499731818206515 -0.5531646258444849 -0.27881436455507574
66 1 81.87678350070725 10.677818687823075 0.0 0.5725544498720448 -0.5589999039358348 0.34860708318544337
67 1 87.15934277106513 10.67697718880116 0.0 0.16522374831534023 -0.2290125891947955 0.3662517679390281
68 1 92.44244974448713 10.676341996452507 0.0 0.5631857257491315 -0.5924641786549117 -0.1759369271960316
69 1 97.72587157817541 10.675864925671673 0.0 0.20514596886776948 -0.05402748595965763 -0.23913764023136597
70 1 103.0094535376733 10.675507801988415 0.0 0.3099456605352555 -0.23676320381312527 -0.018177541530222035
71 1 108.2930952623392 10.675252889839888 0.0 -0.36080823193198863 -0.7199464809482564 -0.11410510875597188
72 1 113.576720382182 10.675086636111565 0.0 -0.24781048344421835 0.7470085873462848 -0.7546225569357896
73 1 118.86027984896378 10.674983997416188 0.0 -0.6261919723662304 -0.1492490909536038 -0.20435313385559373
74 1 124.14375900259223 10.674931629293205 0.0 0.2888786024831105 -0.47196017452123745 -0.0037279271785282107
75 1 129.42717653105063 10.674911558385018 0.0 -0.8527193735166267 -0.042124814950905996 0.3596939801931972
76 1 132.06887399818112 15.249740840382815 0.0 -0.058056884891038295 0.25127809582800487 -0.1281138828806299
77 1 5.283388277214684 15.249749915042841 0.0 -0.517749796903793 0.23464664038888725 -0.33660853295674403
78 1 10.566841963271814 15.24978942270867 0.0 -0.15726720308211684 0.863855275802733 0.6749133222400419
79 1 15.850418493330565 15.249894058874375 0.0 0.22664599097436908 -0.19702878387760475 -0.11993116054917993
80 1 21.13414931919634 15.250111023956158 0.0 0.045213328115246566 -0.3194086892064742 0.4004210939716078
81 1 26.418010887143094 15.250487503417169 0.0 0.2076512542421998 0.2294310846041769 0.07998761312159171
82 1 31.701919633632997 15.251057563152795 0.0 0.21196257481518826 0.33435688680483383 -0.030172785998311205
83 1 36.9857499482279 15.25184666508257 0.0 -0.7646571321273944 -0.00032476107697813905 -0.06267600221063942
84 1 42.269333472405805 15.252923976800373 0.0 -0.4495216103501163 -0.2153212510336328 -0.23922559404632063
85 1 47.55240466800636 15.25440459981139 0.0 0.5030141092659633 -0.5663431519321342 -0.037506521393252765
86 1 52.83462630157869 15.256328878453884 0.0 0.5395601529201963 0.19012486798634462 -0.058699559579098635
87 1 58.115552929318056 15.258470995630633 0.0 0.26148636190995667 0.4122783193857582 -0.4097428317780746
88 1 63.39504345511769 15.260037212601805 0.0 0.032287524001938496 -0.4187193092640388 0.18167081985713615
89 1 68.67383046534329 15.260037209157021 0.0 -0.6120583578767845 -0.6046973757464835 -0.44607884658715247
90 1 73.95332099350694 15.25847099187639 0.0 -0.19049244971316032 -0.2399842747992213 0.10177338157833592
91 1 79.23424763260782 15.256328878164743 0.0 0.3400460178714773 -0.4127558598748975 0.049419210070895066
92 1 84.51646924957139 15.254404593448802 0.0 0.42049705124331754 0.5963585282696641 -0.025389978868245813
93 1 89.79954044357405 15.252923985079878 0.0 -0.13629107224053086 -0.4820402499592362 -0.5402485130172233
94 1 95.08312397149619 15.251846679634891 0.0 -0.701920471515444 -0.3147885792677686 0.2645190042334717
95 1 100.36695428766062 15.251057560705359 0.0 0.4573925863414659 0.45860616071407 -0.0685483430493747
96 1 105.65086303692148 15.250487513056475 0.0 -0.3156308562715068 0.5879348906323489 -0.28948852704167
97 1 110.93472459828247 15.250111022886552 0.0 -0.6701661671226882 1.063475174618962 0.3511312265459832
98 1 116.21845543198516 15.249894049596454 0.0 0.12704203212249623 0.3535046831548199 -0.27652912778730687
99 1 121.5020319620151 15.249789415145813 0.0 -0.19668336664272892 -0.8453439224791676 0.22727823557132965
100 1 126.78548564474261 15.249749899713812 0.0 0.1988387923523387 0.472680129336844 -0.5963981440063708
101 1 2.6416693589798736 19.82454496805296 0.0 -0.33018639562543256 -0.5846150677083439 -0.08117081640524992
102 1 7.9250514341589 19.824546568517043 0.0 -0.5717288154641462 -0.049731916132189614 0.09634547489108912
103 1 13.208566601910924 19.8245826324972 0.0 -0.19567297773652476 0.21771599548399365 0.13653835337841816
104 1 18.492306265943082 19.824722085758903 0.0 -0.0759527085366704 -0.14844837740671268 0.26637785925184293
105 1 23.77633966733943 19.825066712309983 0.0 0.2156411902507094 0.23148724747237553 -0.2420459622505194
106 1 29.060657848383258 19.825711530887865 0.0 -0.17419521930600013 -0.09469710202220459 -0.32691130971037885
107 1 34.345121867395044 19.82670976630327 0.0 -0.27664695461905925 0.41304479583715875 0.40623598724674126
108 1 39.62945352757145 19.828118595988546 0.0 0.24823592416162021 -0.2009671119651398 -0.42072632266225246
109 1 44.91333048360368 19.830117183507866 0.0 0.8446124388891273 0.7588498642355407 -0.5240362785682591
110 1 50.1963236422453 19.832858491051255 0.0 -0.20133431010169364 0.2175932713756304 -0.16830767775265304
111 1 55.47780988623491 19.836363880947072 0.0 0.4571006469344963 -0.2772402344449069 -0.3464728993960682
112 1 60.75709657536465 19.839796775921503 0.0 0.6676068706715389 0.7328017375694322 0.42340782566425145
113 1 66.03443695737884 19.841337815987774 0.0 -0.3344254069754004 -0.12477116299289077 0.056341470555086405
114 1 71.31177734936679 19.839796778544372 0.0 -0.02005615577885513 -0.6876566075714238 0.14056047545073386
115 1 76.59106403402856 19.83636387076907 0.0 -0.34777298283056707 0.18871467958659133 -0.004517147606750873
116 1 81.87255026889491 19.832858484995672 0.0 -0.5193649960643786 -0.37077492478039004 -0.5848151102067022
117 1 87.15554343999433 19.83011717981113 0.0 -0.3431981507377014 -0.17647760655469408 0.1466128640418973
118 1 92.43942038014107 19.82811858787174 0.0 0.35897629884001564 -0.37175185106178876 -0.01783422941247193
119 1 97.72375205055936 19.82670976077825 0.0 -0.1522727829641295 -0.008952479378379886 -0.737468571951051
120 1 103.00821607789723 19.825711529701067 0.0 -0.31183047237573047 0.48113737010460483 -0.4780088317928444
121 1 108.29253424816719 19.825066706636427 0.0 0.5928772251927655 -0.23084369687682899 -0.02468564573298264
122 1 113.57656765120662 19.824722081336404 0.0 0.33577795568184354 -0.41346867510968444 0.3981356436202118
123 1 118.86030731378001 19.82458263534228 0.0 0.16295931137777192 -0.6494793646467112 0.21578205572875145
124 1 124.14382248378944 19.824546572785888 0.0 0.575421252618434 -0.13251913180092126 0.6685976029632777
125 1 129.42720456025717 19.82454497007441 0.0 -0.7590821716506659 0.012769922678434308 0.36714985281650375
126 1 132.06887400330592 24.39932949696115 0.0 0.060343625982193484 0.1559473777982218 -0.8260849117321367
127 1 5.283275054078264 24.3993068050824 0.0 0.06374405945962862 0.05420605956183965 0.2659045710822939
128 1 10.566651507046306 24.39925383878774 0.0 0.10268651253781211 -0.125904799030279 0.32810440292333676
129 1 15.850252754642527 24.39922523671784 0.0 0.2402358706229354 -0.24197840185976197 0.5252608115484748
130 1 21.134232298023633 24.399335465796444 0.0 0.19710811223977148 -0.15777223255027964 0.14694455848775065
131 1 26.418744522547726 24.399765912244742 0.0 -0.444067660187386 -0.12480455035880385 0.2280286709485799
132 1 31.703840758572387 24.40071365086344 0.0 0.2064508145599197 -0.36328339632813156 -0.36706016489411364
133 1 36.98930551630107 24.402333219967748 0.0 0.07322271334101307 0.38300690187822733 -0.3777562359373175
134 1 42.2745760027596 24.40474173789336 0.0 0.5459513040340466 -0.6161529136908477 0.5021526191458047
135 1 47.5589640391055 24.408200149112364 0.0 0.23286986328678466 -0.34334137108705476 0.6639805340668526
136 1 52.841640798744805 24.413011910350463 0.0 0.46177337030357607 0.16157537265622263 -0.15135924154961017
137 1 58.121382620111966 24.4188650392177 0.0 0.265418006073222 -0.21661083312646073 0.14543496399487685
138 1 63.39739818739398 24.423425439014828 0.0 -0.37461935591676204 0.2993345640317603 -0.07023667904433187
139 1 68.671475729785 24.423425435105877 0.0 0.02378555092497845 0.05358528605311887 0.8258345541793324
140 1 73.94749130342389 24.418865034754436 0.0 0.051804735067563064 -0.15574409974923398 -0.6793928074506274
141 1 79.22723312455709 24.413011915471 0.0 -0.007145283949136042 -0.06454283513313878 -0.12804784985061754
142 1 84.50990988304247 24.408200138347734 0.0 -0.2337850064594768 0.2668574649321713 -0.22422302780617814
143 1 89.79429791466764 24.404741722866046 0.0 -0.24322850669118468 -0.5866334457585862 0.09233496670481517
144 1 95.07956840551314 24.402333218365882 0.0 -0.02702185527184438 0.5901882662980942 0.48157651352148406
145 1 100.36503315975685 24.400713647450345 0.0 -0.727931535272056 0.16326349197960816 -0.4749219141057072
146 1 105.6501293965755 24.399765898783546 0.0 0.07117692106764799 0.18344400192869573 -0.5900467010011841
147 1 110.9346416113579 24.399335463556962 0.0 0.25612068612909195 0.08477356230707958 -0.5663243384644513
148 1 116.21862115443656 24.399225236498225 0.0 0.358501768047841 0.7566961557248122 -0.08344116174218869
149 1 121.50222241181642 24.399253833454193 0.0 -0.2306236219817437 -0.039041202434053505 0.04761406983176739
150 1 126.785598854381 24.399306809519317 0.0 0.17208561429060457 0.1646518674888662 -0.25814065986429924
151 1 2.6415778705490887 28.974095578067576 0.0 0.5156530465366951 0.3472568359530799 -0.23438299565163692
152 1 7.924781371010531 28.973990816724932 0.0 0.2438240910482526 -0.103335074440404 0.3374619698271806
153 1 13.208147560897945 28.9737996858198 0.0 -0.39108358912389474 0.3417310750006761 -0.035190726217928375
154 1 18.491843364136308 28.973588864700393 0.0 0.364146744389055 0.09777877684097898 -0.45832467009553546
155 1 23.776123366347285 28.97352104412865 0.0 0.44198220770771884 0.33994864456256857 -0.34397819926277967
156 1 29.061315386522686 28.973902362443763 0.0 -0.48207330179133095 0.6455450784484701 -0.9969528808110089
157 1 34.34763732485258 28.97515992612121 0.0 0.1944203578498813 -0.26800158222115883 -0.08800467788664543
158 1 39.63483500989047 28.977709997227638 0.0 -0.4044744660406823 0.3872041127124914 -0.4278815254937489
159 1 44.92183946790092 28.98180004951234 0.0 -0.1297363147176228 0.024241116736272404 -0.5525524953228409
160 1 50.20701433858137 28.987835391710366 0.0 0.12949232503845584 -0.6128607572592208 -0.23056426208908973
161 1 55.4885942437582 28.996264940559502 0.0 -0.44155094344601403 0.31899307611809247 -0.21211172313596396
162 1 60.76434980416251 29.005375936664024 0.0 0.37659566934087935 -0.058473603429293974 0.3939329286565879
163 1 66.0344369647825 29.009666851829635 0.0 0.06721344161121873 0.3375630318044541 -0.1886225945810651
164 1 71.30452411988846 29.005375935288864 0.0 -0.32834590155888044 -0.4535045543309158 0.16849921681983154
165 1 76.58027966685405 28.99626493271821 0.0 -0.7862253347847985 -0.11725603829927439 -0.1866307204304642
166 1 81.86185956918361 28.987835386521756 0.0 -0.2603803231098078 0.2128278493982116 0.46160242273848673
167 1 87.1470344440875 28.981800042394937 0.0 -0.2537258275659712 -0.4745702074279079 0.23648022408432154
168 1 92.43403889674401 28.977709992521334 0.0 0.24229485456427122 0.6698916846911492 -0.20038503536394653
169 1 97.72123659239757 28.97515991890327 0.0 -0.09957341576932839 0.08885219941828086 0.5044555718821931
170 1 103.00755852692019 28.973902364846886 0.0 -0.10425448284711995 0.4602769800399148 -0.7611262849000977
171 1 108.29275054263113 28.973521032364424 0.0 0.3073642420634181 0.9822377280567882 -0.36768052046326727
172 1 113.57703056433098 28.973588857983394 0.0 0.1480196029124566 0.6488147689628454 -0.5161061604659657
173 1 118.86072636478563 28.973799683361865 0.0 0.20112411741822503 -0.16782269234212094 0.26244009657469836
174 1 124.14409255283661 28.973990814299313 0.0 -0.12370207023494537 0.5563127640760605 -0.23929910548442632
175 1 129.42729604108047 28.974095574238262 0.0 0.14755356154842658 0.3729851317945307 0.5598995601105178
176 1 132.06887400227188 33.5489016785062 0.0 -0.010344101926517513 0.418363463476634 -0.9070690626325619
177 1 5.283028361737247 33.548813393318945 0.0 0.024856804616515613 -0.0733117983766773 -0.47406154201896716
178 1 10.56614115590455 33.54854151067586 0.0 -0.15893538302213628 0.044034321662127965 0.2143428701656778
179 1 15.849465379946773 33.5480878401572 0.0 -0.1492353136849825 0.1972691808484209 -0.15442043250233473
180 1 21.133225845705816 33.54750164044865 0.0 -0.1431747034257905 0.056525701089785885 -0.25019664781353196
181 1 26.41782262878143 33.546975216323354 0.0 0.07354209221397374 0.5957419639622278 -0.017130466487409363
182 1 31.703875383893912 33.54701079219974 0.0 0.1580458847356824 -0.1880090974090543 -0.27903118964644874
183 1 36.99202062262754 33.548484378470114 0.0 -0.658174215504482 -0.48848269778569803 0.27054472976448285
184 1 42.282099673724055 33.5524260680214 0.0 -0.08569415133244362 -0.3386030726532998 0.6744775620296943
185 1 47.572175138967324 33.55960993059417 0.0 -0.10133403592878966 -0.1936048200177387 -0.4726222293550812
186 1 52.8583313592169 33.57057952911963 0.0 -0.3546656813073999 -0.06283328803077985 -0.1934295296346977
187 1 58.13660156444114 33.585285692761836 0.0 -0.16721488969155818 -0.600194726635091 0.07096114960549817
188 1 63.40384791370513 33.59775149346176 0.0 0.009549790111990255 0.010118316688242363 -0.3340639619298928
189 1 68.66502601011878 33.597751486790955 0.0 -0.04431438986700622 0.30248502205778527 -0.05662028050153319
190 1 73.93227235446751 33.585285704243624 0.0 -0.19204551980238518 0.08918013285172596 -0.35841742595071263
191 1 79.2105425511318 33.570579527351164 0.0 0.7133408371553784 -0.3899793356792572 -0.5114805713122178
192 1 84.49669877167314 33.55960992537298 0.0 -0.589820362694791 -0.4056951042742935 0.0017115151879143003
193 1 89.78677424866477 33.55242606335188 0.0 0.2589980331880641 -0.6384765940620554 -0.08068508349705729
194 1 95.07685328737057 33.54848437148378 0.0 1.0444284297476703 0.14380075001928372 0.13144779454504477
195 1 100.36499853320493 33.547010771545 0.0 -0.6669118973026501 -0.19037572981257198 0.18124077510010103
196 1 105.65105129197461 33.546975207696256 0.0 -0.11132229490105475 0.07371570420368877 0.25824618511462816
197 1 110.93564806781482 33.54750164369712 0.0 0.1630962212709811 0.4046607411315447 0.39347204942405095
198 1 116.21940853656676 33.54808784055486 0.0 -0.14032080900067917 -0.33090406488668184 -0.5387571913448962
199 1 121.5027327528663 33.54854150938692 0.0 0.23893774663174305 0.5570975327064017 -0.3144838950708765
200 1 126.78584554908372 33.54881341001784 0.0 0.63410879507789 -0.5438078154010847 -0.06591415404422273
201 1 2.6414296863465476 38.12369657541514 0.0 0.48106983527377856 -0.38696132966603625 -0.12891577983846
202 1 7.924313009448445 38.1234413449472 0.0 0.19452238071785408 -0.08787077672657068 0.9639579261654564
203 1 13.20728501684186 38.122894860441725 0.0 0.37684497230544256 -0.479405398172453 -0.05208992867328462
204 1 18.49047558356844 38.122003023209366 0.0 0.37413541005116113 -0.16891031932177394 0.5069022762156424
205 1 23.774170675499 38.12074311407606 0.0 0.19914792274356477 -0.16571906459764751 -0.8578151916627588
206 1 29.058975157481736 38.11929773750821 0.0 0.5754329685953607 -0.060638724176373254 -0.5669020056269506
207 1 34.34595779743306 38.118394618406036 0.0 0.3416090844368893 0.5900947770149869 -0.7770159367300723
208 1 39.636534138457925 38.11976891455702 0.0 0.1278902963252051 0.021720100064096366 0.3839818564484201
209 1 44.931123246309745 38.125896430451135 0.0 0.16079656193871816 0.15808253581667994 -0.5482853391312659
210 1 50.22647877974151 38.13918926409489 0.0 0.22147937924913255 -0.5940781535701817 -0.11075769710277174
211 1 55.51339908016867 38.15992763459395 0.0 0.80843634577022 -0.0736251449514168 -0.05204306869645407
212 1 60.78308044062159 38.184486601268524 0.0 -0.2663198750862532 -0.031142800876777448 -0.2514714474596536
213 1 66.03443695236506 38.196754639303045 0.0 -0.7524428613833785 0.5142989412851111 0.5670743677165283
214 1 71.28579346862523 38.18448660944166 0.0 -0.21883605640326592 -0.14874280930582726 0.22941631020941147
215 1 76.55547482668572 38.1599276311383 0.0 -0.16640320911998593 0.4063321896342367 -0.17003631621891838
216 1 81.84239512957332 38.13918925339013 0.0 -0.5576573037089346 0.4938635513064469 -0.4357202031017522
217 1 87.13775066118929 38.12589644052911 0.0 0.2879598909865747 0.43686566369599333 -0.35203796826560074
218 1 92.43233976925107 38.11976891125873 0.0 0.29334777854601285 0.8976508497157595 -0.4598188228751179
219 1 97.72291611145424 38.118394610569474 0.0 -0.5077220804535036 -0.3782102340364598 -0.34296596121605927
220 1 103.00989875800136 38.11929774119997 0.0 -0.2732190955149463 0.4436251078956483 -0.011907465646768112
221 1 108.294703239359 38.12074310952557 0.0 0.48289601958493583 -1.2887726768576457 -0.08926227462015922
222 1 113.57839833077792 38.12200301360164 0.0 -0.053781138789291895 -0.10555374117956604 0.6445524627661425
223 1 118.86158889696675 38.122894849601025 0.0 0.1290727603307878 0.05906349840975864 0.3792466849488467
224 1 124.14456089781314 38.1234413341033 0.0 0.4869819083144331 -0.1977162075228555 -0.6532531902832811
225 1 129.42744422364746 38.123696566465064 0.0 -0.3946798944113445 0.04720502471578127 0.5704132632561331
226 1 132.06887399239153 42.698600869350315 0.0 -0.4419011687551192 0.6130474706051444 -0.5839956406484492
227 1 5.282656489794184 42.698443020826176 0.0 0.2923298157699608 -0.019001841619997316 0.1131169748049485
228 1 10.565316643434087 42.69794197383233 0.0 0.8885403048453255 0.26510435506193786 -0.26358272070234806
229 1 15.84802263704421 42.69700258283064 0.0 -0.20921217480331158 0.3231964082004562 0.019437438335821965
230 1 21.130898313301888 42.695449424507395 0.0 0.6108642735318895 -0.4140899603757429 0.6450591789367772
231 1 26.41425381276668 42.69309005327493 0.0 0.13224777882265532 -0.3222523842546375 0.24953037734483885
232 1 31.698841284152653 42.68999639207819 0.0 0.437377181944548 -0.2949160573970765 0.16186269047288662
233 1 36.986330426247356 42.68717603050451 0.0 0.23832746924614523 0.5246675947503033 -0.5018782403248326
234 1 42.27944337009568 42.68774000345733 0.0 -0.065113215953259 0.1483179820987062 0.10681318774502034
235 1 47.580314026630624 42.697442642467934 0.0 -0.05715653160719513 0.32685182620073633 -0.21511866561716655
236 1 52.884955015317395 42.72322506677885 0.0 0.08589711026401504 0.21374341226486787 0.8044053230165008
237 1 58.17101847635181 42.762867704258774 0.0 0.3045849993307916 0.2790012815402592 0.4477302139310237
238 1 63.42050690015357 42.79910785253261 0.0 -0.15313204898196955 -0.01730252353556924 -0.22978946829368366
239 1 68.64836701435759 42.79910785689081 0.0 -0.10102815792419495 -0.09015543251141854 0.03665069032128104
240 1 73.89785543276236 42.76286769942824 0.0 0.10094648036020454 -0.3120288811071994 0.006365750445348801
241 1 79.18391889736081 42.72322506434116 0.0 -0.15524994646339865 -0.528617328549692 -0.031223773214352792
242 1 84.48855988177526 42.69744264449465 0.0 -0.025216787933881553 -0.03375376437246231 0.07016501219512244
243 1 89.78943052790028 42.68774000438957 0.0 -0.02931136981558438 0.14705479612842098 0.7076981661438768
244 1 95.08254348204046 42.687176021343575 0.0 -0.34748995473936356 0.48426850453248377 0.5486789303731375
245 1 100.3700326227356 42.68999637801396 0.0 -0.030775840083813365 0.13980915753869946 0.07436614770033002
246 1 105.65462009460529 42.69309004912018 0.0 -0.935171674307188 0.3773249140331152 0.13857842871649206
247 1 110.93797559369531 42.695449422560145 0.0 0.2709383508162602 -0.01782587635533989 0.723382959232893
248 1 116.2208512752346 42.69700258111567 0.0 0.050098398743796464 -0.20143976142797967 0.6707327209602547
249 1 121.50355727554901 42.697941962460455 0.0 -0.2115038347031945 0.3069142622416503 0.7465108766742645
250 1 126.78621743169292 42.69844301096581 0.0 0.1750644058042321 0.34225305591742916 0.06171780252221397
251 1 2.641195050741985 47.27350424615408 0.0 0.46732511389157594 0.034196785312939654 -0.28480738379462395
252 1 7.923556437666992 47.273139701908 0.0 0.20513813145652773 -0.3750597895524312 -0.3479333630403878
253 1 13.205844483591568 47.272326626674285 0.0 0.6923713458156963 0.4765702807758799 0.09795960922334755
254 1 18.48804030935147 47.27085629938373 0.0 0.387945112570911 -0.3201970560953903 -0.2583137444726765
255 1 23.770190672069116 47.268373921189216 0.0 -0.049420036212171316 0.8289022549807323 -0.4636784578785883
256 1 29.052514478076777 47.26443012813319 0.0 0.17051518759924067 0.055488092515027586 -0.5830474182526463
257 1 34.33574614479989 47.258782913567174 0.0 -0.18772021330067204 0.17462300827972327 -0.3760207349606363
258 1 39.62197038427454 47.252631560961234 0.0 0.35537331014418155 -0.09644601919572111 -1.163333312253245
259 1 44.91595566776827 47.25114122798339 0.0 -0.13635949674872738 -0.02108843953929188 -0.05428750024623303
260 1 50.22400002544374 47.26610898248921 0.0 -0.018976277555775963 -0.08556367449236794 -0.27533314896506644
261 1 55.54622210449144 47.31804053239333 0.0 0.09514513617166556 0.5205917567297884 -0.09572963940049499
262 1 60.826524183020155 47.391769130473016 0.0 0.5151018699797848 -0.40550530931022893 -0.005033617891519881
263 1 66.0344369528046 47.43045986702508 0.0 0.6416414222060242 0.18634847080302588 0.26284604588498295
264 1 71.24234971317966 47.39176912115243 0.0 0.652155744597636 0.08969234001684917 -0.6179718210710091
265 1 76.5226518023634 47.31804053037692 0.0 0.47976862793494135 0.3672765444776317 -0.1616451654283088
266 1 81.84487388173844 47.26610898054292 0.0 -0.1648306975783163 0.6104127882472007 -0.31421655670322685
267 1 87.15291824320626 47.251141233426615 0.0 0.5226274031008468 0.18637746500661875 0.07208954356383675
268 1 92.4469035257398 47.25263156314048 0.0 0.2525408602665817 -0.042644987872403194 1.3365132121066556
269 1 97.7331277552411 47.25878291644952 0.0 0.17189180961154296 -0.6848928837667166 0.01063172465561663
270 1 103.01635942370255 47.264430117014015 0.0 0.36663242032229687 -0.12526847352248036 0.6099705542749416
271 1 108.29868323736679 47.268373916142394 0.0 0.0012970068450666736 0.6169993565036643 0.03248408991691112
272 1 113.58083360871989 47.27085628950408 0.0 -0.4574852012389486 -0.38687692430785103 -0.11766062230015403
273 1 118.86302942556733 47.272326628046955 0.0 -0.25422125496375053 -0.03441393385389213 0.4540139477814192
274 1 124.14531747581074 47.273139704131054 0.0 0.27934877731714614 0.364065021336545 -0.15550058035094783
275 1 129.42767886131352 47.273504248329616 0.0 -0.6504200789826878 -0.09226292483793422 0.479798418272982
276 1 132.06887399369748 51.848612578517496 0.0 -0.2680929377248678 -0.09289103609509264 0.020992262891645113
277 1 5.282031392414995 51.84843232389657 0.0 -0.3754720054204286 0.3580564885395644 -0.6274246913549664
278 1 10.563934352895014 51.84784478077304 0.0 0.3208485012341718 0.27856820864545917 -0.2600206529900593
279 1 15.845558982203386 51.84668046081242 0.0 0.0712660071900683 0.1644496173194716 -0.2962822953984411