ITEM: TIMESTEP
0
ITEM: NUMBER OF ATOMS
1350
ITEM: BOX BOUNDS xy xz yz pp pp pp
0.0 79.24132444627614 0
0.0 82.35 0
-10.0 10.0 0
ITEM: ATOMS id type x y z vx vy vz
1 1 2.644356080586119 1.5285542849270997 0.0 -0.373781028624033 -0.27753201887289625 -0.0298440896170413
2 1 7.932919426785011 1.5280702895169518 0.0 -0.07972219741770606 0.6473941732608468 -0.7144480869967855
3 1 13.220880907172265 1.526883543131292 0.0 -0.29121845678198754 -0.4135486035295024 0.0803626785960541
4 1 18.507565187558125 1.5249921318311224 0.0 0.003107807663369377 -0.3863096388888874 -0.10350096938627885
5 1 23.792126601058687 1.522298105561772 0.0 0.023630295068760552 0.05780733656114073 -0.11486851125117144
6 1 29.073112242561532 1.5178769999600947 0.0 0.5579199302213471 -0.3143794684481746 -0.13570117770439055
7 1 34.348993651590085 1.5126267350200169 0.0 0.42144321544167845 -0.8964769059186622 0.39502665747691623
8 1 39.620662146222884 1.5100756090502387 0.0 -0.10610312575444268 0.13868465546333758 0.05919906894384065
9 1 44.892330648002 1.5126267228377324 0.0 -0.443004759787243 -0.47370484961826576 -0.10640814914259679
10 1 50.16821205258734 1.5178769968732182 0.0 0.4575855179782064 -0.6271230228892896 0.04207428841589836
11 1 55.44919770126353 1.5222981018703134 0.0 0.1845513380770512 0.060790317334681265 0.13038497729418827
12 1 60.73375910884406 1.5249921319658135 0.0 0.7236606108445826 0.3216302036624209 0.812399669346436
13 1 66.02044340321797 1.5268835382166823 0.0 -0.012866908120314095 -0.5600626846965381 -0.383741825263226
14 1 71.30840487606531 1.528070283059027 0.0 0.38128776605651016 0.6902029482207093 -0.037984317968436584
15 1 76.5969682186111 1.5285542898081028 0.0 0.050605413528485035 -0.024657614170170036 -0.4137150614999138
16 1 79.24132437085781 6.10018338942819 0.0 -0.0681073087291971 0.4019957768507305 -0.239788362896464
17 1 5.288747101506811 6.100213219282876 0.0 -0.04892096834724196 -0.1216519841672512 0.3745490184892918
18 1 10.577177266788336 6.1003006102354345 0.0 0.022318565909802596 0.053397392513442256 -0.39515236810164117
19 1 15.864669715779772 6.100431886571091 0.0 0.5144492813699267 0.6138989105729271 0.3400053690341867
20 1 21.15050020938844 6.100594269452204 0.0 0.16235673176000756 0.2864491972454129 0.45790729008355563
21 1 26.43375626341409 6.100808961733706 0.0 -0.09358079310671008 -0.21924181631577913 0.17655638752311759
22 1 31.712443194920834 6.101071071548819 0.0 0.2061965613980967 0.2783650912339289 0.2005330875112474
23 1 36.98551281846001 6.101264455344076 0.0 -0.5915685384578014 -0.02844737757383957 0.6327591777424477
24 1 42.25581147921312 6.101264451880026 0.0 0.5406675118474574 0.18266291089160364 0.3354772639757176
25 1 47.52888109945874 6.10107107075743 0.0 0.012538321707397073 0.18964581452400744 -0.05878468080319009
26 1 52.80756802930253 6.100808964017853 0.0 0.006212052903861154 0.49584870090881855 0.2872492746075976
27 1 58.090824090023474 6.100594266340785 0.0 0.21618606667798163 -0.134457194061181 0.5636631830374068
28 1 63.37665457050278 6.100431875853299 0.0 -0.4143187519791919 -0.04022644581722579 -0.2692941323886886
29 1 68.66414703456566 6.100300611144591 0.0 -0.542499920190258 0.05327522928239696 0.16298938544739888
30 1 73.95257719892616 6.100213225691339 0.0 -0.26174780183014085 -0.2388639614619567 -0.7689671366734367
31 1 2.64439496821065 10.671780856772696 0.0 0.1756841602562812 -0.3396525280052244 0.5416533641485379
32 1 7.9333256770963265 10.672371243936992 0.0 0.40929047037586513 -0.3738796203835978 0.3423351824832563
33 1 13.222310699065755 10.673774401531027 0.0 0.1771211413219266 -0.6032435603176285 -0.7071018713218032
34 1 18.510479181415622 10.675972781080754 0.0 0.22762001472652107 -0.3258997984359817 0.24703947784035196
35 1 23.796380181976723 10.679059620884507 0.0 -0.19095720555634563 0.4383427110289864 0.46354948157960973
36 1 29.07796436282988 10.683998810364406 0.0 -0.41227659515746773 0.32005881503537725 0.5198805468362769
37 1 34.35263115890887 10.689806057261057 0.0 -0.5609684827506295 0.22617631298529492 0.7044821774079834
38 1 39.62066214519969 10.69260330460854 0.0 0.17710028600687164 0.5055044816270882 -0.49380591716630035
39 1 44.888693124710834 10.689806047748883 0.0 0.6587708111755759 -0.7297965254443645 -0.0026671826130524605
40 1 50.16335994168235 10.683998798868085 0.0 0.5350258907749657 -0.049622072668467326 0.8324944908262669
41 1 55.44494410678761 10.679059619009024 0.0 0.2631625636515234 -0.6474815925548401 0.5548435883307022
42 1 60.73084512367865 10.67597277342079 0.0 -0.23777532146491823 0.33265159722373755 0.051338748782612666
43 1 66.01901358564763 10.673774398514581 0.0 -0.35394463477578864 0.4042446785853819 -0.7734925372091832
44 1 71.30799860922781 10.672371234671976 0.0 0.3361242542733162 -0.3991921049832775 -0.5034961334082697
45 1 76.5969293228673 10.671780853740708 0.0 -0.019783560736377763 -0.2607028639822576 0.1795848570905213
46 1 79.24132436753509 15.243030718235419 0.0 0.024959165235908017 -0.09774152196079884 0.7956473426826339
47 1 5.288586386100146 15.2433079948868 0.0 -0.3138087874968245 0.013867560446682161 -0.15293504135711855
48 1 10.578292432424579 15.244592933590388 0.0 -0.1775901345291696 -0.1457756470095985 0.6350659655362447
49 1 15.869265535453987 15.247686432386365 0.0 0.35708874106316424 0.21612954849480884 -0.09668941161107637
50 1 21.159820047418528 15.253038949123457 0.0 -0.2575801282901942 -0.04282169493903206 0.13003925067392777
51 1 26.44617405607366 15.261594737534844 0.0 -0.23848285652785858 0.405981273770441 0.11481489802247338
52 1 31.72418924361723 15.273936927957926 0.0 0.49789264279487555 0.23267560590993552 -0.4343615002992382
53 1 36.99063655547857 15.284778377057002 0.0 -0.25221387425091474 0.16165353068456084 0.7117841686889907
54 1 42.25068773111685 15.284778369152574 0.0 0.05805658601517482 -0.29866035425767296 -0.11514224958284255
55 1 47.51713504127096 15.273936929014626 0.0 0.019293548857155188 0.09668344524260446 -0.5617717226030534
56 1 52.79515023348367 15.261594734431398 0.0 0.5205609174888364 0.9542135721228604 -0.21392414901073664
57 1 58.081504251236396 15.253038953067685 0.0 0.6041533706038662 0.35013456358613004 -0.02309284544536918
58 1 63.37205875417814 15.247686429230788 0.0 -0.5920744214274767 0.45002989692306605 -0.017562856504524917
59 1 68.663031857433 15.24459293338701 0.0 -0.2753516853215706 0.29291763225978146 -0.17804924064940766
60 1 73.95273789846836 15.243307993327887 0.0 0.1173652914047286 -0.11740799378035906 0.04732545660315834
61 1 2.6436863718375707 19.81419857934616 0.0 0.244046368908558 -0.3295650536127729 0.1443454747963458
62 1 7.932070691203495 19.81414264455795 0.0 -0.15533021185489854 0.11299210154853388 0.49854019336313904
63 1 13.223380272530205 19.81562249127965 0.0 0.08755357535498047 -0.34141419071561663 -0.6796261942454287
64 1 18.518235741688528 19.82092715967954 0.0 -0.42603685412679876 -0.14319126603674093 -0.09390866126722933
65 1 23.813520772532186 19.83250886975929 0.0 -0.2562162350472246 0.2206788076124063 0.3000550108406101
66 1 29.10031636276009 19.851360609672398 0.0 -0.09454850399650318 -0.23450290439728433 -0.443246236168095
67 1 34.36973168001637 19.87440585032654 0.0 -0.27381587006606833 0.4004925692595708 -0.4145552037886793
68 1 39.62066215205077 19.886085726060266 0.0 0.21552014960558125 -0.21387562830097404 0.2187720826185545
69 1 44.87159260709065 19.87440585364552 0.0 0.060736758485768275 -0.3973994331714049 0.1407603509068606
70 1 50.14100793401342 19.851360613870085 0.0 -0.05281063647813345 0.09422066880414086 -0.12923813722249378
71 1 55.427803498554006 19.832508869991326 0.0 0.692381145933181 0.04866681265324952 -0.22387770445515456
72 1 60.72308854336253 19.820927149527083 0.0 -0.26874834902571176 0.30322419053853067 0.048567700925324746
73 1 66.01794400704705 19.815622491512073 0.0 -0.018919992127057243 0.5610252659101455 -0.1470154471093493
74 1 71.30925359763032 19.814142634134416 0.0 -0.17248206456480275 -0.5585730275815476 0.5902779034204764
75 1 76.59763791233219 19.814198582033903 0.0 0.5213032505479825 -0.04140395888209692 0.018143540362883806
76 1 79.24132436516831 24.38578363059614 0.0 -0.2303262462694263 1.165731414135239 0.019625778084764983
77 1 5.285767632564162 24.384872578864254 0.0 0.016319794440266603 0.6074337398279838 0.34613895756484775
78 1 10.573800471738089 24.38312435335263 0.0 -0.2519266902265289 -0.49261602361701406 0.22719544413109627
79 1 15.867011685609796 24.38381558228558 0.0 -0.332397535888248 0.08320275518390943 0.20658046540768885
80 1 21.167650569724223 24.392687824441918 0.0 0.8012858348742605 -0.21079639671540537 -0.16247571373596928
81 1 26.471851938323194 24.41684395868345 0.0 -0.9987268427666806 -0.002575726133556909 -0.08620874818642775
82 1 31.757629799097245 24.454962260901716 0.0 -0.7246839455515717 -0.5035078602623356 -0.035394707219818494
83 1 37.00686681611009 24.490272266531022 0.0 0.15305736466128414 0.25151358803338975 0.5816368985374085
84 1 42.23445746989087 24.49027227299387 0.0 -0.12050634843577561 -0.11030657978381729 -0.6599267127633385
85 1 47.48369448584118 24.454962261598503 0.0 -0.43490736717322476 -0.5921942827118619 -0.18824505761196755
86 1 52.769472345618894 24.416843952630387 0.0 -0.48119845101018266 0.1361237384743322 -0.6128368891972559
87 1 58.073673710052795 24.39268782604299 0.0 0.20530686490086464 -0.035805569809358756 0.1376280222544029
88 1 63.37431259331315 24.383815570470023 0.0 0.36128729695075007 0.696936164720848 -0.592975344996003
89 1 68.66752381179636 24.383124348696512 0.0 -0.5215246116655774 -0.5547995633026146 -0.16768714554210962
90 1 73.9555566568819 24.38487258409556 0.0 0.03404362355308932 0.14710031923705497 0.4278211119455098
91 1 2.6413881891908737 28.95778776403399 0.0 -0.2591075027177888 0.3026680868967758 -0.23412761272853036
92 1 7.9247848255000966 28.954353058865056 0.0 0.011517079208537478 -0.7670723911818791 0.5748394802269995
93 1 13.210873411313012 28.949235941805743 0.0 -0.11687827227060629 0.0956893453914347 -0.3880625946204114
94 1 18.504458586974675 28.94777877802915 0.0 -0.5158167276143539 -0.3654758851575111 0.31390307036521914
95 1 23.811907643364528 28.961827558194354 0.0 -0.29140609835687825 -0.06633185781685523 0.034661998358315384
96 1 29.133446604918305 29.012137059351236 0.0 0.010743289557634386 -0.14074629114612314 0.03721978007875052
97 1 34.413243668466954 29.084624688349333 0.0 0.02859323707294896 0.016707010996327303 -0.1749151425633987
98 1 39.62066214797455 29.122858089446627 0.0 0.04358595580276123 -0.35713151594004683 0.804221155965836
99 1 44.82808061650386 29.08462468772527 0.0 0.41171453725734924 0.25300166473727803 0.19229864877591837
100 1 50.10787767360548 29.01213706555139 0.0 -0.18631555511303904 0.055291742996800126 -0.06087168057966509
101 1 55.42941663400655 28.961827570047074 0.0 0.11828378878027733 0.25618945154564055 -0.2405291289181123
102 1 60.73686570074571 28.947778762956656 0.0 -0.14885746065329908 0.7067088684812342 -0.19381064393220426
103 1 66.03045087220076 28.949235930191445 0.0 -0.18819151325762512 -0.34413041679552087 -0.9617082901963819
104 1 71.31653945451988 28.954353051570067 0.0 -0.4939611955193121 0.42226633067372765 -0.1936084038820826
105 1 76.59993609482935 28.957787763337194 0.0 0.05681382752248322 0.16312810598686384 0.2748205726541373
106 1 79.24132436868608 33.53227350329131 0.0 0.7568033006036626 0.0721991771493099 0.28979996636195743
107 1 5.278406295253644 33.52985223503186 0.0 0.2212905821541678 0.09686149049153998 -0.05617780859881147
108 1 10.556675450768688 33.522866909479745 0.0 -0.3137632291228383 0.07410281859135592 -0.7442899356904049
109 1 15.83635390137457 33.51268646994768 0.0 0.548247073704799 0.014399355246659223 -0.36616660086380226
110 1 21.124088207053518 33.506665827116684 0.0 0.10459379489247018 -0.32756479369863634 -1.0636774122904806
111 1 26.43477585987188 33.52597100451581 0.0 0.1958992678338043 0.40254758659357326 0.3291593754282136
112 1 31.79160355923811 33.63173931771971 0.0 -0.1152813449982417 0.11384696724066316 -0.3379182774346901
113 1 37.04882069427147 33.75765561943632 0.0 -0.2492478498784004 -1.0376668956624004 -0.5049443149159188
114 1 42.19250357660943 33.75765561341414 0.0 0.4394132967492114 -0.47429978476122236 -0.052652371893329816
115 1 47.44972071794618 33.63173933393009 0.0 0.09954978376304514 -0.12149056361333228 -0.14134733229020038
116 1 52.80654841855897 33.525971005398 0.0 -0.307634432403481 -0.3849763702989303 0.2556924429508467
117 1 58.117236079975385 33.506665828913754 0.0 0.33479461711935193 -0.7002257615811881 0.25169183063244543
118 1 63.40497037673371 33.51268646899466 0.0 0.26626862174877414 -0.3353397912015525 -0.21285275052509497
119 1 68.68464881935935 33.52286691631398 0.0 -0.14822207998189466 0.3257527820439826 0.03655212788099031
120 1 73.9629179843705 33.52985223848636 0.0 -0.311665587473737 -0.4071012938944852 -0.5725996967919967
121 1 2.636162574266986 38.10838162843342 0.0 0.4458480547354708 0.5005662605521446 0.00912915192483961
122 1 7.907263125719789 38.10335429361753 0.0 0.19809387500132422 -0.024551841031297383 -0.39423481739446525
123 1 13.174751089068222 38.092778101861335 0.0 0.6272033564827018 1.0559180410517872 -0.5253985793057397
124 1 18.437552587599544 38.07657655463568 0.0 0.31644943698308703 0.06304493770766902 0.21914226423859925
125 1 23.70125609025846 38.06156902375935 0.0 -0.06736877639032443 -0.05288166278257392 -0.19619122821971705
126 1 28.994962758869054 38.07839354916583 0.0 -0.5424363938806407 0.12302435264776485 0.13530232360189393
127 1 34.421393454877226 38.305112556968325 0.0 -0.5235417546404352 0.24811249661489151 0.46292317349695977
128 1 39.62066214385604 38.48060424151539 0.0 0.06593766994599226 -0.34950580751317023 -0.5310776921085203
129 1 44.81993082248974 38.30511256883928 0.0 0.5470374051656917 -0.07094097905693618 0.3409241597703773
130 1 50.246361518326616 38.078393549423566 0.0 -0.29635557393505074 0.17235610436248794 -0.20776439963036678
131 1 55.540068195603126 38.06156901903603 0.0 0.055860246528888956 0.26289937720278983 0.6897268891230187
132 1 60.80377170704169 38.076576553456626 0.0 0.07048214639095297 -0.6289081278955742 0.3083999417374838
133 1 66.06657319831743 38.09277810759462 0.0 -0.17440942671122378 -0.003402315610692301 0.2440983970796317
134 1 71.33406115221592 38.10335428538192 0.0 -0.503371277016622 0.18622409668194212 -0.1700010613804601
135 1 76.60516170208041 38.108381625472965 0.0 -0.23063982003689285 0.31347342449727983 -0.3162412721417545
136 1 79.24132436317365 42.689846956727024 0.0 0.22606762032919503 0.024943531009873475 0.18913385539662173
137 1 5.26599374276135 42.68809225913034 0.0 0.6166131098958705 -0.07821294244720835 0.10228901460086999
138 1 10.526697677475529 42.682488690035754 0.0 0.07601282070346263 0.2674567846359554 0.03936621660735585
139 1 15.77532759569952 42.67141183778367 0.0 -0.5859010990752942 0.22628790899001985 -0.3512024166458486
140 1 21.001462781861132 42.652095042063316 0.0 -0.15789223286087264 0.46677152100897096 -0.40219524618187386
141 1 26.189449527486094 42.62241876606166 0.0 -0.3337449669563935 0.07770565839792681 0.017609346489221793
142 1 31.327436805927103 42.59702676510656 0.0 0.03828209665391397 -0.05218955506251888 0.29189826468522195
143 1 36.65548313591975 43.06390368343404 0.0 0.4303457497282843 0.10352037145885183 -0.4196598364752108
144 1 42.58584113667346 43.06390367899941 0.0 -0.5478072620494809 -0.29582551430030485 0.18010895900400278
145 1 47.913887471381706 42.59702677695794 0.0 0.34790495230300045 -0.17211703816879423 0.12686062859365002
146 1 53.051874752475534 42.62241876752652 0.0 0.0022153205135481842 0.6944213502008422 0.08893171513005131
147 1 58.23986149760111 42.65209502769532 0.0 0.32124497557384657 0.08238131987929598 -0.3540366509233673
148 1 63.46599667812701 42.67141184499327 0.0 -0.18500093243355725 -0.6163408950192236 -0.01978515216171582
149 1 68.71462659394938 42.68248868844753 0.0 0.15855286004552124 0.25531867992611856 -0.7315451857423866
150 1 73.97533052746796 42.68809225547143 0.0 -0.592702668876737 -0.29227798628713514 0.004715687094064972
151 1 2.6335085113206937 47.27474142422195 0.0 0.12681918346217944 0.4487424947633247 -0.4005998032097945
152 1 7.897989950624665 47.27470956979876 0.0 0.432159244355796 0.32406650168478524 0.4926712017712052
153 1 13.154274870938645 47.2746323494499 0.0 -0.10405821108950233 0.7520818141004029 -0.35637981971479016
154 1 18.394145708197822 47.27444208146151 0.0 0.29042493164720107 0.288050618081261 0.24851749267269224
155 1 23.604438119698457 47.27389995241847 0.0 0.09176019006357256 0.11828950481586648 -0.37957445364752224
156 1 28.76630748749292 47.27191818842658 0.0 0.24273476666048577 -0.19197805204112853 -0.11881490638890396
157 1 33.86858255079273 47.26356503195119 0.0 -0.19730582871261848 0.18380977062461998 0.215558676601611
158 1 38.1082083571801 45.74999996298112 0.0 -0.21276721846091895 -0.0464581701805238 0.17263972537527103
159 1 45.37274173033518 47.26356504290081 0.0 -0.03454172014804947 -0.08692214393844039 0.5039925246482375
160 1 50.475016787822234 47.271918188216056 0.0 0.07899489289581262 -0.2074763459384648 0.5084191143600677
161 1 55.636886164843105 47.27389995943711 0.0 -0.43944679634041894 0.4551718010550735 -0.13978745514145932
162 1 60.84717856785212 47.27444207382734 0.0 0.01729400533107235 -0.23184181958828728 -0.36780005843786195
163 1 66.08704941570208 47.27463233904724 0.0 -0.711455589943977 0.011348850385075365 -0.23109590998291082
164 1 71.34333432530701 47.27470956241736 0.0 -0.14581615988576363 0.1534396304784033 -0.4162973760069311
165 1 76.60781575713078 47.274741427043196 0.0 -0.09963319804626691 0.20634856956773348 0.05360315884425307
166 1 79.2413243671321 51.85966212387305 0.0 -1.1123321541884938 0.44100546448937084 0.05238978684131084
167 1 5.272997091586677 51.8613609610077 0.0 0.003998723649460915 0.07671578306333662 -0.25648632400915256
168 1 10.543669425612263 51.86676944758788 0.0 0.16321731464129652 0.3079907106636688 -0.7015604166476699
169 1 15.810050178907247 51.877320952689445 0.0 -0.16150323556775692 0.2070542041292988 -0.8201645597667478
170 1 21.07219199392006 51.89509039204185 0.0 0.2340155858516849 0.18549743943074185 -0.816325156162909
171 1 26.34007130700154 51.91985088203038 0.0 -0.02499209666766635 0.6804414309483515 -0.33695089939410494
172 1 31.646104869996663 51.9240872680277 0.0 0.7619700236291621 0.6166570713773358 0.03756533836508786
173 1 36.96710461169168 51.48943793112425 0.0 0.44344761119172504 -0.16643274557869553 -0.45432258101946843
174 1 42.27421966473556 51.489437929664795 0.0 0.019033107279980265 0.004623532800254678 0.4247299280302903
175 1 47.595219414117274 51.9240872673727 0.0 0.12226636453739338 -0.880422137397479 0.12018751864593234
176 1 52.90125297024643 51.91985088853587 0.0 0.5872297587718059 -0.4340782337535517 -0.001343641160796584
177 1 58.16913229007256 51.89509038815916 0.0 -0.03621388016823392 0.22385098670995165 0.334227670372678
178 1 63.43127409640831 51.87732094374418 0.0 0.1884497732462531 -0.11180845571159824 0.038323314981678645
179 1 68.69765485452955 51.86676944084698 0.0 0.6843286624419672 -0.26798789247252536 0.7519532033205927
180 1 73.96832717619787 51.861360960806884 0.0 -0.13035600927698923 -0.37506607530147923 0.6288065387316359
181 1 2.6398064460878725 56.441189293354 0.0 0.42123418749101377 -0.050374755318946945 0.24037200421881277
182 1 7.919238192621121 56.446044924694085 0.0 0.8730615372857279 -0.07286868122829883 0.010143237508545998
183 1 13.198805286174174 56.45621034288803 0.0 0.1772906165557728 -0.1300875391100244 0.2249463297016246
184 1 18.480844247039403 56.47148363364086 0.0 0.08252314647811648 0.0252843852854052 0.05518844699510815
185 1 23.772538941921848 56.48447310396482 0.0 0.1146059508958785 -0.30707200725862055 0.6313969105093218
186 1 29.08357961035492 56.46431200266952 0.0 -0.04814374726568336 0.2455319423170784 0.09363959561778337
187 1 34.38735922416829 56.25209521110042 0.0 0.07756462686804949 0.042322316712181014 0.2849842579346347
188 1 39.62066214730552 56.08804895064033 0.0 -0.2444358421511802 0.4106431124838127 0.13874768336291016
189 1 44.85396505915107 56.252095212783864 0.0 0.4000422695104265 0.018324705920259664 0.03386064271862532
190 1 50.15774466711622 56.46431200217901 0.0 0.077266939013265 -0.6271818571534445 -0.1787673347809067
191 1 55.46878533932028 56.48447309353063 0.0 0.5986716007606586 0.2657003242199698 -0.19866993789212434
192 1 60.76048003683775 56.47148363175588 0.0 0.8392567159307043 -0.19138222165674273 0.34031094349676566
193 1 66.04251899675671 56.45621033223571 0.0 0.08941221627102229 -0.09024897991252112 -0.11305515527437449
194 1 71.32208607477152 56.44604492148843 0.0 0.1713635983793 0.23580262439009803 -0.3511227381876308
195 1 76.60151785210728 56.44118929025765 0.0 -0.8897439380994988 0.18359425419697797 -0.10358918216425007
196 1 79.24132436401244 61.017445449914085 0.0 -0.4319815141832666 0.32515982915566427 0.9011527486671415
197 1 5.283913473337631 61.01977454632431 0.0 -0.6057349952683889 -0.2759279563596492 -0.21905613944933042
198 1 10.568923982453285 61.026475268603185 0.0 -0.226380851452314 -0.12119218210162758 0.18088991513462035
199 1 15.857481605414844 61.036144231592694 0.0 -0.03613163790007914 0.48209066416860386 -0.8800046231165176
200 1 21.153628712846565 61.04141174313698 0.0 -0.34492823616416834 -0.39012900916929283 0.09664210080489866
201 1 26.458874877105924 61.02141290742793 0.0 0.243927380470321 0.20012414272072634 -0.3887132824625769
202 1 31.755097899781738 60.92093679254949 0.0 -0.18782408503783482 -0.38168210481548476 -0.173121612032895
203 1 37.007556659757604 60.80147696565031 0.0 0.15943315809895026 -0.16117925079531703 -0.21393308667791835
204 1 42.233767641092264 60.80147696200037 0.0 -0.3843511867819581 0.09665512873923565 0.18435800323763799
205 1 47.486226381823094 60.92093679442803 0.0 -0.21385944815483932 0.26321899017251144 0.8731408360497948
206 1 52.7824494080253 61.02141290559883 0.0 0.19602336426121467 0.007991824303990194 -0.16766611377575574
207 1 58.08769557797779 61.04141174679388 0.0 0.16981617830244358 -0.1125790250354024 0.408697995750902
208 1 63.38384267649969 61.03614422154899 0.0 0.5386706335660914 -0.9276311109930907 0.7473953219727085
209 1 68.67240030976286 61.02647526345128 0.0 0.07220605428103231 -0.09919395109906459 0.1795410587904339
210 1 73.95741081544702 61.0197745475746 0.0 0.17006554188240403 -0.19242242692683748 0.06460252472115476
211 1 2.6430869625523488 65.59201602706833 0.0 -0.04708848380568337 -0.3109126987630179 -0.10342404927923124
212 1 7.93009950893721 65.59528121333025 0.0 0.49154788384618914 0.3756368104240284 -0.3174514696122459
213 1 13.219936527673484 65.60010660190873 0.0 0.4860867327687776 -0.25671649834373766 -0.6781200752897186
214 1 18.51462693876166 65.60130436843964 0.0 -0.5086664865085164 -0.12527601115641193 -0.19729973802045084
215 1 23.813324690538543 65.5873569412054 0.0 0.3208383714009107 0.37773701443394886 0.08282251010889026
216 1 29.10539216982857 65.53924850640462 0.0 0.02322687016038123 -0.11852684688593768 -0.15846621466601488
217 1 34.37366768460268 65.4700939110975 0.0 -0.08171993990387913 0.2191161457408636 -0.19601226148695777
218 1 39.620662148600054 65.43356077352887 0.0 0.2913113467493393 0.2648161662491903 0.3020352321585403
219 1 44.867656612627066 65.4700939039465 0.0 -0.029732806807319025 0.19416211888776563 0.5023466719734557
220 1 50.13593212174438 65.5392485093117 0.0 -0.15906971771226391 0.5024332461306805 0.24074114407139918
221 1 55.42799960649419 65.58735694288002 0.0 -0.24254048552957905 -0.044148684663853084 -0.3293809224731962
222 1 60.72669734784099 65.60130436494613 0.0 -0.5192288972066768 -0.17592933003513037 -0.576850801225285
223 1 66.02138776662729 65.60010661257851 0.0 -0.14950196096941681 0.18623924362740277 -0.35215309873516126
224 1 71.31122479713069 65.59528122064532 0.0 0.3295542143283907 0.12883530787585887 0.5669655141726011
225 1 76.59823733496529 65.59201602519991 0.0 -0.029047637954757975 0.3619904047074466 -0.23040804871510523
226 1 79.2413243731612 70.16414105467736 0.0 -0.18933074963776483 -0.03636549773745902 -0.037747867716208944
227 1 5.287819802901554 70.16499584065683 0.0 0.01108336609616952 -0.5562653640388185 -0.029107653932020933
228 1 10.577188782530827 70.1666262379708 0.0 0.41927675946224907 -0.3717255216912543 -0.2811917462562197
229 1 15.869276078115764 70.16589443539307 0.0 -1.2055962368637998 0.8109671033548423 -0.1928223868135593
230 1 21.16290478126223 70.15730502050396 0.0 0.2572991383844537 0.11037607968448952 0.3274012732389295
231 1 26.452424690484076 70.13421756204883 0.0 0.26247882308097403 -0.20444654223425648 0.006708198640351105
232 1 31.729510228959544 70.09779815487924 0.0 -0.16063083173211798 -0.4547765731072144 -0.11539871995722527
233 1 36.99236890712556 70.0640777762161 0.0 0.023222205017303384 0.04361974574965452 -0.1185695702728793
234 1 42.24895538657901 70.0640777648085 0.0 0.12827677164244108 0.07067197812358718 0.05862465925498439
235 1 47.51181406829087 70.09779815803431 0.0 0.4885107166309069 0.043467485310886296 0.10317505494408473
236 1 52.78889961047657 70.13421755264143 0.0 0.33715164897837535 0.16663046782790022 0.04711029241391726
237 1 58.07841952918547 70.1573050226516 0.0 -0.3717808403239906 -0.0893544881981192 -0.6765844687587674
238 1 63.37204821751999 70.16589443289858 0.0 0.5967940626059114 0.005956600062539247 -0.902403924038066
239 1 68.66413551271778 70.1666262322854 0.0 0.43099230922370974 0.2512140673556858 0.5127398185628329
240 1 73.95350450711514 70.16499584763989 0.0 0.914737736379494 0.6701462945438015 -0.13820118466206663
241 1 2.644192518348487 74.73585746445845 0.0 -0.07651500611147835 -0.22524911375057668 -0.3882644313972025
242 1 7.933034080489396 74.73590067967598 0.0 0.34710024110796445 0.8088865123424377 0.2653924888731334
243 1 13.22291810793209 74.73449246259733 0.0 0.15197764117767504 0.30673336787670286 0.22303145816017617
244 1 18.51321393727136 74.72947129178543 0.0 0.008187500066631426 -0.4725608487518908 0.10125156722611191
245 1 23.801026765740893 74.71850004441049 0.0 0.05741662323744331 0.04358870690824002 0.4905352646684091
246 1 29.082290451531076 74.70055464039349 0.0 0.863383363190017 -0.16140597368493928 0.4431086894090882
247 1 34.35481577735155 74.67861638472402 0.0 0.07559098785213626 0.0465612128574697 0.02749404548622888
248 1 39.620662153018095 74.66750355003333 0.0 -0.12636177834578877 0.0008797347590401753 -0.3176054923904747
249 1 44.88650853907292 74.67861638738346 0.0 0.09205260450142913 0.20265427130975552 -0.034800526203646605
250 1 50.15903385754229 74.70055462872482 0.0 0.12834194625385606 0.10748341301763321 0.5564133280770176
251 1 55.44029753502045 74.71850004170035 0.0 -0.28304573579208364 0.08424937155959138 0.1313404272925316
252 1 60.728110367179156 74.72947128968993 0.0 -0.20213901535596795 0.027840206077937968 0.32999904705488536
253 1 66.01840619890183 74.73449246282543 0.0 0.2537588894463099 0.48998587704154795 -0.06385918069484833
254 1 71.30829021503584 74.73590067642833 0.0 0.08259679971345214 0.3014590885185352 0.534478243986957
255 1 76.59713178559333 74.7358574647689 0.0 -0.498902586744427 0.1167762144850363 -0.6598003058781869
256 1 79.24132437546375 3.0498165495716534 0.0 0.7297843940706809 -0.05247513624345275 0.3636559044361079
257 1 5.2887471028242805 3.0497867122229008 0.0 -0.0325128074978911 -0.05603460946616725 -0.6190990715040426
258 1 10.57717727118457 3.04969932298773 0.0 0.04988449278969945 -0.07913992866656544 -0.1928513322915929
259 1 15.864669724228827 3.0495680451908775 0.0 -0.5979109600526628 -0.05063608223229683 -0.6641382953219999
260 1 21.1505002072776 3.0494056627193595 0.0 0.02091033505812351 0.4314402368736044 -0.43957034062142186
261 1 26.433756263019273 3.0491909638799446 0.0 -0.31451944990855424 0.23824639586330815 0.6274665906038341
262 1 31.712443199584097 3.048928865250406 0.0 0.6256729423021263 0.1331149485800303 0.1601341366118824
263 1 36.985512831819605 3.0487354705411813 0.0 -0.5887444541805023 -0.20494837448520034 -0.11379950849051394
264 1 42.255811479279636 3.0487354759296434 0.0 0.3093565320539023 -0.4062467553068619 0.07477607946726991
265 1 47.528881102205574 3.048928857769625 0.0 0.6560492364043048 0.32075935163467295 -0.22596915600185857
266 1 52.80756804045375 3.0491909617668767 0.0 0.6789309156390352 0.2659731017409609 0.5213914588836229
267 1 58.090824100367776 3.0494056593934458 0.0 -0.2747439312017232 0.06119545638979423 -0.4940163891722048
268 1 63.376654570474436 3.0495680541820205 0.0 0.4400328874414736 -0.3546847442702457 0.2934529142752568
269 1 68.66414703638702 3.049699317698778 0.0 0.008720655112847598 0.003576013676564494 -0.2696807354501072
270 1 73.95257719804087 3.049786712191667 0.0 0.6844032589927512 -0.899981323847792 -0.23390526379166768
271 1 2.6443560803834396 7.6214456338983485 0.0 0.15213727787275083 0.40567652929363895 -0.1924986493384155
272 1 7.932919423910808 7.621929640257177 0.0 -0.5151694066759146 0.38645322728632786 -0.8700001819923479
273 1 13.220880905246974 7.623116390958426 0.0 0.21932244956358615 0.025678082986007766 0.6287982237236283
274 1 18.507565185284793 7.625007794203191 0.0 0.06742368356111796 -0.3211927692588619 -0.39807186821554813
275 1 23.79212659805297 7.627701830145324 0.0 -0.9517372198307871 -0.6445500562674618 -0.04017117914441804
276 1 29.07311224457235 7.632122926869694 0.0 -0.6420566931956286 -0.17604066018955444 0.16825920019969265
277 1 34.34899364713631 7.637373200813415 0.0 0.07311688941057526 -0.4331741625582543 -0.4758817673611166
278 1 39.6206621504453 7.639924328334949 0.0 -0.16977573943496596 -0.3532346301125357 0.055869416609651654
279 1 44.892330646132926 7.637373203677539 0.0 -0.10082674932318543 0.021268611086201743 -0.13956481751509264
280 1 50.1682120607285 7.63212292502377 0.0 0.6480048787672305 -0.13532531647553084 0.10489681521412568