ITEM: TIMESTEP
1
ITEM: NUMBER OF ATOMS
400
ITEM: BOX BOUNDS xy xz yz pp pp pp
0.0 19.7609 0.18040026509483856
0.0 19.7609 0.0
0.0 10.0 0.0
ITEM: ATOMS id type x y z vx vy vz
1 1 0.7877610870145431 0.7148801201316232 0.0 0.0 0.0 0.0
2 1 1.3073282655544498 0.29066523302066094 0.0 0.0 0.0 0.0
3 1 2.8068427727568803 0.9914445226358711 0.0 0.0 0.0 0.0
4 1 3.2942074816311546 0.4932946277467309 0.0 0.0 0.0 0.0
5 1 3.9360043158565063 0.30133703617895424 0.0 0.0 0.0 0.0
6 1 4.911182431305258 1.0789805202080271 0.0 0.0 0.0 0.0
7 1 7.244074543195776 2.2098141269185754 0.0 0.0 0.0 0.0
8 1 7.535098068897502 0.8455875831899392 0.0 0.0 0.0 0.0
9 1 8.221206211959633 0.6613395876057315 0.0 0.0 0.0 0.0
10 1 8.887866714617694 0.8200949040197113 0.0 0.0 0.0 0.0
11 2 9.894566641268142 0.405547589184524 0.0 0.0 0.0 0.0
12 2 11.024677863463227 1.0470825877021557 0.0 0.0 0.0 0.0
13 1 12.113901544115823 1.263208977535676 0.0 0.0 0.0 0.0
14 2 13.121656138845456 0.787690778159961 0.0 0.0 0.0 0.0
15 2 15.165339063206954 1.116022531851649 0.0 0.0 0.0 0.0
16 2 15.79177353722624 19.65673980825184 0.0 0.0 0.0 0.0
17 2 16.353282750799156 1.0609149975917604 0.0 0.0 0.0 0.0
18 2 17.372736989168068 0.3546176742532791 0.0 0.0 0.0 0.0
19 1 18.447074224256266 0.18846194338973432 0.0 0.0 0.0 0.0
20 2 19.44733521820298 0.7490815876369621 0.0 0.0 0.0 0.0
21 1 0.5921315023811431 1.3583425168558287 0.0 0.0 0.0 0.0
22 2 1.7098503882609501 1.3335812935553921 0.0 0.0 0.0 0.0
23 1 2.778825574966345 1.6794342775742985 0.0 0.0 0.0 0.0
24 2 3.8739805124531097 1.400789804063154 0.0 0.0 0.0 0.0
25 1 4.562026838116332 0.5032237217334856 0.0 0.0 0.0 0.0
26 1 5.025562829087147 1.7610746785109523 0.0 0.0 0.0 0.0
27 2 6.170160667591209 1.891571293573229 0.0 0.0 0.0 0.0
28 1 7.2280588430428825 1.5110112766597221 0.0 0.0 0.0 0.0
29 2 8.30228098191587 1.7330635935564078 0.0 0.0 0.0 0.0
30 1 9.333955954433575 1.347061515714526 0.0 0.0 0.0 0.0
31 1 9.99945401298068 1.5043287256290496 0.0 0.0 0.0 0.0
32 1 10.44629678355603 2.008723186103693 0.0 0.0 0.0 0.0
33 1 12.574303712915416 1.7749249331209864 0.0 0.0 0.0 0.0
34 1 14.112862193713191 1.219222601803685 0.0 0.0 0.0 0.0
35 1 14.345631287392935 1.8720046898344995 0.0 0.0 0.0 0.0
36 1 15.6344417741887 2.1436901915603355 0.0 0.0 0.0 0.0
37 1 16.984277466587653 2.0695873760488555 0.0 0.0 0.0 0.0
38 1 17.32300442735131 1.4979195019629914 0.0 0.0 0.0 0.0
39 2 18.34893020850967 1.2401904930338958 0.0 0.0 0.0 0.0
40 2 19.387183258599592 1.943829998101259 0.0 0.0 0.0 0.0
41 1 0.7211348409577396 2.0079645196507703 0.0 0.0 0.0 0.0
42 2 1.3550748533250316 2.8704269925705455 0.0 0.0 0.0 0.0
43 1 2.3587706811382305 2.225520672361528 0.0 0.0 0.0 0.0
44 2 3.4531546746851514 2.569683161840832 0.0 0.0 0.0 0.0
45 1 4.5474012400150325 2.2534270697343355 0.0 0.0 0.0 0.0
46 1 5.1909885792953645 2.452684922056417 0.0 0.0 0.0 0.0
47 1 6.53578897595808 2.896613223927112 0.0 0.0 0.0 0.0
48 1 7.770661670828348 2.6392250041808936 0.0 0.0 0.0 0.0
49 1 8.401656711632999 2.8444148976607004 0.0 0.0 0.0 0.0
50 1 8.440993862856446 3.500455271280783 0.0 0.0 0.0 0.0
51 2 9.420884396580139 2.4556903750353327 0.0 0.0 0.0 0.0
52 2 11.531696556694179 2.2253070651635345 0.0 0.0 0.0 0.0
53 1 12.592387406752731 2.464989913944597 0.0 0.0 0.0 0.0
54 1 13.170420672946914 2.131680338461485 0.0 0.0 0.0 0.0
55 1 14.44530498708884 2.6028831453282364 0.0 0.0 0.0 0.0
56 1 14.955333875558397 2.177698526511935 0.0 0.0 0.0 0.0
57 1 16.303681856820546 2.142509981313667 0.0 0.0 0.0 0.0
58 1 17.66937241523472 2.0854976716358915 0.0 0.0 0.0 0.0
59 1 18.350035511834655 2.3128312960599513 0.0 0.0 0.0 0.0
60 1 18.768818379232698 2.846449079333231 0.0 0.0 0.0 0.0
61 2 19.873500170014818 3.046232954007467 0.0 0.0 0.0 0.0
62 1 1.5963231356716745 3.98063652745957 0.0 0.0 0.0 0.0
63 2 2.4665707316936 3.3100781806438158 0.0 0.0 0.0 0.0
64 1 3.439562966521169 3.7421766783674144 0.0 0.0 0.0 0.0
65 2 4.433040015767492 3.3374441541330215 0.0 0.0 0.0 0.0
66 2 5.636644073119602 3.4758291423667593 0.0 0.0 0.0 0.0
67 1 7.186396435316934 2.916066587416163 0.0 0.0 0.0 0.0
68 1 7.777718185052549 3.2986730426799933 0.0 0.0 0.0 0.0
69 1 7.921875401783117 3.947672436060693 0.0 0.0 0.0 0.0
70 1 8.54827552496225 4.15397545425179 0.0 0.0 0.0 0.0
71 2 10.60763596047194 3.106796687570347 0.0 0.0 0.0 0.0
72 1 11.662527014323691 3.370433062907111 0.0 0.0 0.0 0.0
73 1 12.263263967640505 3.05683934087325 0.0 0.0 0.0 0.0
74 1 13.673406415283525 1.699863698479114 0.0 0.0 0.0 0.0
75 1 13.847563255280695 2.3223685016916336 0.0 0.0 0.0 0.0
76 1 15.289794765169159 2.7559257277435254 0.0 0.0 0.0 0.0
77 1 16.005691656360757 2.754862370992168 0.0 0.0 0.0 0.0
78 1 16.70303677876137 2.6749072262951255 0.0 0.0 0.0 0.0
79 2 17.70728207065226 3.1675572083596593 0.0 0.0 0.0 0.0
80 2 18.896264403126533 3.931857953704748 0.0 0.0 0.0 0.0
81 2 0.5069728664460024 4.208210378183389 0.0 0.0 0.0 0.0
82 1 1.5237983253903855 4.656197929973535 0.0 0.0 0.0 0.0
83 2 2.621339361298521 4.523519969038132 0.0 0.0 0.0 0.0
84 1 3.706739839949269 4.348034286071616 0.0 0.0 0.0 0.0
85 2 4.762946518378122 4.548868303072374 0.0 0.0 0.0 0.0
86 1 5.643344067583328 5.173275766996366 0.0 0.0 0.0 0.0
87 1 5.867669465063275 4.534813272627715 0.0 0.0 0.0 0.0
88 2 6.837246396965618 3.9573838415439835 0.0 0.0 0.0 0.0
89 2 7.923568428256445 5.037625489239923 0.0 0.0 0.0 0.0
90 2 9.534702517213997 3.723115786540242 0.0 0.0 0.0 0.0
91 1 10.686141846408756 4.2161555346495865 0.0 0.0 0.0 0.0
92 1 11.337184728794318 4.000913521377228 0.0 0.0 0.0 0.0
93 2 12.44040817424311 4.145016870356067 0.0 0.0 0.0 0.0
94 2 13.358701706678534 3.2569364935870233 0.0 0.0 0.0 0.0
95 2 14.608290191218693 3.6751622649307523 0.0 0.0 0.0 0.0
96 1 15.64202200566896 3.3238506383634094 0.0 0.0 0.0 0.0
97 2 16.641322789496016 3.7463222911952307 0.0 0.0 0.0 0.0
98 1 16.689604762236197 4.8581338241943985 0.0 0.0 0.0 0.0
99 2 17.70437819546128 4.409415825411709 0.0 0.0 0.0 0.0
100 1 19.40108933419121 4.905236720855476 0.0 0.0 0.0 0.0
101 2 0.7301914197987321 5.4324059536138725 0.0 0.0 0.0 0.0
102 1 1.8110230967547847 5.275628749461896 0.0 0.0 0.0 0.0
103 1 2.401678608203569 5.591889053565315 0.0 0.0 0.0 0.0
104 2 3.5268947471853864 5.456736978377417 0.0 0.0 0.0 0.0
105 2 4.762859647240507 5.839511465075687 0.0 0.0 0.0 0.0
106 1 5.838300098406929 5.815206539711951 0.0 0.0 0.0 0.0
107 2 6.726817051360223 5.200050517555021 0.0 0.0 0.0 0.0
108 1 8.527404051144444 5.973201039304362 0.0 0.0 0.0 0.0
109 2 9.147160094805619 5.046960849607074 0.0 0.0 0.0 0.0
110 1 10.143472499586007 4.6154205147948035 0.0 0.0 0.0 0.0
111 1 10.194980093063343 5.292423300556283 0.0 0.0 0.0 0.0
112 1 10.735433456881568 4.906373309315563 0.0 0.0 0.0 0.0
113 2 11.765923728679404 5.161371069823621 0.0 0.0 0.0 0.0
114 2 13.623552604637828 4.466668578092796 0.0 0.0 0.0 0.0
115 1 14.638455216156597 4.820731488056659 0.0 0.0 0.0 0.0
116 2 15.653782373748358 4.425327653786096 0.0 0.0 0.0 0.0
117 1 16.499647859991928 5.4986938497542495 0.0 0.0 0.0 0.0
118 1 17.16277337877368 5.377052496387347 0.0 0.0 0.0 0.0
119 2 18.287381102509965 5.48475186268393 0.0 0.0 0.0 0.0
120 2 19.408538180468298 5.982846284134764 0.0 0.0 0.0 0.0
121 2 0.4009212356397818 6.931488758794265 0.0 0.0 0.0 0.0
122 2 1.5943834446231557 6.375023605367207 0.0 0.0 0.0 0.0
123 2 2.8495825062753615 6.573131444735135 0.0 0.0 0.0 0.0
124 1 3.9331326169843956 6.529006606761527 0.0 0.0 0.0 0.0
125 2 4.853301158841749 7.16700845812491 0.0 0.0 0.0 0.0
126 1 5.707600852449254 6.473338321622576 0.0 0.0 0.0 0.0
127 1 6.348374754567181 6.243343006602413 0.0 0.0 0.0 0.0
128 2 7.456166161120154 6.188463299084975 0.0 0.0 0.0 0.0
129 1 8.484240866053382 6.65552837300889 0.0 0.0 0.0 0.0
130 2 9.591781114769923 6.222057689293878 0.0 0.0 0.0 0.0
131 1 10.289602522067963 7.054559813878138 0.0 0.0 0.0 0.0
132 2 10.915906557369528 6.09537363216024 0.0 0.0 0.0 0.0
133 2 12.412425849205038 6.280743156699126 0.0 0.0 0.0 0.0
134 1 12.864305713627685 5.2562260444314415 0.0 0.0 0.0 0.0
135 2 13.915734567059415 5.682570599571573 0.0 0.0 0.0 0.0
136 2 15.398390683388845 5.60716729884789 0.0 0.0 0.0 0.0
137 2 16.199474133184935 6.549538540129266 0.0 0.0 0.0 0.0
138 2 17.43532387160112 6.462000566463716 0.0 0.0 0.0 0.0
139 1 18.514280790543175 6.57047770673203 0.0 0.0 0.0 0.0
140 1 19.035641852083682 7.015085180065489 0.0 0.0 0.0 0.0
141 2 0.20107047834347386 8.149694502780568 0.0 0.0 0.0 0.0
142 2 1.4361344011037598 7.6536893072251315 0.0 0.0 0.0 0.0
143 1 2.5357948613342587 7.6066950596242595 0.0 0.0 0.0 0.0
144 2 3.647309318984363 7.596586838145874 0.0 0.0 0.0 0.0
145 1 4.569816576015149 8.24545558298716 0.0 0.0 0.0 0.0
146 1 5.9555740962641925 7.103587627115537 0.0 0.0 0.0 0.0
147 1 6.594744373471997 6.857544510861975 0.0 0.0 0.0 0.0
148 1 6.492334294550342 7.506341786760496 0.0 0.0 0.0 0.0
149 2 7.595194509818606 7.389646949604071 0.0 0.0 0.0 0.0
150 2 9.261793187556824 7.449333957445642 0.0 0.0 0.0 0.0
151 1 10.93215694097581 7.198088285510171 0.0 0.0 0.0 0.0
152 1 11.576836298161252 6.978819320156156 0.0 0.0 0.0 0.0
153 1 12.531021377382139 7.460558891292124 0.0 0.0 0.0 0.0
154 2 13.511802787660077 6.8906857358467315 0.0 0.0 0.0 0.0
155 2 14.759150028449978 6.642151208405993 0.0 0.0 0.0 0.0
156 1 15.544641172600283 7.408882092545589 0.0 0.0 0.0 0.0
157 2 16.638213644419686 7.74542486874823 0.0 0.0 0.0 0.0
158 1 17.74530096185658 7.5220599841498625 0.0 0.0 0.0 0.0
159 1 18.364314717947465 7.213853168418882 0.0 0.0 0.0 0.0
160 1 18.97276986998417 7.678900587357294 0.0 0.0 0.0 0.0
161 1 0.6865515043093062 9.15987911749893 0.0 0.0 0.0 0.0
162 1 1.1725165576922612 8.716371655626524 0.0 0.0 0.0 0.0
163 2 2.2594539167595804 8.657884838724186 0.0 0.0 0.0 0.0
164 1 3.3545557265898083 8.652560743559313 0.0 0.0 0.0 0.0
165 1 4.035955200630495 8.640574695192411 0.0 0.0 0.0 0.0
166 2 5.659910958019526 8.211846924793466 0.0 0.0 0.0 0.0
167 1 6.624111286862611 8.732326131176565 0.0 0.0 0.0 0.0
168 1 6.777808487601248 8.098826353087812 0.0 0.0 0.0 0.0
169 1 7.299572618802699 8.527827824246916 0.0 0.0 0.0 0.0
170 2 8.375079516757603 8.315089915445979 0.0 0.0 0.0 0.0
171 2 10.32985053902601 8.172338868927135 0.0 0.0 0.0 0.0
172 2 11.5704199548057 8.067173731210875 0.0 0.0 0.0 0.0
173 1 13.449123102213454 7.967969763949971 0.0 0.0 0.0 0.0
174 1 13.715676703816547 8.609693206549007 0.0 0.0 0.0 0.0
175 2 14.512112010594715 7.8493787473797845 0.0 0.0 0.0 0.0
176 2 15.546211549954052 8.484931295032865 0.0 0.0 0.0 0.0
177 1 16.522211225041342 8.872360160333223 0.0 0.0 0.0 0.0
178 2 17.565034135852866 8.615822485759065 0.0 0.0 0.0 0.0
179 1 18.337764551747224 7.876614970651932 0.0 0.0 0.0 0.0
180 1 18.805148309250608 8.37183656165798 0.0 0.0 0.0 0.0
181 1 19.793357828439017 9.2372145523033 0.0 0.0 0.0 0.0
182 2 1.5980320227725404 9.77053965887996 0.0 0.0 0.0 0.0
183 1 2.6584899320969537 9.669563483324366 0.0 0.0 0.0 0.0
184 2 3.717375180949381 9.684324202438406 0.0 0.0 0.0 0.0
185 2 4.92873042774473 9.338735380418278 0.0 0.0 0.0 0.0
186 2 6.169691967918035 9.710746778166358 0.0 0.0 0.0 0.0
187 1 7.113191186648802 9.173320621776801 0.0 0.0 0.0 0.0
188 1 7.768555922728617 9.187368631304103 0.0 0.0 0.0 0.0
189 1 8.364685158363148 9.503379749832327 0.0 0.0 0.0 0.0
190 2 9.362907800515138 9.00552738416141 0.0 0.0 0.0 0.0
191 1 11.040592957498808 9.047957673648387 0.0 0.0 0.0 0.0
192 1 11.69973489647257 9.16307888917213 0.0 0.0 0.0 0.0
193 2 12.630363420831763 8.637286594725119 0.0 0.0 0.0 0.0
194 1 13.522333978080251 9.280639443786958 0.0 0.0 0.0 0.0
195 2 14.595008417491254 9.262038610266861 0.0 0.0 0.0 0.0
196 2 15.731044067913887 9.738460188400698 0.0 0.0 0.0 0.0
197 1 16.808294999450904 9.457387340979531 0.0 0.0 0.0 0.0
198 2 17.81913717651767 9.843622460302205 0.0 0.0 0.0 0.0
199 1 18.55869852005669 9.023527110204407 0.0 0.0 0.0 0.0
200 1 19.206237281784862 8.926593472020109 0.0 0.0 0.0 0.0
201 2 0.4744014788371507 10.241497089645685 0.0 0.0 0.0 0.0
202 2 1.4003156696750785 11.077598644510255 0.0 0.0 0.0 0.0
203 2 2.6310176696607277 10.764629623962737 0.0 0.0 0.0 0.0
204 1 3.7393561986360115 10.817119473774538 0.0 0.0 0.0 0.0
205 1 4.350172726688734 10.531356779392997 0.0 0.0 0.0 0.0
206 2 5.4054091564119044 10.671947629809772 0.0 0.0 0.0 0.0
207 1 6.469970631097417 10.773339572824986 0.0 0.0 0.0 0.0
208 2 7.423887336749344 10.21862084433463 0.0 0.0 0.0 0.0
209 1 8.517219504367098 10.1700072010483 0.0 0.0 0.0 0.0
210 1 9.190804156411806 10.085213581034164 0.0 0.0 0.0 0.0
211 2 10.271045874521846 9.816651281504331 0.0 0.0 0.0 0.0
212 2 11.430714556821368 10.193803660050044 0.0 0.0 0.0 0.0
213 2 12.62303015666781 9.889916718644308 0.0 0.0 0.0 0.0
214 1 13.729511799261113 9.954390921873873 0.0 0.0 0.0 0.0
215 2 14.68162755928959 10.561477759472774 0.0 0.0 0.0 0.0
216 2 16.01248458994832 10.995514839535334 0.0 0.0 0.0 0.0
217 1 16.732965511774946 10.117148201630087 0.0 0.0 0.0 0.0
218 1 17.10163459656901 10.652085341214303 0.0 0.0 0.0 0.0
219 1 17.684781084766353 11.009576273960576 0.0 0.0 0.0 0.0
220 2 19.041281098682045 10.02232240975856 0.0 0.0 0.0 0.0
221 1 0.9794609824893445 12.091379895509721 0.0 0.0 0.0 0.0
222 1 1.658531913826621 12.160510683374186 0.0 0.0 0.0 0.0
223 1 2.225972192231403 11.81203661571918 0.0 0.0 0.0 0.0
224 2 3.3089004757502294 11.848919662691515 0.0 0.0 0.0 0.0
225 2 4.547429829370382 11.602418409194318 0.0 0.0 0.0 0.0
226 1 5.621499473086289 11.728406165600717 0.0 0.0 0.0 0.0
227 1 6.286299972689504 11.460645198299158 0.0 0.0 0.0 0.0
228 1 6.948776417767784 11.214629726491557 0.0 0.0 0.0 0.0
229 1 8.925696001263487 10.702105388691727 0.0 0.0 0.0 0.0
230 1 9.58089360003806 10.64507947779178 0.0 0.0 0.0 0.0
231 2 10.571676578093586 11.092613115451291 0.0 0.0 0.0 0.0
232 1 11.696917957783334 11.231627877842799 0.0 0.0 0.0 0.0
233 1 12.296254325044414 10.928785809836686 0.0 0.0 0.0 0.0
234 2 13.411638462445303 11.0381081918635 0.0 0.0 0.0 0.0
235 1 14.364049364615294 11.636474535526979 0.0 0.0 0.0 0.0
236 1 15.052718734597976 11.611571918589542 0.0 0.0 0.0 0.0
237 1 17.072363795794235 11.295369755384028 0.0 0.0 0.0 0.0
238 1 17.604244196754543 11.689195327957869 0.0 0.0 0.0 0.0
239 1 18.314666602630336 10.808293971471391 0.0 0.0 0.0 0.0
240 2 0.10182075634197453 11.41875294557291 0.0 0.0 0.0 0.0
241 1 0.4129758628725441 12.465998165762631 0.0 0.0 0.0 0.0
242 1 2.2636771384594847 12.51022788481722 0.0 0.0 0.0 0.0
243 1 2.870969573287071 12.853332102236482 0.0 0.0 0.0 0.0
244 1 4.123180193080291 12.609693623958128 0.0 0.0 0.0 0.0
245 1 4.79393344423431 12.65457145736412 0.0 0.0 0.0 0.0
246 1 5.453691518524161 12.413790693412993 0.0 0.0 0.0 0.0
247 1 6.110157635074941 12.14867551949351 0.0 0.0 0.0 0.0
248 2 7.18117910740188 12.25657478168001 0.0 0.0 0.0 0.0
249 2 8.049424646993364 11.315016140332917 0.0 0.0 0.0 0.0
250 2 9.366634895259413 11.720353265720258 0.0 0.0 0.0 0.0
251 2 10.486043580857633 12.331790456686564 0.0 0.0 0.0 0.0
252 1 11.41155968549564 11.821310072582554 0.0 0.0 0.0 0.0
253 2 12.465968365481118 12.018768814074237 0.0 0.0 0.0 0.0
254 2 13.58347223377602 12.43974080447616 0.0 0.0 0.0 0.0
255 2 14.743656815818893 12.695108538925966 0.0 0.0 0.0 0.0
256 1 15.592598596368157 12.025191510014256 0.0 0.0 0.0 0.0
257 2 16.64676690349663 12.262937193782355 0.0 0.0 0.0 0.0
258 1 17.73243156155124 12.34832087366391 0.0 0.0 0.0 0.0
259 2 18.683508004228933 11.805567402292485 0.0 0.0 0.0 0.0
260 1 19.51792592541972 12.499323608982658 0.0 0.0 0.0 0.0
261 1 19.852866139824975 13.092279977591723 0.0 0.0 0.0 0.0
262 2 1.2270827233700252 13.165007282720984 0.0 0.0 0.0 0.0
263 1 2.3139713271673186 13.213252247431216 0.0 0.0 0.0 0.0
264 1 3.541138477974669 12.928338274094289 0.0 0.0 0.0 0.0
265 2 4.359796026755436 13.689433167440843 0.0 0.0 0.0 0.0
266 1 5.27397524936097 13.099545171401674 0.0 0.0 0.0 0.0
267 2 6.329318657279366 13.206582424569195 0.0 0.0 0.0 0.0
268 2 7.523853539325943 13.450427382093645 0.0 0.0 0.0 0.0
269 2 8.413432431843143 12.54854644591262 0.0 0.0 0.0 0.0
270 2 9.56730689049893 13.066633602955344 0.0 0.0 0.0 0.0
271 1 10.597295904256866 13.460470359221455 0.0 0.0 0.0 0.0
272 2 11.565167369316361 12.929565104458547 0.0 0.0 0.0 0.0
273 2 12.70324213769896 13.373474532369393 0.0 0.0 0.0 0.0
274 2 13.795825428181335 13.949564804563845 0.0 0.0 0.0 0.0
275 1 14.873467111935508 13.773488200137116 0.0 0.0 0.0 0.0
276 2 15.853047403136317 13.183381168111453 0.0 0.0 0.0 0.0
277 1 16.94831161340372 13.32642762757596 0.0 0.0 0.0 0.0
278 1 17.499765701420234 12.977438531765529 0.0 0.0 0.0 0.0
279 2 18.572942340378646 13.04388576790862 0.0 0.0 0.0 0.0
280 1 19.44132525055301 13.637848447592908 0.0 0.0 0.0 0.0
281 1 0.31479453508936495 13.759851958468921 0.0 0.0 0.0 0.0
282 2 1.1283384668420435 14.454878801102357 0.0 0.0 0.0 0.0
283 1 2.0644010083511906 13.84357158615755 0.0 0.0 0.0 0.0
284 2 3.1560187144674994 13.946347981312993 0.0 0.0 0.0 0.0
285 1 4.60743977399781 14.764980155082265 0.0 0.0 0.0 0.0
286 2 5.5292828973363815 14.193442823614532 0.0 0.0 0.0 0.0
287 2 6.74812979956618 14.433517577771656 0.0 0.0 0.0 0.0
288 1 7.821869981712226 14.505634975335507 0.0 0.0 0.0 0.0
289 2 8.67251444192232 13.824534834363428 0.0 0.0 0.0 0.0
290 1 9.634720141900312 14.421704657061959 0.0 0.0 0.0 0.0
291 1 10.166137501402435 13.98659371845669 0.0 0.0 0.0 0.0
292 1 11.095114924370423 13.92402477308093 0.0 0.0 0.0 0.0
293 1 11.773862207249428 14.043421078485206 0.0 0.0 0.0 0.0
294 1 12.966119980031147 14.741825975118092 0.0 0.0 0.0 0.0
295 1 14.807557382156222 14.462235672108855 0.0 0.0 0.0 0.0
296 1 15.404580912536158 14.163375092926993 0.0 0.0 0.0 0.0
297 2 16.4795703118519 14.286518887436316 0.0 0.0 0.0 0.0
298 2 17.800926043554075 14.074081015873322 0.0 0.0 0.0 0.0
299 1 18.940387502255476 14.087173095698871 0.0 0.0 0.0 0.0
300 1 19.60907570860383 14.283284101068409 0.0 0.0 0.0 0.0
301 1 0.5147692992649212 16.356253586962346 0.0 0.0 0.0 0.0
302 2 1.399000579826831 15.679320609702284 0.0 0.0 0.0 0.0
303 2 2.349690949970836 14.885085867822028 0.0 0.0 0.0 0.0
304 2 3.608468241695395 15.180611512702203 0.0 0.0 0.0 0.0
305 2 4.9602284196544995 15.804177627036674 0.0 0.0 0.0 0.0
306 2 6.182612568123275 15.529105649912763 0.0 0.0 0.0 0.0
307 2 7.507202469255559 15.55577333515371 0.0 0.0 0.0 0.0
308 1 8.373324283099358 14.869482230045893 0.0 0.0 0.0 0.0
309 1 9.048969667898293 14.8168235935074 0.0 0.0 0.0 0.0
310 1 9.628914406829166 15.114680512784087 0.0 0.0 0.0 0.0
311 2 10.704487607252965 14.946376590232216 0.0 0.0 0.0 0.0
312 1 11.769353201652558 14.73319904963784 0.0 0.0 0.0 0.0
313 1 12.347106687807534 15.067489603687045 0.0 0.0 0.0 0.0
314 1 12.367919226126583 14.401580008135454 0.0 0.0 0.0 0.0
315 2 13.996074039446647 15.187536403853485 0.0 0.0 0.0 0.0
316 1 15.399120706281682 14.821216876056855 0.0 0.0 0.0 0.0
317 1 15.948058600883686 15.211560037123963 0.0 0.0 0.0 0.0
318 2 17.199282851323275 15.289150526013957 0.0 0.0 0.0 0.0
319 2 18.633146912931817 15.126344176612921 0.0 0.0 0.0 0.0
320 2 0.15708833239068926 15.319119635311422 0.0 0.0 0.0 0.0
321 1 1.1046628839582298 16.72325145838413 0.0 0.0 0.0 0.0
322 1 1.8099639089903878 16.696137133038793 0.0 0.0 0.0 0.0
323 2 2.7075353794454395 16.063725936798186 0.0 0.0 0.0 0.0
324 2 3.912491570260112 16.46105495166731 0.0 0.0 0.0 0.0
325 2 4.923545923487231 17.225941595283366 0.0 0.0 0.0 0.0
326 1 5.776107934628894 16.55862859517661 0.0 0.0 0.0 0.0
327 2 6.8607447025349115 16.620447022189783 0.0 0.0 0.0 0.0
328 1 7.95421465054482 16.591089703685277 0.0 0.0 0.0 0.0
329 2 8.773446539344059 15.869349727025307 0.0 0.0 0.0 0.0
330 1 9.89835334282511 15.718477069420802 0.0 0.0 0.0 0.0
331 1 10.48949208941247 16.037212911084886 0.0 0.0 0.0 0.0
332 2 11.619539925288018 15.926353327288036 0.0 0.0 0.0 0.0
333 1 12.364192144633522 16.803868625264805 0.0 0.0 0.0 0.0
334 2 13.00133979957252 15.916687876676459 0.0 0.0 0.0 0.0
335 1 14.055001580252336 16.312357587026437 0.0 0.0 0.0 0.0
336 2 15.048177935182787 15.853850042128661 0.0 0.0 0.0 0.0
337 1 16.173258681806324 15.82147007314016 0.0 0.0 0.0 0.0
338 1 18.02288151221533 16.044078724163544 0.0 0.0 0.0 0.0
339 1 18.05305009515016 16.71423470965473 0.0 0.0 0.0 0.0
340 2 19.128259105634406 16.34416535816467 0.0 0.0 0.0 0.0
341 2 1.5261702927591572 17.737958260351505 0.0 0.0 0.0 0.0
342 1 2.3934870397961463 17.092335042934625 0.0 0.0 0.0 0.0
343 1 3.072272498552245 17.136278403149905 0.0 0.0 0.0 0.0
344 2 3.9138774568988266 17.943787761775475 0.0 0.0 0.0 0.0
345 2 5.0951878491513725 18.54208944947678 0.0 0.0 0.0 0.0
346 2 6.126356270207448 17.64167037802608 0.0 0.0 0.0 0.0
347 1 6.85230920482197 18.488423725178734 0.0 0.0 0.0 0.0
348 2 7.588015723796065 17.639422717987927 0.0 0.0 0.0 0.0
349 1 8.503355237784369 16.987588470588147 0.0 0.0 0.0 0.0
350 2 9.58655132703247 16.757523764701407 0.0 0.0 0.0 0.0
351 1 10.710234894003374 16.663533580889666 0.0 0.0 0.0 0.0
352 2 11.486273375571308 17.425975378691163 0.0 0.0 0.0 0.0
353 1 12.558403811761574 17.501227999596868 0.0 0.0 0.0 0.0
354 1 13.002994384969487 17.012859886803327 0.0 0.0 0.0 0.0
355 1 13.640974853942865 16.838835027080155 0.0 0.0 0.0 0.0
356 2 14.625310150149724 17.30226009569921 0.0 0.0 0.0 0.0
357 2 15.7797050933327 16.85080377254682 0.0 0.0 0.0 0.0
358 2 16.988166074745116 16.513758337702676 0.0 0.0 0.0 0.0
359 2 18.726688614275954 17.550285950434596 0.0 0.0 0.0 0.0
360 2 0.2393190097385242 17.41090433876838 0.0 0.0 0.0 0.0
361 1 0.694811412027195 18.413292696498996 0.0 0.0 0.0 0.0
362 1 1.2491709355611487 18.773056599941796 0.0 0.0 0.0 0.0
363 2 2.706414541475184 18.154318370673863 0.0 0.0 0.0 0.0
364 1 3.4282675857863207 18.959382048899688 0.0 0.0 0.0 0.0
365 1 4.102401301366845 19.04974840005603 0.0 0.0 0.0 0.0
366 2 5.657546516955541 19.68669398434744 0.0 0.0 0.0 0.0
367 1 6.215684786620259 18.737854400889088 0.0 0.0 0.0 0.0
368 2 6.918787245122888 19.609377535018886 0.0 0.0 0.0 0.0
369 2 7.912591229261367 18.83537747271868 0.0 0.0 0.0 0.0
370 2 8.972741935613403 18.01309961134179 0.0 0.0 0.0 0.0
371 2 10.294924295736113 17.71277558244389 0.0 0.0 0.0 0.0
372 1 11.104406896289634 18.451041641505814 0.0 0.0 0.0 0.0
373 2 12.225312910248478 18.564499703572963 0.0 0.0 0.0 0.0
374 2 13.550144108983856 17.974325712274947 0.0 0.0 0.0 0.0
375 2 14.70036912604262 18.644724055690943 0.0 0.0 0.0 0.0
376 1 15.543697183439589 17.935106362935 0.0 0.0 0.0 0.0
377 2 16.632474312761367 17.74559489714422 0.0 0.0 0.0 0.0
378 1 17.67495164863435 17.333559450734462 0.0 0.0 0.0 0.0
379 1 17.686975070300935 18.006998501285526 0.0 0.0 0.0 0.0
380 2 19.399620858076588 18.53231855962442 0.0 0.0 0.0 0.0
381 1 1.5322451648206155 19.38448798368388 0.0 0.0 0.0 0.0
382 1 1.8972610836642307 18.830306003102397 0.0 0.0 0.0 0.0
383 2 2.5630216622236937 19.700982250323378 0.0 0.0 0.0 0.0
384 1 3.6668553096170475 19.58106426396338 0.0 0.0 0.0 0.0
385 1 4.560110271206087 19.55524730777939 0.0 0.0 0.0 0.0
386 1 5.560342501743914 1.0080117754252924 0.0 0.0 0.0 0.0
387 1 6.1914589328427265 0.788602256133859 0.0 0.0 0.0 0.0
388 1 6.847785478517426 0.957093940305764 0.0 0.0 0.0 0.0
389 1 7.767243593965266 0.18386021709641992 0.0 0.0 0.0 0.0
390 2 8.9672723093372 19.483253432872775 0.0 0.0 0.0 0.0
391 2 10.053247211038183 18.89887833332683 0.0 0.0 0.0 0.0
392 2 11.133428678846172 19.5277316050262 0.0 0.0 0.0 0.0
393 2 12.09939311706846 0.13871572835847376 0.0 0.0 0.0 0.0
394 2 13.393796263458777 19.236115355789025 0.0 0.0 0.0 0.0
395 2 14.312680183692764 0.1445172171472434 0.0 0.0 0.0 0.0
396 1 15.844233186110879 18.546956452455888 0.0 0.0 0.0 0.0
397 2 16.91239409050009 18.96336742353621 0.0 0.0 0.0 0.0
398 2 18.19875965314652 18.952123111992428 0.0 0.0 0.0 0.0
399 1 19.13514208002958 19.552991037714527 0.0 0.0 0.0 0.0
400 2 0.46439532810167383 19.48850618648002 0.0 0.0 0.0 0.0
