ITEM: TIMESTEP
1
ITEM: NUMBER OF ATOMS
400
ITEM: BOX BOUNDS xy xz yz pp pp pp
0.0 19.7609 -0.0239823071317601
0.0 19.7609 0.0
0.0 10.0 0.0
ITEM: ATOMS id type x y z vx vy vz
1 2 0.8073514536153925 0.33940052776948226 0.0 0.0 0.0 0.0
2 1 1.9101075301477435 0.6877679023620734 0.0 0.0 0.0 0.0
3 1 2.536862062621459 0.4947431631198862 0.0 0.0 0.0 0.0
4 1 4.20322571636927 19.464224604729917 0.0 0.0 0.0 0.0
5 1 4.496300173528146 0.310683738532042 0.0 0.0 0.0 0.0
6 2 5.537418759476661 0.6289395066726163 0.0 0.0 0.0 0.0
7 1 6.505295343805614 1.0688116072846596 0.0 0.0 0.0 0.0
8 1 7.128955834517794 0.832206347505882 0.0 0.0 0.0 0.0
9 1 8.829748268432638 0.4014274140563981 0.0 0.0 0.0 0.0
10 1 9.484020653579826 0.2058271323406112 0.0 0.0 0.0 0.0
11 2 10.48713219264645 0.8790733292686082 0.0 0.0 0.0 0.0
12 2 11.636935056405411 0.3486701700254507 0.0 0.0 0.0 0.0
13 1 12.692991870239627 0.5963593941644003 0.0 0.0 0.0 0.0
14 1 13.308469344713451 0.3653955766089523 0.0 0.0 0.0 0.0
15 1 14.446325730025817 0.7780258188822197 0.0 0.0 0.0 0.0
16 1 15.127027666303885 19.72121913421512 0.0 0.0 0.0 0.0
17 1 16.63516683142992 0.5572593388922504 0.0 0.0 0.0 0.0
18 1 17.270094561427463 0.7409248694302123 0.0 0.0 0.0 0.0
19 2 18.424342767083015 0.5960085840434134 0.0 0.0 0.0 0.0
20 1 19.568028453358135 0.8270890849727802 0.0 0.0 0.0 0.0
21 2 0.438070738174512 2.4507341438769203 0.0 0.0 0.0 0.0
22 2 1.3337162089543084 1.5654732519909749 0.0 0.0 0.0 0.0
23 1 2.424114951150543 1.1763690316063775 0.0 0.0 0.0 0.0
24 2 3.542235583005806 0.8206796678616972 0.0 0.0 0.0 0.0
25 2 4.615930939215002 1.4060308705855258 0.0 0.0 0.0 0.0
26 1 5.670722352319344 1.7704402399798356 0.0 0.0 0.0 0.0
27 1 6.371253352256373 1.7280134686545616 0.0 0.0 0.0 0.0
28 1 7.017869117953803 1.4786016972327836 0.0 0.0 0.0 0.0
29 2 8.111459406167599 1.233473848553476 0.0 0.0 0.0 0.0
30 2 9.372419895061116 1.3318193214091187 0.0 0.0 0.0 0.0
31 2 10.09741667073283 2.3856526078825575 0.0 0.0 0.0 0.0
32 2 11.437569622129677 1.6835209234986133 0.0 0.0 0.0 0.0
33 1 12.408041627221435 1.203961827270171 0.0 0.0 0.0 0.0
34 2 13.491731908551571 1.4082825272608048 0.0 0.0 0.0 0.0
35 1 14.60152235447323 1.4673119472157736 0.0 0.0 0.0 0.0
36 2 15.573009740043398 0.9440009057672564 0.0 0.0 0.0 0.0
37 2 16.589548580330447 1.644636648100654 0.0 0.0 0.0 0.0
38 2 17.819743565793885 1.6443546630725228 0.0 0.0 0.0 0.0
39 2 19.039382868740887 1.7681591664450302 0.0 0.0 0.0 0.0
40 1 0.27341317037056884 1.3239909528615725 0.0 0.0 0.0 0.0
41 1 0.9164458214226122 3.466410550934517 0.0 0.0 0.0 0.0
42 2 1.713027145973148 2.71793308305117 0.0 0.0 0.0 0.0
43 1 2.4243484099679278 1.8719427051646922 0.0 0.0 0.0 0.0
44 1 3.0951507608275546 1.809372318649395 0.0 0.0 0.0 0.0
45 1 3.7409821509186707 2.052047200838858 0.0 0.0 0.0 0.0
46 2 4.825356669268102 2.6016028427132176 0.0 0.0 0.0 0.0
47 2 6.120541228376001 2.7968772086978193 0.0 0.0 0.0 0.0
48 2 7.325380801406788 2.4851840307354345 0.0 0.0 0.0 0.0
49 1 8.09394396519001 3.2250602922959986 0.0 0.0 0.0 0.0
50 2 8.657794058691577 2.318837117233595 0.0 0.0 0.0 0.0
51 1 11.15404442373683 2.7207055380574485 0.0 0.0 0.0 0.0
52 1 11.636776768803864 3.1772870893160547 0.0 0.0 0.0 0.0
53 2 12.574439405792642 2.336479439323937 0.0 0.0 0.0 0.0
54 1 13.755810932942694 2.444073865012174 0.0 0.0 0.0 0.0
55 1 14.34565447187144 2.104073792357129 0.0 0.0 0.0 0.0
56 2 15.43519973471445 2.2375267717001397 0.0 0.0 0.0 0.0
57 2 16.570200312818734 2.867950157660045 0.0 0.0 0.0 0.0
58 2 17.822343427790752 2.819130204330045 0.0 0.0 0.0 0.0
59 2 19.066645933729756 2.987592982216949 0.0 0.0 0.0 0.0
60 1 0.2297887484625319 3.548859018199246 0.0 0.0 0.0 0.0
61 1 1.5085734680934948 3.8438339490020224 0.0 0.0 0.0 0.0
62 1 2.207477654229277 3.6543242974941212 0.0 0.0 0.0 0.0
63 2 3.0270404720777644 2.903781606722651 0.0 0.0 0.0 0.0
64 1 4.047598276659067 3.4399104021900095 0.0 0.0 0.0 0.0
65 1 4.235655298209006 4.106725122962631 0.0 0.0 0.0 0.0
66 1 5.385943411235369 3.5903878031854446 0.0 0.0 0.0 0.0
67 1 5.999406965383466 3.9076627707295493 0.0 0.0 0.0 0.0
68 2 7.102227129860637 3.7705194487990474 0.0 0.0 0.0 0.0
69 1 8.198889259895752 3.8576504370444935 0.0 0.0 0.0 0.0
70 2 9.219026901729126 3.3963809851914886 0.0 0.0 0.0 0.0
71 2 10.558200667336259 3.632796410883734 0.0 0.0 0.0 0.0
72 1 12.267732577132492 3.404190030458804 0.0 0.0 0.0 0.0
73 1 12.932722977311203 3.373960698221343 0.0 0.0 0.0 0.0
74 1 13.487945031700127 3.041215298942759 0.0 0.0 0.0 0.0
75 2 14.562263081003993 3.1979658820499197 0.0 0.0 0.0 0.0
76 1 15.620786338820608 3.352477211649132 0.0 0.0 0.0 0.0
77 1 16.643024538205342 4.023814993308592 0.0 0.0 0.0 0.0
78 1 17.225118969036732 3.708307522415064 0.0 0.0 0.0 0.0
79 2 18.28202964085142 3.9296027661709156 0.0 0.0 0.0 0.0
80 1 19.466796467504423 4.010927524583254 0.0 0.0 0.0 0.0
81 1 0.6332649351046139 4.071059823021066 0.0 0.0 0.0 0.0
82 1 2.040686565019886 4.281528754433095 0.0 0.0 0.0 0.0
83 2 3.1633450777394576 4.1717279908586375 0.0 0.0 0.0 0.0
84 1 3.619073913826913 5.196346517142472 0.0 0.0 0.0 0.0
85 1 4.110725826792702 4.7622718955161885 0.0 0.0 0.0 0.0
86 1 4.718843931946979 3.667819588840707 0.0 0.0 0.0 0.0
87 1 6.303826009762706 4.531720371531323 0.0 0.0 0.0 0.0
88 1 7.973846744373304 4.479865094942407 0.0 0.0 0.0 0.0
89 1 8.613242028552788 4.355075549094068 0.0 0.0 0.0 0.0
90 2 9.64034210826003 4.5328823754199075 0.0 0.0 0.0 0.0
91 1 10.6711797131243 4.740477482200958 0.0 0.0 0.0 0.0
92 2 11.653548234160766 4.310614776753164 0.0 0.0 0.0 0.0
93 1 12.665478993675087 3.9683814381083162 0.0 0.0 0.0 0.0
94 2 13.744199584162015 4.146804404260472 0.0 0.0 0.0 0.0
95 2 14.587878193195989 5.093247275400306 0.0 0.0 0.0 0.0
96 2 15.628701828990017 4.438206251885121 0.0 0.0 0.0 0.0
97 1 16.70444232655576 4.714404895244789 0.0 0.0 0.0 0.0
98 1 17.26289859100871 4.356551694766694 0.0 0.0 0.0 0.0
99 2 18.855489478364444 4.942185468557467 0.0 0.0 0.0 0.0
100 1 0.14303011414620637 4.536113165267374 0.0 0.0 0.0 0.0
101 1 0.44395433355483144 5.78911268800792 0.0 0.0 0.0 0.0
102 2 1.2138467633520642 4.9766702651832295 0.0 0.0 0.0 0.0
103 2 2.5260031322219425 5.246833767907624 0.0 0.0 0.0 0.0
104 1 3.4808670808848436 5.8435217815992395 0.0 0.0 0.0 0.0
105 2 4.584670185376351 5.778901533914887 0.0 0.0 0.0 0.0
106 2 5.1925203742042285 4.671128026516258 0.0 0.0 0.0 0.0
107 1 6.136583428198184 5.191423519650907 0.0 0.0 0.0 0.0
108 2 7.219801834812513 5.2143678546786205 0.0 0.0 0.0 0.0
109 2 8.603989040198703 5.449650872098115 0.0 0.0 0.0 0.0
110 2 10.021468294314277 5.6709025601704335 0.0 0.0 0.0 0.0
111 1 11.067833368543775 5.2564999277472015 0.0 0.0 0.0 0.0
112 2 12.130584810367289 5.513383825809105 0.0 0.0 0.0 0.0
113 1 12.747643955644161 4.62508616846331 0.0 0.0 0.0 0.0
114 2 13.421024334329074 5.497796422071997 0.0 0.0 0.0 0.0
115 1 14.331982937520758 6.165268553925637 0.0 0.0 0.0 0.0
116 2 15.47841456196541 5.981246125339656 0.0 0.0 0.0 0.0
117 1 16.342795524887322 5.272191210183436 0.0 0.0 0.0 0.0
118 2 17.623899508450705 5.368756766511873 0.0 0.0 0.0 0.0
119 2 19.13165635651876 6.085880931725582 0.0 0.0 0.0 0.0
120 1 0.1328908049999114 5.2121985170505605 0.0 0.0 0.0 0.0
121 1 1.0471034859220623 6.065834833428212 0.0 0.0 0.0 0.0
122 1 1.711710912488406 5.973132081330904 0.0 0.0 0.0 0.0
123 1 2.302675783268514 6.311169870086382 0.0 0.0 0.0 0.0
124 1 2.972678576457794 6.267618383726569 0.0 0.0 0.0 0.0
125 1 5.584886637237958 6.360470971279118 0.0 0.0 0.0 0.0
126 1 5.665995513938227 5.681495355352435 0.0 0.0 0.0 0.0
127 1 6.310624717777793 5.841363463058619 0.0 0.0 0.0 0.0
128 1 6.863377487069986 6.224834843745831 0.0 0.0 0.0 0.0
129 2 9.202252538050262 6.663732838772136 0.0 0.0 0.0 0.0
130 2 10.501391836611257 6.784067021785804 0.0 0.0 0.0 0.0
131 1 11.115733884363008 5.909473006725489 0.0 0.0 0.0 0.0
132 2 11.764279951484472 6.795275090758422 0.0 0.0 0.0 0.0
133 1 12.763445632777108 6.385818974975615 0.0 0.0 0.0 0.0
134 1 13.388770830434392 6.583951701217976 0.0 0.0 0.0 0.0
135 1 14.684794605170431 6.745071730717019 0.0 0.0 0.0 0.0
136 1 15.251381509346446 7.086763516001273 0.0 0.0 0.0 0.0
137 2 16.743943675009593 6.269454501849825 0.0 0.0 0.0 0.0
138 2 18.00313084565088 6.588389917112573 0.0 0.0 0.0 0.0
139 1 18.965395915909674 7.176418555331196 0.0 0.0 0.0 0.0
140 2 0.2704650321216952 6.86041545358134 0.0 0.0 0.0 0.0
141 1 0.6956007208848622 7.80996586465987 0.0 0.0 0.0 0.0
142 2 1.5094842852943964 7.051305510677529 0.0 0.0 0.0 0.0
143 2 2.7327937182446864 7.329182339884561 0.0 0.0 0.0 0.0
144 2 3.930014340381337 6.851009843596146 0.0 0.0 0.0 0.0
145 1 5.0668559183383595 6.789812789160268 0.0 0.0 0.0 0.0
146 1 6.24640333944355 6.5038275420307485 0.0 0.0 0.0 0.0
147 1 6.815882958804386 6.877131098092801 0.0 0.0 0.0 0.0
148 2 7.910576844662117 6.5536674099840475 0.0 0.0 0.0 0.0
149 1 8.513621826142899 7.518814522310176 0.0 0.0 0.0 0.0
150 1 9.78502009679676 7.602426018456894 0.0 0.0 0.0 0.0
151 1 10.475838813841268 7.836958205511676 0.0 0.0 0.0 0.0
152 1 11.144359095962555 7.709635968743818 0.0 0.0 0.0 0.0
153 1 12.865245356070401 7.051685606420943 0.0 0.0 0.0 0.0
154 1 13.513453580770696 7.233117857101617 0.0 0.0 0.0 0.0
155 1 14.02323428308358 6.778351205818566 0.0 0.0 0.0 0.0
156 1 15.91309234288093 7.0021156921747725 0.0 0.0 0.0 0.0
157 1 16.491389123484478 7.334863452889176 0.0 0.0 0.0 0.0
158 1 17.16594119201786 7.276289816368657 0.0 0.0 0.0 0.0
159 2 18.11134909287359 7.869948849168394 0.0 0.0 0.0 0.0
160 2 19.403989040373457 8.203003587938225 0.0 0.0 0.0 0.0
161 1 0.72920295362782 8.44907325883567 0.0 0.0 0.0 0.0
162 1 1.2917739540386624 8.094002207952926 0.0 0.0 0.0 0.0
163 1 1.9567485116684296 8.078792707852037 0.0 0.0 0.0 0.0
164 1 3.6305168118413227 7.9215875237165685 0.0 0.0 0.0 0.0
165 2 4.73333975256403 7.826889341788296 0.0 0.0 0.0 0.0
166 2 5.951729515669813 7.550230449809297 0.0 0.0 0.0 0.0
167 1 6.6095278466049825 8.473958179367335 0.0 0.0 0.0 0.0
168 2 7.447046749017033 7.741633234092574 0.0 0.0 0.0 0.0
169 1 9.12449251213179 7.815839587523509 0.0 0.0 0.0 0.0
170 2 9.835111561898648 8.681060551124638 0.0 0.0 0.0 0.0
171 1 10.911580243903718 8.346424293289019 0.0 0.0 0.0 0.0
172 1 11.462049478600017 8.723218622662934 0.0 0.0 0.0 0.0
173 2 12.233194853569563 7.95844563495666 0.0 0.0 0.0 0.0
174 1 13.235675090065074 8.52608368495294 0.0 0.0 0.0 0.0
175 1 13.318351343096223 7.865066167103924 0.0 0.0 0.0 0.0
176 2 14.420536569736063 7.843276593600681 0.0 0.0 0.0 0.0
177 2 15.67665493042118 8.095731292352735 0.0 0.0 0.0 0.0
178 2 16.92879822992873 8.326743323169515 0.0 0.0 0.0 0.0
179 1 18.49098491593661 8.896551870707645 0.0 0.0 0.0 0.0
180 1 19.050322853502077 9.253477174692314 0.0 0.0 0.0 0.0
181 2 0.38203576384043886 9.434832160703328 0.0 0.0 0.0 0.0
182 2 1.5974381024340134 9.11296197271346 0.0 0.0 0.0 0.0
183 1 2.413231246072246 9.78436514651372 0.0 0.0 0.0 0.0
184 2 2.840744340490697 8.740891460144894 0.0 0.0 0.0 0.0
185 2 4.099029175316723 8.89032678543055 0.0 0.0 0.0 0.0
186 2 5.538186444073939 8.81520561363766 0.0 0.0 0.0 0.0
187 1 6.611760066855667 9.156230665183845 0.0 0.0 0.0 0.0
188 2 7.668926760034687 8.930038946379694 0.0 0.0 0.0 0.0
189 1 8.540535117103389 8.204303584163302 0.0 0.0 0.0 0.0
190 2 8.813755025306055 9.299098946284264 0.0 0.0 0.0 0.0
191 1 10.882951307000095 9.02898136068632 0.0 0.0 0.0 0.0
192 1 11.440585905542262 9.425928786604691 0.0 0.0 0.0 0.0
193 1 12.035008359477036 9.043776822138842 0.0 0.0 0.0 0.0
194 1 12.708070933619194 8.965547977918307 0.0 0.0 0.0 0.0
195 2 13.64500981616512 9.545319216642156 0.0 0.0 0.0 0.0
196 2 14.85761650358107 9.107062400292532 0.0 0.0 0.0 0.0
197 2 16.157601726673892 9.27511009549863 0.0 0.0 0.0 0.0
198 1 17.26136633003663 9.369856786498842 0.0 0.0 0.0 0.0
199 1 17.81484151626829 8.94936576025714 0.0 0.0 0.0 0.0
200 2 18.17028702765162 9.97676112980471 0.0 0.0 0.0 0.0
201 2 19.338031280324813 10.302587471152304 0.0 0.0 0.0 0.0
202 2 1.2978150005788032 10.301478265379354 0.0 0.0 0.0 0.0
203 1 2.4180410463418207 10.439868219225623 0.0 0.0 0.0 0.0
204 2 3.4721000598419267 9.988474215967265 0.0 0.0 0.0 0.0
205 2 4.761069757887422 9.89678836215245 0.0 0.0 0.0 0.0
206 2 5.963585717890501 10.01910875198871 0.0 0.0 0.0 0.0
207 1 7.022842310216376 9.802745603303544 0.0 0.0 0.0 0.0
208 2 8.025383943649183 10.29129165222929 0.0 0.0 0.0 0.0
209 1 8.970797037552506 10.891520729970846 0.0 0.0 0.0 0.0
210 1 9.219395733180388 10.29406133190431 0.0 0.0 0.0 0.0
211 2 10.202392360296216 9.853369512045976 0.0 0.0 0.0 0.0
212 2 11.229232339675901 10.532302779554856 0.0 0.0 0.0 0.0
213 2 12.39920919902914 10.04864107476293 0.0 0.0 0.0 0.0
214 1 13.335828723003523 10.613973229599235 0.0 0.0 0.0 0.0
215 1 14.020626084798513 10.571045701047986 0.0 0.0 0.0 0.0
216 1 14.584305741381565 10.184132157017588 0.0 0.0 0.0 0.0
217 2 15.691953233772313 10.390490443222786 0.0 0.0 0.0 0.0
218 2 16.95646481382533 10.443521677466219 0.0 0.0 0.0 0.0
219 1 17.88698538416496 11.023483357357936 0.0 0.0 0.0 0.0
220 1 18.567547893637045 11.038100028174707 0.0 0.0 0.0 0.0
221 1 0.07747385291223965 11.232558629953036 0.0 0.0 0.0 0.0
222 2 1.1106892386952487 11.525620170978824 0.0 0.0 0.0 0.0
223 1 2.1020565642885174 11.027105602111162 0.0 0.0 0.0 0.0
224 2 3.1854477249239515 11.221779578655129 0.0 0.0 0.0 0.0
225 1 4.200836375444849 10.814406540214884 0.0 0.0 0.0 0.0
226 2 5.286931722349005 11.057465908905803 0.0 0.0 0.0 0.0
227 2 6.810066023650039 10.915289550327032 0.0 0.0 0.0 0.0
228 1 7.363786853472423 11.870846575590685 0.0 0.0 0.0 0.0
229 1 8.456575091055688 11.30539883672019 0.0 0.0 0.0 0.0
230 1 9.076409519600233 11.543633252016852 0.0 0.0 0.0 0.0
231 2 10.06951160097533 11.094719268682857 0.0 0.0 0.0 0.0
232 1 10.91643571322882 11.795376911598282 0.0 0.0 0.0 0.0
233 1 12.134029088640727 11.149036541337283 0.0 0.0 0.0 0.0
234 1 12.798796983083296 11.064290848402855 0.0 0.0 0.0 0.0
235 2 13.714919999063442 11.633428560033542 0.0 0.0 0.0 0.0
236 2 14.874122905860766 11.264595835512267 0.0 0.0 0.0 0.0
237 2 15.90631711815767 12.006912872938845 0.0 0.0 0.0 0.0
238 2 17.14988171691527 11.837156554649926 0.0 0.0 0.0 0.0
239 1 18.229157572542114 11.595277384835654 0.0 0.0 0.0 0.0
240 1 19.170336979575822 11.398285881825945 0.0 0.0 0.0 0.0
241 2 0.10530762086255736 12.306877423848992 0.0 0.0 0.0 0.0
242 2 1.6669387713032278 12.618576132561602 0.0 0.0 0.0 0.0
243 1 2.1957204979192673 11.677769928159039 0.0 0.0 0.0 0.0
244 1 3.9140753912684656 12.024856626560922 0.0 0.0 0.0 0.0
245 1 4.270988777352359 11.47048760461052 0.0 0.0 0.0 0.0
246 2 4.998985328734627 12.293915508565322 0.0 0.0 0.0 0.0
247 1 6.05403328066668 11.821323084837807 0.0 0.0 0.0 0.0
248 1 6.694896047377037 12.007489849156293 0.0 0.0 0.0 0.0
249 1 7.807644547450012 11.387840052130308 0.0 0.0 0.0 0.0
250 2 9.786182138177113 12.349451043456263 0.0 0.0 0.0 0.0
251 1 10.846268072758141 12.494394584685553 0.0 0.0 0.0 0.0
252 1 11.449544110198145 12.21120651987905 0.0 0.0 0.0 0.0
253 1 11.58780970240693 11.56218977938711 0.0 0.0 0.0 0.0
254 2 12.54349375031758 12.179390611094336 0.0 0.0 0.0 0.0
255 1 13.893134690909188 13.227206929083776 0.0 0.0 0.0 0.0
256 2 14.694025728760453 12.479242040291474 0.0 0.0 0.0 0.0
257 2 16.74319553726387 13.101993273599081 0.0 0.0 0.0 0.0
258 1 17.77718061209154 12.76273158901542 0.0 0.0 0.0 0.0
259 1 18.180138047636692 12.244328952201782 0.0 0.0 0.0 0.0
260 1 18.800907688301713 11.959733199770378 0.0 0.0 0.0 0.0
261 1 0.1307088979497012 13.393852514172377 0.0 0.0 0.0 0.0
262 1 0.768919120530021 13.199583655051912 0.0 0.0 0.0 0.0
263 2 1.7202822637299733 13.837793456274623 0.0 0.0 0.0 0.0
264 2 2.9044146127321997 12.501835724486307 0.0 0.0 0.0 0.0
265 2 3.9697425188754782 13.090264024786665 0.0 0.0 0.0 0.0
266 2 5.053775982401965 13.619347642956965 0.0 0.0 0.0 0.0
267 2 6.0634088185002755 12.931395963089717 0.0 0.0 0.0 0.0
268 2 7.264483155476073 12.933513306309909 0.0 0.0 0.0 0.0
269 2 8.407129765595123 12.398816555129685 0.0 0.0 0.0 0.0
270 1 9.24656316181092 13.304241535827924 0.0 0.0 0.0 0.0
271 2 10.339991569519738 13.541607113955454 0.0 0.0 0.0 0.0
272 2 11.593768591486246 13.286907535021408 0.0 0.0 0.0 0.0
273 2 12.802814098914881 13.473093097035113 0.0 0.0 0.0 0.0
274 1 13.541723911395113 12.677865764635026 0.0 0.0 0.0 0.0
275 1 14.48470897345066 13.538176165998449 0.0 0.0 0.0 0.0
276 1 15.138835787247677 13.492994824101455 0.0 0.0 0.0 0.0
277 1 15.655910612692498 13.081839528125013 0.0 0.0 0.0 0.0
278 1 17.837221956609284 13.421418193971359 0.0 0.0 0.0 0.0
279 1 18.266849266870864 13.955140747007663 0.0 0.0 0.0 0.0
280 2 18.87390710092453 13.066955093331218 0.0 0.0 0.0 0.0
281 1 0.6049083724955447 13.84221071110935 0.0 0.0 0.0 0.0
282 2 1.0189512107689795 14.817006673876111 0.0 0.0 0.0 0.0
283 1 2.3152051670485023 14.802842136911037 0.0 0.0 0.0 0.0
284 2 2.9549592022079443 13.868755051022951 0.0 0.0 0.0 0.0
285 1 4.00700901091801 14.160278618838909 0.0 0.0 0.0 0.0
286 1 4.516136931872461 14.561545740197166 0.0 0.0 0.0 0.0
287 2 5.629866665896653 14.706958642678604 0.0 0.0 0.0 0.0
288 2 6.7506212540323585 14.071384373496 0.0 0.0 0.0 0.0
289 2 8.215133228101212 13.641909444844835 0.0 0.0 0.0 0.0
290 2 9.124059723194355 14.43833230281373 0.0 0.0 0.0 0.0
291 2 10.259025880417903 14.880356791484164 0.0 0.0 0.0 0.0
292 2 11.462711128065914 14.52592866929608 0.0 0.0 0.0 0.0
293 1 12.590974728911231 14.552692234259688 0.0 0.0 0.0 0.0
294 2 13.731531343799121 14.291340732879203 0.0 0.0 0.0 0.0
295 1 14.696266836060769 14.767012700484907 0.0 0.0 0.0 0.0
296 1 14.84279318493853 14.111614975615865 0.0 0.0 0.0 0.0
297 2 15.94063429358163 14.216521648085704 0.0 0.0 0.0 0.0
298 2 17.20983078557796 14.29230439251913 0.0 0.0 0.0 0.0
299 1 18.27133221468283 14.613022015225217 0.0 0.0 0.0 0.0
300 2 19.367887290215382 14.358322510203799 0.0 0.0 0.0 0.0
301 1 0.11101110042999862 15.403783116591653 0.0 0.0 0.0 0.0
302 1 0.6580756319342378 15.814930179222804 0.0 0.0 0.0 0.0
303 1 1.9361863969474071 15.36677138087223 0.0 0.0 0.0 0.0
304 2 2.6500420223620678 16.16299636057902 0.0 0.0 0.0 0.0
305 2 3.426365492986477 15.1006755380419 0.0 0.0 0.0 0.0
306 2 4.694372241770781 15.603132111567632 0.0 0.0 0.0 0.0
307 1 5.784253461682894 15.778443533838379 0.0 0.0 0.0 0.0
308 2 6.756632089786054 15.34114948188161 0.0 0.0 0.0 0.0
309 2 7.855237680123699 14.806958055277013 0.0 0.0 0.0 0.0
310 1 8.6844068627192 15.493428767727895 0.0 0.0 0.0 0.0
311 1 9.344891972831903 15.514910074803902 0.0 0.0 0.0 0.0
312 1 11.05736266069153 15.606778599534529 0.0 0.0 0.0 0.0
313 2 12.120617093097934 15.571326437490074 0.0 0.0 0.0 0.0
314 1 13.036946750366559 15.065256796300133 0.0 0.0 0.0 0.0
315 1 14.2398561996879 15.28611092110816 0.0 0.0 0.0 0.0
316 2 15.510075112365842 15.447962656827144 0.0 0.0 0.0 0.0
317 1 16.553728237093075 15.80597806762002 0.0 0.0 0.0 0.0
318 1 16.550693059197776 15.142355029295516 0.0 0.0 0.0 0.0
319 1 18.62867972688862 15.169565138090876 0.0 0.0 0.0 0.0
320 1 19.214933468597543 15.45792383072482 0.0 0.0 0.0 0.0
321 1 0.928404112769715 16.408851211389912 0.0 0.0 0.0 0.0
322 1 1.399897593673239 15.860061855686784 0.0 0.0 0.0 0.0
323 1 1.583501534909143 16.50750505918596 0.0 0.0 0.0 0.0
324 1 3.747181039125575 16.17000902423536 0.0 0.0 0.0 0.0
325 1 4.276501355910957 16.59404546027734 0.0 0.0 0.0 0.0
326 1 4.918936303693862 16.687196061302444 0.0 0.0 0.0 0.0
327 1 5.488941199690136 16.35602661163624 0.0 0.0 0.0 0.0
328 2 6.552493143825561 16.602912556471036 0.0 0.0 0.0 0.0
329 2 7.7570082841774735 16.122519821662166 0.0 0.0 0.0 0.0
330 2 8.932170635306809 16.566239627576167 0.0 0.0 0.0 0.0
331 2 10.161578673541964 16.220517434340213 0.0 0.0 0.0 0.0
332 1 11.250128014508926 16.265920281406604 0.0 0.0 0.0 0.0
333 2 12.224603363619794 16.763939351465915 0.0 0.0 0.0 0.0
334 2 13.36348227565925 16.09108615858363 0.0 0.0 0.0 0.0
335 2 14.621867916649773 16.311763618496855 0.0 0.0 0.0 0.0
336 2 15.88233798454934 16.662412632229675 0.0 0.0 0.0 0.0
337 1 16.945675906247892 16.34730856982386 0.0 0.0 0.0 0.0
338 2 17.604937732029807 15.491300472284454 0.0 0.0 0.0 0.0
339 1 18.65598067821599 15.847576686295412 0.0 0.0 0.0 0.0
340 2 19.55896057835182 16.485388306830107 0.0 0.0 0.0 0.0
341 1 0.04634055026111246 18.099473660217537 0.0 0.0 0.0 0.0
342 2 0.9483827741016619 17.492757704716187 0.0 0.0 0.0 0.0
343 2 2.2491998598734066 17.349846181463423 0.0 0.0 0.0 0.0
344 2 3.455101096490137 17.244588210455202 0.0 0.0 0.0 0.0
345 2 4.648810658389428 17.74533252333479 0.0 0.0 0.0 0.0
346 1 5.888584130037149 17.527990088464666 0.0 0.0 0.0 0.0
347 1 5.493030769943934 17.014539950701238 0.0 0.0 0.0 0.0
348 1 6.548123730154165 17.68185246264036 0.0 0.0 0.0 0.0
349 2 7.6614150380430965 17.43279214615335 0.0 0.0 0.0 0.0
350 1 8.798758573454595 17.65395043055178 0.0 0.0 0.0 0.0
351 2 9.885586081102062 17.420676696474633 0.0 0.0 0.0 0.0
352 2 11.157407331744325 17.39365021610113 0.0 0.0 0.0 0.0
353 1 13.185593909839753 17.22348549555887 0.0 0.0 0.0 0.0
354 1 13.816368445524935 17.07494533447291 0.0 0.0 0.0 0.0
355 1 14.39025219825636 17.372274290063345 0.0 0.0 0.0 0.0
356 1 15.054231542229235 17.332976387115345 0.0 0.0 0.0 0.0
357 2 16.880368199067526 17.418745736573452 0.0 0.0 0.0 0.0
358 2 17.996864772542462 16.73465659241283 0.0 0.0 0.0 0.0
359 1 18.853676230799618 17.427161633907033 0.0 0.0 0.0 0.0
360 1 19.505436830066778 17.5382802189685 0.0 0.0 0.0 0.0
361 2 0.8336553602895079 18.81761110659657 0.0 0.0 0.0 0.0
362 1 1.753224830604819 18.28926003521024 0.0 0.0 0.0 0.0
363 1 2.4040631168661863 18.44100414484061 0.0 0.0 0.0 0.0
364 1 3.01967978232634 18.221705167040327 0.0 0.0 0.0 0.0
365 1 4.172685716020407 18.787712367801188 0.0 0.0 0.0 0.0
366 1 5.425201477146862 18.4969386896558 0.0 0.0 0.0 0.0
367 1 5.9928074677614696 18.811643561924043 0.0 0.0 0.0 0.0
368 1 6.048761603015721 18.160659272558163 0.0 0.0 0.0 0.0
369 2 7.066652146454523 18.62116429715468 0.0 0.0 0.0 0.0
370 2 8.277965141821035 18.60368290408315 0.0 0.0 0.0 0.0
371 2 9.491692330625085 18.58926951580035 0.0 0.0 0.0 0.0
372 1 10.549743552091684 18.308680092263184 0.0 0.0 0.0 0.0
373 2 12.403295937476452 17.985289203895356 0.0 0.0 0.0 0.0
374 2 13.669019141547711 18.2162144686136 0.0 0.0 0.0 0.0
375 1 14.743550039778762 17.91611332062119 0.0 0.0 0.0 0.0
376 2 15.80922665070659 18.140910911811464 0.0 0.0 0.0 0.0
377 1 16.884427134869583 18.495283353318918 0.0 0.0 0.0 0.0
378 2 17.956111269843937 18.072286779095418 0.0 0.0 0.0 0.0
379 1 19.102907645503336 18.106127190265493 0.0 0.0 0.0 0.0
380 1 19.523831570913334 18.679815675532016 0.0 0.0 0.0 0.0
381 1 19.666257988553703 19.343925846226682 0.0 0.0 0.0 0.0
382 2 1.8883458562952586 19.38204198503875 0.0 0.0 0.0 0.0
383 2 3.1381299083037275 19.316095150694707 0.0 0.0 0.0 0.0
384 1 3.6853636878750304 18.326909880933293 0.0 0.0 0.0 0.0
385 1 4.8649679405622885 19.522091338418367 0.0 0.0 0.0 0.0
386 1 4.851244676831298 18.854753434111895 0.0 0.0 0.0 0.0
387 1 5.467762935750026 19.225583083848917 0.0 0.0 0.0 0.0
388 2 6.515145188352121 19.719462078773514 0.0 0.0 0.0 0.0
389 2 7.794792473503575 19.74315665342112 0.0 0.0 0.0 0.0
390 1 8.921844558153342 19.514360099005135 0.0 0.0 0.0 0.0
391 2 10.413335741293608 19.413977706719376 0.0 0.0 0.0 0.0
392 2 11.510486227511752 18.831389695961345 0.0 0.0 0.0 0.0
393 2 12.724551116179478 19.210062356879078 0.0 0.0 0.0 0.0
394 2 14.08243100423469 19.430607021226248 0.0 0.0 0.0 0.0
395 1 14.724604345315717 18.55925635292255 0.0 0.0 0.0 0.0
396 1 15.138181507998718 19.057780476891704 0.0 0.0 0.0 0.0
397 2 16.169230906023884 19.34408465387148 0.0 0.0 0.0 0.0
398 2 17.405201570887705 19.44577858580769 0.0 0.0 0.0 0.0
399 2 18.582866808812874 19.141308850705286 0.0 0.0 0.0 0.0
400 1 19.429674794463008 0.18078337554828694 0.0 0.0 0.0 0.0
