ITEM: TIMESTEP
1
ITEM: NUMBER OF ATOMS
400
ITEM: BOX BOUNDS xy xz yz pp pp pp
0.0 19.7609 0.013022661795653336
0.0 19.7609 0.0
0.0 10.0 0.0
ITEM: ATOMS id type x y z vx vy vz
1 1 0.1370607918498977 19.690768151776293 0.0 0.0 0.0 0.0
2 1 0.21986287979329372 0.5867582028347916 0.0 0.0 0.0 0.0
3 1 3.1326857813900317 1.4300153833380993 0.0 0.0 0.0 0.0
4 1 3.357829462357332 2.081488145617448 0.0 0.0 0.0 0.0
5 1 3.2188550514764023 0.7478500160963393 0.0 0.0 0.0 0.0
6 2 4.708579325547402 0.09818317975561197 0.0 0.0 0.0 0.0
7 2 5.960416629585681 0.011292299992592264 0.0 0.0 0.0 0.0
8 2 7.233015843540335 0.1672829501769729 0.0 0.0 0.0 0.0
9 2 8.53881994440099 19.745479567452886 0.0 0.0 0.0 0.0
10 2 9.772425435861065 19.597543915374498 0.0 0.0 0.0 0.0
11 2 10.988617185633606 19.539845640972857 0.0 0.0 0.0 0.0
12 1 11.672277293707037 0.5919596671754921 0.0 0.0 0.0 0.0
13 2 12.747080338100691 0.7820030927026448 0.0 0.0 0.0 0.0
14 2 14.027337984557889 0.7571844152142491 0.0 0.0 0.0 0.0
15 1 15.12798165175696 0.5286941141057993 0.0 0.0 0.0 0.0
16 1 15.789019404011164 0.6878204279968072 0.0 0.0 0.0 0.0
17 1 16.478961125371324 0.4547767195301706 0.0 0.0 0.0 0.0
18 1 16.919173524608812 19.678681716606604 0.0 0.0 0.0 0.0
19 1 17.59957481887182 19.635638448761842 0.0 0.0 0.0 0.0
20 2 18.84778100741681 0.405617538103054 0.0 0.0 0.0 0.0
21 1 19.690828627744246 1.1842216423169964 0.0 0.0 0.0 0.0
22 1 2.1340772323165207 1.4802942009222007 0.0 0.0 0.0 0.0
23 1 2.664002668606279 1.8935242383956696 0.0 0.0 0.0 0.0
24 1 2.803095778161073 2.541940494427468 0.0 0.0 0.0 0.0
25 2 4.188445947976366 1.2407843082292316 0.0 0.0 0.0 0.0
26 2 5.470400021940423 1.2119014057725566 0.0 0.0 0.0 0.0
27 2 6.7547099148511816 1.5274639812186739 0.0 0.0 0.0 0.0
28 2 8.024954869478563 1.1422554570053212 0.0 0.0 0.0 0.0
29 2 8.810264742844428 2.1300593117475377 0.0 0.0 0.0 0.0
30 2 9.330252536689487 1.0117313036851445 0.0 0.0 0.0 0.0
31 2 10.600574378649002 1.0144601457191342 0.0 0.0 0.0 0.0
32 2 11.679591725424618 1.6786570661207159 0.0 0.0 0.0 0.0
33 1 12.76271198098173 1.8863385650629736 0.0 0.0 0.0 0.0
34 1 13.3827889484748 1.6657665987882682 0.0 0.0 0.0 0.0
35 2 14.425691177450629 1.9079239806218569 0.0 0.0 0.0 0.0
36 1 15.313116914525478 1.1955077264496878 0.0 0.0 0.0 0.0
37 2 16.4620185421869 1.5378439945951325 0.0 0.0 0.0 0.0
38 2 17.504159104274972 0.9166331699891594 0.0 0.0 0.0 0.0
39 1 18.438759473465772 1.4470667589915414 0.0 0.0 0.0 0.0
40 1 19.108216542116875 1.4944508981195372 0.0 0.0 0.0 0.0
41 2 0.16928562181821455 2.2765716451803106 0.0 0.0 0.0 0.0
42 2 1.0195563678604298 1.3622502034855053 0.0 0.0 0.0 0.0
43 2 1.7025077188547932 2.456411744144382 0.0 0.0 0.0 0.0
44 2 3.68779128680446 3.1549589537797997 0.0 0.0 0.0 0.0
45 2 4.733995592548565 2.357894911076264 0.0 0.0 0.0 0.0
46 1 5.868582332156684 2.2428514677773688 0.0 0.0 0.0 0.0
47 2 6.815265046544269 2.8436520297863632 0.0 0.0 0.0 0.0
48 1 7.6839989010309475 2.1753508839840525 0.0 0.0 0.0 0.0
49 1 8.512980988973961 3.1945398029462426 0.0 0.0 0.0 0.0
50 2 9.629497312781563 3.0471360282265603 0.0 0.0 0.0 0.0
51 1 9.957922240339961 1.96286234557084 0.0 0.0 0.0 0.0
52 2 10.862229495683843 2.6873400043020443 0.0 0.0 0.0 0.0
53 2 12.201144350286427 2.808746666598395 0.0 0.0 0.0 0.0
54 2 13.45691565224791 2.778057355451375 0.0 0.0 0.0 0.0
55 2 14.680685981543682 3.149794191381193 0.0 0.0 0.0 0.0
56 2 15.555007956504832 2.297856855244417 0.0 0.0 0.0 0.0
57 1 16.58030566012402 2.646129177033795 0.0 0.0 0.0 0.0
58 1 17.006278298922446 3.1664352127663773 0.0 0.0 0.0 0.0
59 2 17.54549604707229 2.172705149521782 0.0 0.0 0.0 0.0
60 2 18.696117060401953 2.4991156235071474 0.0 0.0 0.0 0.0
61 1 0.31132398759383273 4.266869582173083 0.0 0.0 0.0 0.0
62 2 0.8758011124624835 3.3461615640670015 0.0 0.0 0.0 0.0
63 2 2.3577637731077794 3.571137319199366 0.0 0.0 0.0 0.0
64 2 4.841949504924744 3.627682231188103 0.0 0.0 0.0 0.0
65 1 5.959204822338868 3.5289682950621106 0.0 0.0 0.0 0.0
66 1 5.698245659805868 2.9029415818380992 0.0 0.0 0.0 0.0
67 1 6.520467219789538 3.93506838868228 0.0 0.0 0.0 0.0
68 1 7.941226639675697 2.8002345711080108 0.0 0.0 0.0 0.0
69 1 8.758916999965294 3.8356228044502814 0.0 0.0 0.0 0.0
70 1 8.875590908746995 4.524505155455976 0.0 0.0 0.0 0.0
71 2 10.501234178863836 4.002237082862184 0.0 0.0 0.0 0.0
72 1 11.510173607819864 3.6158590005444107 0.0 0.0 0.0 0.0
73 2 12.759007327250114 3.9391627778780944 0.0 0.0 0.0 0.0
74 1 13.848741201924058 3.815141991082843 0.0 0.0 0.0 0.0
75 1 13.820634944772053 4.467997315878038 0.0 0.0 0.0 0.0
76 2 14.914453611990384 4.393074357705332 0.0 0.0 0.0 0.0
77 2 15.89647359931065 3.4929246171990873 0.0 0.0 0.0 0.0
78 1 16.94211047078281 3.841125077351123 0.0 0.0 0.0 0.0
79 2 18.042183635624514 3.605482080529351 0.0 0.0 0.0 0.0
80 2 19.366079660431996 3.4781570928274004 0.0 0.0 0.0 0.0
81 1 0.34184295432152934 4.90654815120098 0.0 0.0 0.0 0.0
82 2 1.3919281027356152 4.492421759934406 0.0 0.0 0.0 0.0
83 2 2.3333998252329744 5.305631463532565 0.0 0.0 0.0 0.0
84 2 3.3717310816725856 4.397704752767524 0.0 0.0 0.0 0.0
85 1 4.485856589142115 4.696889329545729 0.0 0.0 0.0 0.0
86 2 5.6305494592696546 4.570466724138195 0.0 0.0 0.0 0.0
87 1 6.775391949159847 4.59873758060672 0.0 0.0 0.0 0.0
88 2 7.614121118719275 3.8441436764804053 0.0 0.0 0.0 0.0
89 1 8.240279582601358 4.71039257319107 0.0 0.0 0.0 0.0
90 1 9.388738575311146 4.0967593072102915 0.0 0.0 0.0 0.0
91 2 11.07517393689232 5.170575403621398 0.0 0.0 0.0 0.0
92 1 11.673959025501023 4.25535007833552 0.0 0.0 0.0 0.0
93 1 12.080779974073671 4.800395808922977 0.0 0.0 0.0 0.0
94 1 12.694905660406045 5.043121218140166 0.0 0.0 0.0 0.0
95 1 13.333500190028536 4.905659102171667 0.0 0.0 0.0 0.0
96 2 14.253094832333018 5.496995916862759 0.0 0.0 0.0 0.0
97 2 16.18283685860227 4.673741573659779 0.0 0.0 0.0 0.0
98 1 17.286039934733832 4.415696521169434 0.0 0.0 0.0 0.0
99 1 17.895797533270823 4.721688820384972 0.0 0.0 0.0 0.0
100 2 18.99965368089008 4.669069563936579 0.0 0.0 0.0 0.0
101 2 1.015957960691148 5.739381642971992 0.0 0.0 0.0 0.0
102 1 1.882286431380568 6.331273380901468 0.0 0.0 0.0 0.0
103 1 2.520646572601583 6.415615811180253 0.0 0.0 0.0 0.0
104 1 3.4345498997195603 5.503212884514221 0.0 0.0 0.0 0.0
105 1 4.067361940925669 5.251084594449086 0.0 0.0 0.0 0.0
106 2 5.0792414230221965 5.663072123710865 0.0 0.0 0.0 0.0
107 2 6.303520671223765 5.616152035233132 0.0 0.0 0.0 0.0
108 2 7.514053529606891 5.526831223337104 0.0 0.0 0.0 0.0
109 2 8.752620715152293 5.661743264327437 0.0 0.0 0.0 0.0
110 2 9.841188951077488 5.082428161619781 0.0 0.0 0.0 0.0
111 1 10.430729505929609 6.03517678043709 0.0 0.0 0.0 0.0
112 1 11.064053025033095 6.283448124220422 0.0 0.0 0.0 0.0
113 2 12.104673350102527 5.943548810977258 0.0 0.0 0.0 0.0
114 1 13.14427921743664 5.55860047851015 0.0 0.0 0.0 0.0
115 1 13.28441518370463 6.224805398519608 0.0 0.0 0.0 0.0
116 1 15.36253026960736 5.421690121756726 0.0 0.0 0.0 0.0
117 1 15.953853443103975 5.761629772359235 0.0 0.0 0.0 0.0
118 2 17.0884370215766 5.486586887421616 0.0 0.0 0.0 0.0
119 2 18.291845066859583 5.7769402380474 0.0 0.0 0.0 0.0
120 2 19.539824612878476 5.81544595702597 0.0 0.0 0.0 0.0
121 1 1.3964186002388146 6.792928514193209 0.0 0.0 0.0 0.0
122 1 1.5483912126593131 7.4457700774422655 0.0 0.0 0.0 0.0
123 1 2.0799285087397723 6.968426119421793 0.0 0.0 0.0 0.0
124 1 3.0887818183663387 6.086529928272845 0.0 0.0 0.0 0.0
125 2 4.109939440856086 6.383939425218198 0.0 0.0 0.0 0.0
126 1 5.116261780020854 6.761902658231517 0.0 0.0 0.0 0.0
127 1 5.751167387106129 6.568917146374801 0.0 0.0 0.0 0.0
128 2 6.830503575478446 6.76454947462204 0.0 0.0 0.0 0.0
129 2 8.167021470974419 6.885230053510273 0.0 0.0 0.0 0.0
130 1 9.2793228432149 6.590450506669254 0.0 0.0 0.0 0.0
131 1 9.779007522086083 6.168756583672126 0.0 0.0 0.0 0.0
132 1 11.449930612674658 6.85470389831316 0.0 0.0 0.0 0.0
133 1 12.721885572877257 6.822649214792546 0.0 0.0 0.0 0.0
134 1 13.371862702555768 6.89428717320734 0.0 0.0 0.0 0.0
135 1 13.933522314376313 6.528430907035942 0.0 0.0 0.0 0.0
136 2 15.082830595122138 6.505593177959399 0.0 0.0 0.0 0.0
137 2 16.65615595349163 6.611329046844924 0.0 0.0 0.0 0.0
138 2 17.881642147436548 7.017909927942863 0.0 0.0 0.0 0.0
139 1 18.93121715073282 6.689800392907717 0.0 0.0 0.0 0.0
140 2 0.3071840483073965 6.964392404977354 0.0 0.0 0.0 0.0
141 2 0.7048046145800142 8.186302959235945 0.0 0.0 0.0 0.0
142 1 1.7714389123847971 8.096289618292944 0.0 0.0 0.0 0.0
143 1 2.2176055846126363 7.623860363534661 0.0 0.0 0.0 0.0
144 2 3.213333721947209 7.229743595057135 0.0 0.0 0.0 0.0
145 2 4.432075292257917 7.62116940769712 0.0 0.0 0.0 0.0
146 1 5.578080814407075 7.236988765426129 0.0 0.0 0.0 0.0
147 1 6.1111998499952715 7.6365784764757745 0.0 0.0 0.0 0.0
148 2 7.1431574501981725 7.972223923924233 0.0 0.0 0.0 0.0
149 1 8.232537710864142 8.027992977249317 0.0 0.0 0.0 0.0
150 2 9.231063796653286 7.636949730747871 0.0 0.0 0.0 0.0
151 2 10.366432533322056 7.1273183479715225 0.0 0.0 0.0 0.0
152 1 12.097900585223426 7.079579934364307 0.0 0.0 0.0 0.0
153 2 12.884687253352372 7.912399002661951 0.0 0.0 0.0 0.0
154 2 14.183210959551191 7.596795079829834 0.0 0.0 0.0 0.0
155 1 15.269840326548405 7.587732924919244 0.0 0.0 0.0 0.0
156 1 15.872918662183146 7.333114362644995 0.0 0.0 0.0 0.0
157 1 15.81538586899842 8.004282337662666 0.0 0.0 0.0 0.0
158 2 16.893119566515015 7.829411416827736 0.0 0.0 0.0 0.0
159 1 18.955660077981378 7.343290634776408 0.0 0.0 0.0 0.0
160 1 19.398210306099003 7.8310123490422825 0.0 0.0 0.0 0.0
161 1 0.01917492434860928 9.075734008432242 0.0 0.0 0.0 0.0
162 1 1.895417040176247 8.74198870479367 0.0 0.0 0.0 0.0
163 1 2.4349524215537754 8.282217818413816 0.0 0.0 0.0 0.0
164 1 3.1152814096789814 8.29994518907619 0.0 0.0 0.0 0.0
165 2 4.058341672658761 8.84769390173308 0.0 0.0 0.0 0.0
166 1 5.1132565690908836 8.493352803008126 0.0 0.0 0.0 0.0
167 1 5.48807480019024 7.914912775157215 0.0 0.0 0.0 0.0
168 1 7.172494466947606 9.317510214745703 0.0 0.0 0.0 0.0
169 1 7.979411089224059 8.648635101704475 0.0 0.0 0.0 0.0
170 2 9.07184816354512 8.828434646143432 0.0 0.0 0.0 0.0
171 2 10.22841760220389 8.383202402933916 0.0 0.0 0.0 0.0
172 2 11.459031935970016 7.980076262496062 0.0 0.0 0.0 0.0
173 1 13.249651683975225 8.944912448041181 0.0 0.0 0.0 0.0
174 1 13.823263346116443 8.630481457682377 0.0 0.0 0.0 0.0
175 2 14.9121913404229 8.60782082271868 0.0 0.0 0.0 0.0
176 1 16.047328297367237 8.654182344245983 0.0 0.0 0.0 0.0
177 1 16.688561931251904 8.886703207992687 0.0 0.0 0.0 0.0
178 1 17.36158651279304 8.816446674539792 0.0 0.0 0.0 0.0
179 2 18.323252413969314 8.250203348986416 0.0 0.0 0.0 0.0
180 1 19.424610955754048 8.48537555880405 0.0 0.0 0.0 0.0
181 1 0.5321276248390381 9.523916318344522 0.0 0.0 0.0 0.0
182 1 1.1139769434289997 9.18701235154859 0.0 0.0 0.0 0.0
183 1 1.7436178910449462 9.386502818118082 0.0 0.0 0.0 0.0
184 2 2.842362708357317 9.355104576888156 0.0 0.0 0.0 0.0
185 2 3.879400973218134 10.124332892197252 0.0 0.0 0.0 0.0
186 2 5.075426611340739 9.605021433268366 0.0 0.0 0.0 0.0
187 2 6.183404937572696 8.760216944092683 0.0 0.0 0.0 0.0
188 2 8.246456971213135 9.68751233224748 0.0 0.0 0.0 0.0
189 1 9.334627148285428 9.911027690913325 0.0 0.0 0.0 0.0
190 1 9.906094919008904 9.542638044594588 0.0 0.0 0.0 0.0
191 2 10.972628689515174 9.332706878194632 0.0 0.0 0.0 0.0
192 2 12.179358534141372 9.067700823715796 0.0 0.0 0.0 0.0
193 1 13.159026742397396 9.603606930535246 0.0 0.0 0.0 0.0
194 1 13.80411743353302 9.331125044767713 0.0 0.0 0.0 0.0
195 2 14.79621188470943 9.796338277548625 0.0 0.0 0.0 0.0
196 1 15.780077062320725 9.294477057789852 0.0 0.0 0.0 0.0
197 1 16.418512637117267 9.484701594688474 0.0 0.0 0.0 0.0
198 1 17.08170565763794 9.447493956128325 0.0 0.0 0.0 0.0
199 2 18.161433597359775 9.553110283614368 0.0 0.0 0.0 0.0
200 1 19.102178890820554 9.046607980592826 0.0 0.0 0.0 0.0
201 1 0.6519095572077965 10.189581861588858 0.0 0.0 0.0 0.0
202 1 1.248806368120822 9.854361810250422 0.0 0.0 0.0 0.0
203 1 1.9629737810218546 10.005447717632961 0.0 0.0 0.0 0.0
204 2 2.6916650515451455 10.83934796048124 0.0 0.0 0.0 0.0
205 1 4.376828068617422 11.117906863549974 0.0 0.0 0.0 0.0
206 1 4.8640136599266945 10.677831054561969 0.0 0.0 0.0 0.0
207 2 6.248682059999517 9.988447517526136 0.0 0.0 0.0 0.0
208 2 7.343802358483363 10.47968765533966 0.0 0.0 0.0 0.0
209 1 8.406237070984236 10.735003019415764 0.0 0.0 0.0 0.0
210 1 9.044312339405232 10.531349235472195 0.0 0.0 0.0 0.0
211 2 10.156915602266489 10.65984808328345 0.0 0.0 0.0 0.0
212 2 11.551781577288338 10.394297239761817 0.0 0.0 0.0 0.0
213 1 12.662233800703238 10.0699872558527 0.0 0.0 0.0 0.0
214 2 13.741073159899042 10.523299484012961 0.0 0.0 0.0 0.0
215 1 14.857548479810777 10.849773177769414 0.0 0.0 0.0 0.0
216 2 15.942426468311075 10.439135576558483 0.0 0.0 0.0 0.0
217 1 17.09851742339693 10.135196640483436 0.0 0.0 0.0 0.0
218 1 17.697395343579 10.508956998622304 0.0 0.0 0.0 0.0
219 1 18.343584484157184 10.673450929456658 0.0 0.0 0.0 0.0
220 2 19.308257835337084 10.10633113585429 0.0 0.0 0.0 0.0
221 1 0.36964003397506257 10.809750393290706 0.0 0.0 0.0 0.0
222 1 0.5040725786037636 11.464905531193182 0.0 0.0 0.0 0.0
223 2 1.454460127991041 10.945416548059875 0.0 0.0 0.0 0.0
224 1 3.7068096082849995 11.205433239336022 0.0 0.0 0.0 0.0
225 1 4.116202817906737 11.724084443634576 0.0 0.0 0.0 0.0
226 1 5.514147232457256 10.77963356414779 0.0 0.0 0.0 0.0
227 2 6.455261344445484 11.35786219213379 0.0 0.0 0.0 0.0
228 2 7.805008766992202 11.62452555887252 0.0 0.0 0.0 0.0
229 1 8.850305308644907 11.214333292554327 0.0 0.0 0.0 0.0
230 1 9.429459184850032 11.516416088699476 0.0 0.0 0.0 0.0
231 1 10.031662239308462 11.765016629151054 0.0 0.0 0.0 0.0
232 2 11.091673994586193 11.648804835614655 0.0 0.0 0.0 0.0
233 1 12.164050789925192 11.267634432698744 0.0 0.0 0.0 0.0
234 1 12.608444439251572 10.736589240324774 0.0 0.0 0.0 0.0
235 2 14.346247350759093 11.792981032951467 0.0 0.0 0.0 0.0
236 1 15.307409439261615 11.336813921455171 0.0 0.0 0.0 0.0
237 1 15.921331985119219 11.538919404203883 0.0 0.0 0.0 0.0
238 2 16.955062040035425 11.257695671185349 0.0 0.0 0.0 0.0
239 1 18.067774558328367 11.317715421978713 0.0 0.0 0.0 0.0
240 2 19.17771988048226 11.38694142105464 0.0 0.0 0.0 0.0
241 1 0.34895819883892243 12.109433845651647 0.0 0.0 0.0 0.0
242 1 0.9977975831358628 11.932781151960544 0.0 0.0 0.0 0.0
243 1 2.008076370546165 11.886565559943316 0.0 0.0 0.0 0.0
244 2 3.0790486031435496 12.122898670868874 0.0 0.0 0.0 0.0
245 1 4.21335537871516 12.365754181865952 0.0 0.0 0.0 0.0
246 2 5.232291201577485 11.859159787867632 0.0 0.0 0.0 0.0
247 1 6.290713047687453 12.439468833013319 0.0 0.0 0.0 0.0
248 1 6.966911018794257 12.35848302948094 0.0 0.0 0.0 0.0
249 1 8.277000618828154 12.608207767017221 0.0 0.0 0.0 0.0
250 1 8.876761564185516 11.916025853274128 0.0 0.0 0.0 0.0
251 1 10.15426576883977 12.415350009362117 0.0 0.0 0.0 0.0
252 1 11.812319396505773 12.505504442543854 0.0 0.0 0.0 0.0
253 1 12.132244989177702 11.93020934555277 0.0 0.0 0.0 0.0
254 2 13.172418717583035 11.666070847234115 0.0 0.0 0.0 0.0
255 1 15.449759751601837 12.032912284920812 0.0 0.0 0.0 0.0
256 1 16.170871784769396 12.142697560973708 0.0 0.0 0.0 0.0
257 1 16.804718316173318 12.302887656789423 0.0 0.0 0.0 0.0
258 1 17.50017351408956 12.254825508690928 0.0 0.0 0.0 0.0
259 1 18.204941924045354 12.037047878200173 0.0 0.0 0.0 0.0
260 1 18.8443285544167 12.419193272576873 0.0 0.0 0.0 0.0
261 1 0.3835169158144519 12.778431904531395 0.0 0.0 0.0 0.0
262 2 1.4984556382792125 12.89195881968651 0.0 0.0 0.0 0.0
263 1 2.5323692375933002 13.173836111379222 0.0 0.0 0.0 0.0
264 2 3.596371871568747 13.246060678007181 0.0 0.0 0.0 0.0
265 1 4.676235381303631 12.834793402180981 0.0 0.0 0.0 0.0
266 2 5.661510993489936 13.32037996662685 0.0 0.0 0.0 0.0
267 2 6.87474904224731 13.47169587441312 0.0 0.0 0.0 0.0
268 1 7.586721258311069 12.666546064722832 0.0 0.0 0.0 0.0
269 1 8.637358036922238 13.172901062598951 0.0 0.0 0.0 0.0
270 1 8.962305254796389 12.59105301275015 0.0 0.0 0.0 0.0
271 1 9.512190471490896 12.207785077332993 0.0 0.0 0.0 0.0
272 2 10.950438495841636 13.132464472226495 0.0 0.0 0.0 0.0
273 1 12.47733709769527 12.50275656585132 0.0 0.0 0.0 0.0
274 2 13.470756521565784 12.94007637761588 0.0 0.0 0.0 0.0
275 2 14.717545880489194 12.923294775965198 0.0 0.0 0.0 0.0
276 1 15.755797845192571 12.646251904268196 0.0 0.0 0.0 0.0
277 1 16.398335429592034 12.85984398685029 0.0 0.0 0.0 0.0
278 1 17.09116830708002 12.871286023743153 0.0 0.0 0.0 0.0
279 2 18.09863610907221 13.19581505843767 0.0 0.0 0.0 0.0
280 1 19.528669735089583 12.429296937136698 0.0 0.0 0.0 0.0
281 2 0.72274362925129 13.84114876185993 0.0 0.0 0.0 0.0
282 1 1.8567989034407193 14.03034674648982 0.0 0.0 0.0 0.0
283 1 2.559250824105162 13.864766490794414 0.0 0.0 0.0 0.0
284 2 3.526352135113595 14.470229472464723 0.0 0.0 0.0 0.0
285 2 4.609423678078786 13.921407294092862 0.0 0.0 0.0 0.0
286 1 5.535310090721673 14.460103691739034 0.0 0.0 0.0 0.0
287 1 6.171904457621666 14.317107656331663 0.0 0.0 0.0 0.0
288 1 7.32048760480904 14.446355999335681 0.0 0.0 0.0 0.0
289 1 7.96035747615195 13.218327315315133 0.0 0.0 0.0 0.0
290 2 9.698528493715358 13.460484172783024 0.0 0.0 0.0 0.0
291 1 10.61891927369522 14.162699093587372 0.0 0.0 0.0 0.0
292 1 11.307378390997416 14.174914798975397 0.0 0.0 0.0 0.0
293 2 12.199152241063885 13.551408387604289 0.0 0.0 0.0 0.0
294 1 13.192958092484025 14.004517067194781 0.0 0.0 0.0 0.0
295 2 14.33331452352666 14.099405133948853 0.0 0.0 0.0 0.0
296 2 15.628468666490303 13.723928089200207 0.0 0.0 0.0 0.0
297 2 16.83514134007009 13.906606863608472 0.0 0.0 0.0 0.0
298 1 17.87968790313645 14.244768658895097 0.0 0.0 0.0 0.0
299 1 18.54174958570302 14.269349344141443 0.0 0.0 0.0 0.0
300 2 19.29039424799394 13.476645557101655 0.0 0.0 0.0 0.0
301 1 0.8575737565579952 14.944774133372716 0.0 0.0 0.0 0.0
302 1 1.4547053511417047 14.640992701550957 0.0 0.0 0.0 0.0
303 2 2.457312063068955 15.014089087553797 0.0 0.0 0.0 0.0
304 2 3.576462964193555 15.715624817151541 0.0 0.0 0.0 0.0
305 2 4.692572148411451 15.162947756003742 0.0 0.0 0.0 0.0
306 2 5.918728465006558 15.494951330713674 0.0 0.0 0.0 0.0
307 1 6.708933874030192 14.699494195432772 0.0 0.0 0.0 0.0
308 1 7.633015682176299 15.019982208929962 0.0 0.0 0.0 0.0
309 2 8.38900633800993 14.221997952526905 0.0 0.0 0.0 0.0
310 1 9.406181711939341 14.599215043114347 0.0 0.0 0.0 0.0
311 1 10.071534380833981 14.542788380571062 0.0 0.0 0.0 0.0
312 2 10.984827977301299 15.205636355887822 0.0 0.0 0.0 0.0
313 2 12.220093907109788 14.865104849088889 0.0 0.0 0.0 0.0
314 2 13.506208628472624 15.033831497998923 0.0 0.0 0.0 0.0
315 1 14.622699948679703 15.17366385566663 0.0 0.0 0.0 0.0
316 2 15.741576612215075 14.946413162672197 0.0 0.0 0.0 0.0
317 1 16.850631349508756 15.011550076459427 0.0 0.0 0.0 0.0
318 1 17.486032887959126 14.769602497579655 0.0 0.0 0.0 0.0
319 1 18.182973793736224 14.845269993543841 0.0 0.0 0.0 0.0
320 2 19.54616121331016 14.706488109812874 0.0 0.0 0.0 0.0
321 2 1.5242858616161323 15.825809650937753 0.0 0.0 0.0 0.0
322 1 2.5630019672812714 16.12595616441531 0.0 0.0 0.0 0.0
323 1 2.989817261752801 16.638345957879324 0.0 0.0 0.0 0.0
324 1 3.6427298387522473 16.820551329141235 0.0 0.0 0.0 0.0
325 2 4.660709220016651 16.419785858570435 0.0 0.0 0.0 0.0
326 1 5.726631935653959 16.6672250647248 0.0 0.0 0.0 0.0
327 1 7.01648309774466 15.297057931901042 0.0 0.0 0.0 0.0
328 1 7.577346999441379 15.673296845794205 0.0 0.0 0.0 0.0
329 2 8.63412486755685 15.455793026219927 0.0 0.0 0.0 0.0
330 1 9.093870422668077 16.46954984439503 0.0 0.0 0.0 0.0
331 2 9.825913286197583 15.629725653536305 0.0 0.0 0.0 0.0
332 2 10.735242907291036 16.44176023651614 0.0 0.0 0.0 0.0
333 1 11.731390269883052 16.00294308066923 0.0 0.0 0.0 0.0
334 2 12.797946893784284 16.05710540082412 0.0 0.0 0.0 0.0
335 2 14.027197811352528 16.14656914125979 0.0 0.0 0.0 0.0
336 2 15.242851768675317 16.08755982236257 0.0 0.0 0.0 0.0
337 2 16.441864156480772 16.033360313121413 0.0 0.0 0.0 0.0
338 2 17.62870148388622 15.818506497982005 0.0 0.0 0.0 0.0
339 2 18.845280008076294 15.71820074983909 0.0 0.0 0.0 0.0
340 2 0.3101607235277988 15.902861226984262 0.0 0.0 0.0 0.0
341 2 0.7721245619570409 17.456202689141108 0.0 0.0 0.0 0.0
342 2 1.9615528817443597 17.067000458097898 0.0 0.0 0.0 0.0
343 1 2.3462780156524023 18.5588639755408 0.0 0.0 0.0 0.0
344 2 3.025968666364069 17.722888268604535 0.0 0.0 0.0 0.0
345 2 4.3360857891779325 17.695760745572855 0.0 0.0 0.0 0.0
346 1 5.369418265197656 17.268889789226204 0.0 0.0 0.0 0.0
347 2 6.787231696111119 16.388780812584482 0.0 0.0 0.0 0.0
348 2 8.034107297074266 16.6614161071042 0.0 0.0 0.0 0.0
349 2 8.987275450367475 17.632038060739017 0.0 0.0 0.0 0.0
350 1 9.687747003838542 16.751318839263124 0.0 0.0 0.0 0.0
351 1 10.04820013175704 17.31663415287297 0.0 0.0 0.0 0.0
352 1 11.929405043459942 17.43004762964407 0.0 0.0 0.0 0.0
353 1 11.846656482593259 16.729591119558037 0.0 0.0 0.0 0.0
354 1 12.466465184683823 17.075033373976513 0.0 0.0 0.0 0.0
355 2 13.515694926115724 17.308069884725416 0.0 0.0 0.0 0.0
356 2 14.718769781584085 17.19253752658188 0.0 0.0 0.0 0.0
357 2 15.971068751956112 17.234006453969318 0.0 0.0 0.0 0.0
358 2 17.21989550612318 17.022224730073713 0.0 0.0 0.0 0.0
359 1 18.28353332366864 16.664988895541565 0.0 0.0 0.0 0.0
360 2 19.3436943712176 16.90652220373315 0.0 0.0 0.0 0.0
361 2 0.7004815496659782 18.72051267083923 0.0 0.0 0.0 0.0
362 1 1.7348662254290816 18.176726819235423 0.0 0.0 0.0 0.0
363 1 1.7654050657128157 18.86899050686748 0.0 0.0 0.0 0.0
364 2 2.51591792547538 19.671617338055814 0.0 0.0 0.0 0.0
365 2 3.442833919457528 18.87976188731585 0.0 0.0 0.0 0.0
366 2 5.512903297677878 18.394466787143195 0.0 0.0 0.0 0.0
367 2 6.428809667441738 17.550837953702747 0.0 0.0 0.0 0.0
368 2 7.656341828380321 17.844923163904237 0.0 0.0 0.0 0.0
369 1 9.061649198735573 18.754580589259973 0.0 0.0 0.0 0.0
370 1 10.128130968245099 17.99089869669947 0.0 0.0 0.0 0.0
371 1 10.66787998915724 17.578298068591586 0.0 0.0 0.0 0.0
372 1 11.29262352324454 17.33061470295952 0.0 0.0 0.0 0.0
373 2 12.689634515701496 18.203901908050995 0.0 0.0 0.0 0.0
374 1 13.480771131661227 18.944885504697268 0.0 0.0 0.0 0.0
375 1 13.912972272849657 18.377390787584506 0.0 0.0 0.0 0.0
376 2 15.090372933275283 18.331532828792373 0.0 0.0 0.0 0.0
377 1 16.177797167084936 18.30446106724789 0.0 0.0 0.0 0.0
378 1 16.788467282401218 18.017882046754103 0.0 0.0 0.0 0.0
379 2 18.21684664129889 17.734845082242735 0.0 0.0 0.0 0.0
380 2 19.39113881614806 18.12961945172353 0.0 0.0 0.0 0.0
381 1 19.447479197249663 19.212956924304812 0.0 0.0 0.0 0.0
382 2 1.212906050126476 0.08113795512871218 0.0 0.0 0.0 0.0
383 1 1.968002361318427 0.8451870949643181 0.0 0.0 0.0 0.0
384 1 2.610307562724761 1.0174802150558435 0.0 0.0 0.0 0.0
385 1 3.61513843948133 0.21233176058674347 0.0 0.0 0.0 0.0
386 1 4.513543482656288 18.788200474031118 0.0 0.0 0.0 0.0
387 2 6.7314930319355915 18.76209260974398 0.0 0.0 0.0 0.0
388 1 7.803422442634466 18.94423936046744 0.0 0.0 0.0 0.0
389 1 8.408234714277269 18.63229337178444 0.0 0.0 0.0 0.0
390 1 9.681870261535474 18.49719034756277 0.0 0.0 0.0 0.0
391 1 10.342232459179316 18.63827391231773 0.0 0.0 0.0 0.0
392 2 11.418132858247546 18.399670391045014 0.0 0.0 0.0 0.0
393 2 12.290447296667233 19.385351929415 0.0 0.0 0.0 0.0
394 1 13.384550513086067 19.61583531097474 0.0 0.0 0.0 0.0
395 2 14.489489374313342 19.383788422513273 0.0 0.0 0.0 0.0
396 2 15.82893075395496 19.353960637248175 0.0 0.0 0.0 0.0
397 1 16.721445692020637 18.6924977474898 0.0 0.0 0.0 0.0
398 1 17.35124119873374 18.398593041432363 0.0 0.0 0.0 0.0
399 1 17.264952976721258 19.070403829333667 0.0 0.0 0.0 0.0
400 2 18.392151911033633 18.937233284748913 0.0 0.0 0.0 0.0
