ITEM: TIMESTEP
1
ITEM: NUMBER OF ATOMS
400
ITEM: BOX BOUNDS xy xz yz pp pp pp
0.0 19.7609 0.09934538433725812
0.0 19.7609 0.0
0.0 10.0 0.0
ITEM: ATOMS id type x y z vx vy vz
1 2 1.0088923361512074 19.66086540999491 0.0 0.0 0.0 0.0
2 2 1.9163077635186645 0.7090613158778065 0.0 0.0 0.0 0.0
3 2 3.0085982389161803 0.0019780889795628443 0.0 0.0 0.0 0.0
4 2 4.0411270396111565 0.7826924213405057 0.0 0.0 0.0 0.0
5 2 5.0269714363584574 0.016917029670138944 0.0 0.0 0.0 0.0
6 1 5.723049322904093 0.835112236776858 0.0 0.0 0.0 0.0
7 2 6.80986169036697 0.9460638109136107 0.0 0.0 0.0 0.0
8 2 7.610105149259818 19.666015735141535 0.0 0.0 0.0 0.0
9 2 8.4492263772372 0.7882601268036994 0.0 0.0 0.0 0.0
10 1 9.58739866280475 0.4786608405323014 0.0 0.0 0.0 0.0
11 1 9.48892397704555 1.1293714380267867 0.0 0.0 0.0 0.0
12 2 10.625181234356734 0.8532306466690178 0.0 0.0 0.0 0.0
13 1 11.805413237354285 0.43446412101140885 0.0 0.0 0.0 0.0
14 1 12.474805931276268 0.6305383645298679 0.0 0.0 0.0 0.0
15 2 13.57305838385005 0.5031550167342169 0.0 0.0 0.0 0.0
16 2 14.72355869389634 0.9322463292725509 0.0 0.0 0.0 0.0
17 2 15.654449008484042 19.590138415284365 0.0 0.0 0.0 0.0
18 2 16.748672928886087 0.2055043181704734 0.0 0.0 0.0 0.0
19 2 18.064291432298283 19.72873097140778 0.0 0.0 0.0 0.0
20 2 19.596552107299093 0.5029413577939444 0.0 0.0 0.0 0.0
21 1 0.820147682174736 0.9828259965254269 0.0 0.0 0.0 0.0
22 1 1.182825265827643 1.531934261997992 0.0 0.0 0.0 0.0
23 1 2.9790821310231386 1.0959921651393947 0.0 0.0 0.0 0.0
24 1 3.315767817012588 1.684702715536279 0.0 0.0 0.0 0.0
25 1 5.128162085976673 1.1791970684281263 0.0 0.0 0.0 0.0
26 1 5.761636231769432 1.4915461122903566 0.0 0.0 0.0 0.0
27 2 6.653616885296972 2.1562452960516962 0.0 0.0 0.0 0.0
28 1 7.684487263877141 1.6099297612242023 0.0 0.0 0.0 0.0
29 2 7.732389452435582 2.7105690132454865 0.0 0.0 0.0 0.0
30 2 8.736887608383995 2.0115446340905185 0.0 0.0 0.0 0.0
31 1 9.76294751245592 1.7171352933261224 0.0 0.0 0.0 0.0
32 2 10.733625409359565 2.0981280839404914 0.0 0.0 0.0 0.0
33 2 11.781236248035409 1.490900459075448 0.0 0.0 0.0 0.0
34 1 12.832948615011754 1.274717710544544 0.0 0.0 0.0 0.0
35 2 12.752795723658815 2.37948696565169 0.0 0.0 0.0 0.0
36 2 13.831109644777014 1.7836257753148745 0.0 0.0 0.0 0.0
37 2 15.90668274532583 1.0766984888004074 0.0 0.0 0.0 0.0
38 1 16.951010296062293 1.3129660033278687 0.0 0.0 0.0 0.0
39 1 17.526524661025913 0.982368084191207 0.0 0.0 0.0 0.0
40 2 18.59061101217071 1.1903265332305186 0.0 0.0 0.0 0.0
41 2 0.08414988499603342 1.8219928899253233 0.0 0.0 0.0 0.0
42 1 1.1525077977294647 2.1875278757799763 0.0 0.0 0.0 0.0
43 2 2.232771407974834 1.8925195759415672 0.0 0.0 0.0 0.0
44 2 3.126192240653481 2.8220946285157753 0.0 0.0 0.0 0.0
45 2 4.359157002988511 2.0043796004886856 0.0 0.0 0.0 0.0
46 2 5.473107193730583 2.5429271825467405 0.0 0.0 0.0 0.0
47 1 6.404960233549033 3.2167741764819637 0.0 0.0 0.0 0.0
48 1 7.014425464128952 3.4912048271372966 0.0 0.0 0.0 0.0
49 1 8.335222664504567 3.6777277638151626 0.0 0.0 0.0 0.0
50 1 8.716641819717625 3.1257651524552945 0.0 0.0 0.0 0.0
51 2 9.754471219697605 2.861350316212271 0.0 0.0 0.0 0.0
52 2 10.895604829853745 3.319901819849266 0.0 0.0 0.0 0.0
53 2 12.13481477726264 3.512622967894155 0.0 0.0 0.0 0.0
54 1 11.687422175188416 2.5587767363784995 0.0 0.0 0.0 0.0
55 2 13.376446329051532 3.486038273565384 0.0 0.0 0.0 0.0
56 2 14.495841014489756 2.867893126529471 0.0 0.0 0.0 0.0
57 2 15.579160468763785 2.268354691502971 0.0 0.0 0.0 0.0
58 1 16.62400240126646 1.916289306533085 0.0 0.0 0.0 0.0
59 2 17.704733053940856 2.0912860295506013 0.0 0.0 0.0 0.0
60 1 18.803763776932538 2.2630332636401795 0.0 0.0 0.0 0.0
61 1 19.249055585644598 2.7599235147115087 0.0 0.0 0.0 0.0
62 2 0.5603332524676398 3.094497558315699 0.0 0.0 0.0 0.0
63 2 1.8429280493517726 3.03650268941902 0.0 0.0 0.0 0.0
64 1 2.5760353224085377 3.8395470466037973 0.0 0.0 0.0 0.0
65 2 4.303228206703228 3.303542421230271 0.0 0.0 0.0 0.0
66 2 5.466308384692212 3.764972447893304 0.0 0.0 0.0 0.0
67 1 6.50092797691629 3.918186331971407 0.0 0.0 0.0 0.0
68 1 7.107128975829239 4.1467551117367 0.0 0.0 0.0 0.0
69 1 7.671536162972944 3.800323048832664 0.0 0.0 0.0 0.0
70 1 8.691795579677024 4.243613285064177 0.0 0.0 0.0 0.0
71 1 9.061618552852014 3.6987372502720866 0.0 0.0 0.0 0.0
72 1 11.335871262935147 4.304457288183279 0.0 0.0 0.0 0.0
73 1 11.939833502326412 4.563872365582656 0.0 0.0 0.0 0.0
74 1 12.646517421249536 4.441963086454306 0.0 0.0 0.0 0.0
75 1 14.388949401168487 3.9490084599434248 0.0 0.0 0.0 0.0
76 1 15.0548812707801 3.8314097682080535 0.0 0.0 0.0 0.0
77 1 15.549543240595792 3.3674423868512964 0.0 0.0 0.0 0.0
78 2 16.638741297391373 3.035550798421835 0.0 0.0 0.0 0.0
79 2 18.193734203223265 3.2044474298125216 0.0 0.0 0.0 0.0
80 1 19.285765222065926 3.4252563315345115 0.0 0.0 0.0 0.0
81 2 0.21076028158461757 4.312104685512312 0.0 0.0 0.0 0.0
82 2 1.433287679082651 4.176884381036646 0.0 0.0 0.0 0.0
83 1 2.468612305408137 4.510840029492638 0.0 0.0 0.0 0.0
84 2 3.55546438405116 4.359002988535163 0.0 0.0 0.0 0.0
85 1 4.625937233754544 4.3880514542012055 0.0 0.0 0.0 0.0
86 2 5.593962571421321 5.028940122542296 0.0 0.0 0.0 0.0
87 1 6.61412228829644 4.598292650982167 0.0 0.0 0.0 0.0
88 1 6.675440879273596 5.272671348409307 0.0 0.0 0.0 0.0
89 2 7.830654243954735 4.912223360909624 0.0 0.0 0.0 0.0
90 1 9.397375254825523 4.292583394084047 0.0 0.0 0.0 0.0
91 1 10.040162074818994 4.0453556681691545 0.0 0.0 0.0 0.0
92 1 10.664298790903455 4.372690970997649 0.0 0.0 0.0 0.0
93 1 12.380624912747745 5.040359376982188 0.0 0.0 0.0 0.0
94 1 13.284674805170901 4.574112791299313 0.0 0.0 0.0 0.0
95 1 13.922949774334029 4.430017946831019 0.0 0.0 0.0 0.0
96 2 14.861119923292264 4.938671420099372 0.0 0.0 0.0 0.0
97 2 16.01505196433946 4.3838884636811475 0.0 0.0 0.0 0.0
98 2 17.279188045974195 4.158000267661788 0.0 0.0 0.0 0.0
99 1 18.364415431173107 4.276255311569563 0.0 0.0 0.0 0.0
100 1 18.950544760098566 3.9938889769575 0.0 0.0 0.0 0.0
101 2 0.5579021538089481 5.49813708995762 0.0 0.0 0.0 0.0
102 2 1.7535855570464913 5.367784338690941 0.0 0.0 0.0 0.0
103 1 2.7761221096513116 5.113020186813245 0.0 0.0 0.0 0.0
104 1 3.310447017387946 5.483713109564758 0.0 0.0 0.0 0.0
105 1 3.954645742101 5.407720675880425 0.0 0.0 0.0 0.0
106 1 4.487588338994288 5.022305836252463 0.0 0.0 0.0 0.0
107 1 7.146520828801451 6.467566987025199 0.0 0.0 0.0 0.0
108 1 7.076184578098412 5.799063036448228 0.0 0.0 0.0 0.0
109 1 9.004606611741702 5.490891730648458 0.0 0.0 0.0 0.0
110 1 8.97741909324114 4.836581160625622 0.0 0.0 0.0 0.0
111 2 10.0315225605959 5.237525036899845 0.0 0.0 0.0 0.0
112 1 11.090545434042385 4.923942679232364 0.0 0.0 0.0 0.0
113 1 11.713017673610551 5.192626364183453 0.0 0.0 0.0 0.0
114 1 13.029054016455508 5.185771225648222 0.0 0.0 0.0 0.0
115 1 13.714948505878674 5.091298550996107 0.0 0.0 0.0 0.0
116 1 15.771488316346037 5.500468673055411 0.0 0.0 0.0 0.0
117 1 16.02514863774368 6.128458536505092 0.0 0.0 0.0 0.0
118 2 16.828181985414812 5.380341029181413 0.0 0.0 0.0 0.0
119 2 18.01599495363909 5.276280906928756 0.0 0.0 0.0 0.0
120 1 18.930861082850036 4.670701379626157 0.0 0.0 0.0 0.0
121 1 0.16258717606726467 6.560426659314839 0.0 0.0 0.0 0.0
122 2 1.283164957983614 6.519393923909134 0.0 0.0 0.0 0.0
123 2 2.591638844337398 6.294255935392909 0.0 0.0 0.0 0.0
124 1 3.6894342328764056 6.045393028896616 0.0 0.0 0.0 0.0
125 2 4.81291601567841 6.062313731477341 0.0 0.0 0.0 0.0
126 2 6.050282667030214 6.325900386436372 0.0 0.0 0.0 0.0
127 1 6.882355518591877 7.064769076097866 0.0 0.0 0.0 0.0
128 2 8.14003974982575 6.071485808461619 0.0 0.0 0.0 0.0
129 1 8.994809879559714 6.739052496788811 0.0 0.0 0.0 0.0
130 1 9.288458848494024 6.117480962684562 0.0 0.0 0.0 0.0
131 1 9.92366765422119 6.378078403563958 0.0 0.0 0.0 0.0
132 2 11.010170476291295 6.033400149424209 0.0 0.0 0.0 0.0
133 2 12.36608180777444 6.093038833851797 0.0 0.0 0.0 0.0
134 1 13.397028419541929 5.741945995628966 0.0 0.0 0.0 0.0
135 1 14.048325207673257 5.664038367499006 0.0 0.0 0.0 0.0
136 2 14.954729511113525 6.22862831563004 0.0 0.0 0.0 0.0
137 1 15.874356895058854 6.802439382956057 0.0 0.0 0.0 0.0
138 2 16.9587678513923 6.674695964485131 0.0 0.0 0.0 0.0
139 2 18.177320936298667 6.486314584728699 0.0 0.0 0.0 0.0
140 2 19.152287721278334 5.757638480841219 0.0 0.0 0.0 0.0
141 2 0.6030852572547237 7.593222351878993 0.0 0.0 0.0 0.0
142 1 1.707245443646911 7.510855219899208 0.0 0.0 0.0 0.0
143 2 2.8023330121803647 7.522061104493489 0.0 0.0 0.0 0.0
144 2 4.005007355458939 7.103989205970447 0.0 0.0 0.0 0.0
145 1 5.114686843067524 7.0897219032859615 0.0 0.0 0.0 0.0
146 1 5.661075557824596 7.4490904043782615 0.0 0.0 0.0 0.0
147 1 6.3181595103724515 7.421842759827816 0.0 0.0 0.0 0.0
148 2 7.996219880162036 7.247518471846153 0.0 0.0 0.0 0.0
149 1 9.064203915274138 7.41694277117954 0.0 0.0 0.0 0.0
150 1 9.601150188054802 7.003960640431068 0.0 0.0 0.0 0.0
151 2 10.648174843927524 7.235310545160358 0.0 0.0 0.0 0.0
152 1 11.682155114602416 6.915122078125809 0.0 0.0 0.0 0.0
153 1 11.706369374539472 7.5745214596543855 0.0 0.0 0.0 0.0
154 2 12.747461843968157 7.258493779807359 0.0 0.0 0.0 0.0
155 2 13.854524062360687 6.74860334845534 0.0 0.0 0.0 0.0
156 2 15.005630819414577 7.506786556177153 0.0 0.0 0.0 0.0
157 1 16.120020649792814 7.428140940439332 0.0 0.0 0.0 0.0
158 1 16.705805860182423 7.760022994917842 0.0 0.0 0.0 0.0
159 2 17.77621235632235 7.6317521814567835 0.0 0.0 0.0 0.0
160 2 19.098323577294178 7.329876121742872 0.0 0.0 0.0 0.0
161 2 0.7393403856252194 8.869371102373437 0.0 0.0 0.0 0.0
162 2 1.9980564731522306 8.555931366952978 0.0 0.0 0.0 0.0
163 1 3.136249267658918 8.562960398740813 0.0 0.0 0.0 0.0
164 1 3.689887446269217 8.187436386408427 0.0 0.0 0.0 0.0
165 2 4.779762713185944 8.149911465633757 0.0 0.0 0.0 0.0
166 2 5.987986679869712 8.507631300225322 0.0 0.0 0.0 0.0
167 2 7.171086928166595 8.100734006373173 0.0 0.0 0.0 0.0
168 1 7.613367630815832 9.078145771383133 0.0 0.0 0.0 0.0
169 2 8.53458263064885 8.421319520672146 0.0 0.0 0.0 0.0
170 2 9.828916608341444 8.182384675145824 0.0 0.0 0.0 0.0
171 1 10.319939950500931 9.226156885175993 0.0 0.0 0.0 0.0
172 2 11.049740223887618 8.42614964785402 0.0 0.0 0.0 0.0
173 1 12.092768114738014 8.128371086174335 0.0 0.0 0.0 0.0
174 1 12.721198486438446 8.354736063085912 0.0 0.0 0.0 0.0
175 2 13.761929076825089 8.007903854833165 0.0 0.0 0.0 0.0
176 2 14.738070362665399 8.755322589366235 0.0 0.0 0.0 0.0
177 2 15.93541447614781 8.522391118126176 0.0 0.0 0.0 0.0
178 2 17.196869679758194 8.780916257963153 0.0 0.0 0.0 0.0
179 2 18.481260341265326 8.60540381037444 0.0 0.0 0.0 0.0
180 1 19.543353006805248 8.333688858973574 0.0 0.0 0.0 0.0
181 1 0.49123150890864337 10.090208476051076 0.0 0.0 0.0 0.0
182 2 1.5379201870299641 9.793958236096472 0.0 0.0 0.0 0.0
183 2 2.722968327107767 9.559987931621455 0.0 0.0 0.0 0.0
184 2 4.007108862109258 9.279448696282786 0.0 0.0 0.0 0.0
185 1 5.120272990674435 9.201446307887366 0.0 0.0 0.0 0.0
186 2 6.055000417916418 9.804267022920916 0.0 0.0 0.0 0.0
187 1 6.90988471613865 9.126552691127662 0.0 0.0 0.0 0.0
188 1 8.169656389431745 9.45677197201189 0.0 0.0 0.0 0.0
189 1 8.836340872631947 9.537698136219753 0.0 0.0 0.0 0.0
190 1 9.370149407527624 9.150829895959694 0.0 0.0 0.0 0.0
191 1 9.804422117433075 9.645255410699647 0.0 0.0 0.0 0.0
192 1 10.971527703517344 9.49383472623717 0.0 0.0 0.0 0.0
193 2 12.057725340121907 9.230127558235706 0.0 0.0 0.0 0.0
194 1 13.095797193182102 8.907178290302676 0.0 0.0 0.0 0.0
195 1 13.715493900916774 9.124452464769039 0.0 0.0 0.0 0.0
196 2 15.166693126713202 9.917151620733884 0.0 0.0 0.0 0.0
197 1 16.35783262777726 9.530095937980473 0.0 0.0 0.0 0.0
198 1 16.977592813532045 9.8615750619782 0.0 0.0 0.0 0.0
199 2 18.10758902463813 9.811041615980892 0.0 0.0 0.0 0.0
200 2 19.380494406495657 9.429251362585784 0.0 0.0 0.0 0.0
201 1 0.8331580546847511 10.689070695479948 0.0 0.0 0.0 0.0
202 1 2.287263522233271 10.681529444847211 0.0 0.0 0.0 0.0
203 2 3.4366097879100144 10.504345050050079 0.0 0.0 0.0 0.0
204 1 4.493297226772649 10.318432010911527 0.0 0.0 0.0 0.0
205 1 4.96801859209305 9.859779440713913 0.0 0.0 0.0 0.0
206 1 6.4674530297824955 10.814794128680848 0.0 0.0 0.0 0.0
207 2 7.298039530248513 10.118493214212524 0.0 0.0 0.0 0.0
208 1 8.440791910270015 10.081138778777692 0.0 0.0 0.0 0.0
209 1 8.853494203102752 10.61767599627525 0.0 0.0 0.0 0.0
210 1 9.263996144978037 10.079798669136984 0.0 0.0 0.0 0.0
211 1 9.922720378882099 10.29015870877352 0.0 0.0 0.0 0.0
212 1 10.461409015724694 9.907757890221081 0.0 0.0 0.0 0.0
213 1 11.356118309439744 10.034670741835344 0.0 0.0 0.0 0.0
214 2 13.072535293701987 10.0376969594264 0.0 0.0 0.0 0.0
215 1 14.107010838644912 9.66065311043497 0.0 0.0 0.0 0.0
216 1 14.551693997976503 10.853130587040814 0.0 0.0 0.0 0.0
217 2 16.148301300161222 10.594433647142612 0.0 0.0 0.0 0.0
218 1 17.261598435982492 10.489875088962748 0.0 0.0 0.0 0.0
219 1 19.003967037331353 10.45021694854759 0.0 0.0 0.0 0.0
220 1 19.686284523522925 10.47228787339104 0.0 0.0 0.0 0.0
221 1 0.23009396360253773 11.058189691319138 0.0 0.0 0.0 0.0
222 1 1.5364144775139583 10.852785289094863 0.0 0.0 0.0 0.0
223 2 3.012184583209464 11.630593140134923 0.0 0.0 0.0 0.0
224 2 4.2851880020459205 11.423191659958052 0.0 0.0 0.0 0.0
225 2 5.408174901225005 10.928274200722717 0.0 0.0 0.0 0.0
226 1 6.401664605313384 11.490665794215394 0.0 0.0 0.0 0.0
227 1 7.005474456036043 11.185705383803182 0.0 0.0 0.0 0.0
228 1 7.666271068907019 11.124199367522383 0.0 0.0 0.0 0.0
229 1 8.196424310867801 10.70905641361706 0.0 0.0 0.0 0.0
230 2 9.676854198314848 11.313727114493043 0.0 0.0 0.0 0.0
231 1 10.513567943245407 11.998884854755879 0.0 0.0 0.0 0.0
232 2 10.84510540267997 10.964935637467809 0.0 0.0 0.0 0.0
233 2 12.11217097530898 10.844646894797258 0.0 0.0 0.0 0.0
234 1 13.807263254823766 10.923241695810958 0.0 0.0 0.0 0.0
235 1 14.13475102528671 10.330697546247139 0.0 0.0 0.0 0.0
236 1 15.173361984756799 11.147507239635793 0.0 0.0 0.0 0.0
237 2 16.1096216204218 11.804525799458359 0.0 0.0 0.0 0.0
238 1 17.07599861093597 11.126533471257185 0.0 0.0 0.0 0.0
239 2 18.19491029241023 11.189722175890939 0.0 0.0 0.0 0.0
240 1 19.307737846096565 11.046365150611193 0.0 0.0 0.0 0.0
241 2 1.0118945425033272 11.797477574174936 0.0 0.0 0.0 0.0
242 1 1.9951529077419858 11.326313213529248 0.0 0.0 0.0 0.0
243 1 3.181164393236276 12.697946422410082 0.0 0.0 0.0 0.0
244 1 3.795093831338223 12.388020062701521 0.0 0.0 0.0 0.0
245 2 4.913947862032595 12.567406612642197 0.0 0.0 0.0 0.0
246 2 6.212209792084965 12.567613307940935 0.0 0.0 0.0 0.0
247 2 7.407224603521722 12.181920736018828 0.0 0.0 0.0 0.0
248 1 8.355250580773767 12.784085091459264 0.0 0.0 0.0 0.0
249 2 8.552043442606342 11.724391496814434 0.0 0.0 0.0 0.0
250 2 9.48580471704731 12.535031676285099 0.0 0.0 0.0 0.0
251 1 10.702319018621038 12.618983812526057 0.0 0.0 0.0 0.0
252 2 11.678815111572284 12.06909724560017 0.0 0.0 0.0 0.0
253 2 13.035913325507977 11.74857210656066 0.0 0.0 0.0 0.0
254 1 14.15072633618456 13.020708078131701 0.0 0.0 0.0 0.0
255 2 14.317048031663255 11.920710924706823 0.0 0.0 0.0 0.0
256 2 15.261616013973562 12.75994809752303 0.0 0.0 0.0 0.0
257 2 17.36859869239317 12.142900167548925 0.0 0.0 0.0 0.0
258 1 18.468931452427555 12.322849021908851 0.0 0.0 0.0 0.0
259 1 18.11656910680665 12.915319489125014 0.0 0.0 0.0 0.0
260 2 19.555228910231154 12.11269135154172 0.0 0.0 0.0 0.0
261 2 0.8762434528424681 13.0122891562555 0.0 0.0 0.0 0.0
262 2 2.08082003741313 12.490021928763731 0.0 0.0 0.0 0.0
263 1 2.861375023841914 13.28805753673398 0.0 0.0 0.0 0.0
264 2 3.97649092650382 13.444092404684044 0.0 0.0 0.0 0.0
265 2 5.101209365087078 13.965544492015605 0.0 0.0 0.0 0.0
266 2 6.324016957572044 13.801879809950277 0.0 0.0 0.0 0.0
267 1 7.199275500919139 13.215909770813562 0.0 0.0 0.0 0.0
268 1 7.865793913316519 13.256613046112987 0.0 0.0 0.0 0.0
269 2 8.870219135167767 13.738027185648743 0.0 0.0 0.0 0.0
270 2 10.14649332183613 13.532218009929197 0.0 0.0 0.0 0.0
271 1 11.203783532774684 13.05876543263854 0.0 0.0 0.0 0.0
272 1 11.869826188221824 13.220606675370428 0.0 0.0 0.0 0.0
273 2 12.989909006108569 13.069069992119626 0.0 0.0 0.0 0.0
274 1 13.918401853288081 13.656600779205883 0.0 0.0 0.0 0.0
275 1 14.576504893421069 13.58530934045408 0.0 0.0 0.0 0.0
276 1 15.196793156562805 13.881650431370035 0.0 0.0 0.0 0.0
277 2 16.478728858321563 12.997420820383944 0.0 0.0 0.0 0.0
278 1 17.533759780451984 13.219309449258152 0.0 0.0 0.0 0.0
279 1 18.043049344715246 13.644374231152566 0.0 0.0 0.0 0.0
280 2 19.098377442063164 13.309109490310096 0.0 0.0 0.0 0.0
281 1 0.8411582279845946 14.12430883548811 0.0 0.0 0.0 0.0
282 2 1.8940225316182977 13.823474116950567 0.0 0.0 0.0 0.0
283 1 2.994135732084167 13.950400120008135 0.0 0.0 0.0 0.0
284 1 3.481636948841943 14.422245453533924 0.0 0.0 0.0 0.0
285 1 4.139404490028481 14.51287484507451 0.0 0.0 0.0 0.0
286 1 5.880811688536589 14.76969255673799 0.0 0.0 0.0 0.0
287 1 7.459956312034219 13.832435194634611 0.0 0.0 0.0 0.0
288 1 7.936330356976326 14.301121337036864 0.0 0.0 0.0 0.0
289 1 9.08090862652041 14.827338169822514 0.0 0.0 0.0 0.0
290 1 9.675474849154124 14.469437469930797 0.0 0.0 0.0 0.0
291 1 10.31177617994168 14.830973824955311 0.0 0.0 0.0 0.0
292 2 11.166743488167368 14.13414363970381 0.0 0.0 0.0 0.0
293 2 12.36293761153078 14.246525270966481 0.0 0.0 0.0 0.0
294 1 13.441396466382942 14.116472349937135 0.0 0.0 0.0 0.0
295 2 14.411291291742344 14.668355873003698 0.0 0.0 0.0 0.0
296 1 15.869513265743533 13.87735234276495 0.0 0.0 0.0 0.0
297 2 16.998263479360375 14.155892330563077 0.0 0.0 0.0 0.0
298 1 18.14131354282043 14.316162261207047 0.0 0.0 0.0 0.0
299 1 18.811514874990085 14.387018047367885 0.0 0.0 0.0 0.0
300 1 0.2340485900486301 13.877288756397055 0.0 0.0 0.0 0.0
301 2 19.775651527739754 14.924786161017984 0.0 0.0 0.0 0.0
302 2 1.2922680876619324 15.100634852902203 0.0 0.0 0.0 0.0
303 2 2.538137739020013 14.95203365153074 0.0 0.0 0.0 0.0
304 2 3.69391701524318 15.516842176228941 0.0 0.0 0.0 0.0
305 2 4.92045970891173 15.250421953619286 0.0 0.0 0.0 0.0
306 1 6.02500159789472 15.414797236709509 0.0 0.0 0.0 0.0
307 2 6.984432046792651 14.865476035678324 0.0 0.0 0.0 0.0
308 2 8.117877933804893 15.3807437491229 0.0 0.0 0.0 0.0
309 1 9.190035681525373 15.510868486359096 0.0 0.0 0.0 0.0
310 1 9.697390763500726 15.104467207959617 0.0 0.0 0.0 0.0
311 1 10.927343012230326 15.202686776874335 0.0 0.0 0.0 0.0
312 1 11.608000122097161 15.114245712705634 0.0 0.0 0.0 0.0
313 2 12.569819182708445 15.614336318890674 0.0 0.0 0.0 0.0
314 1 13.309714850681758 14.776921222890884 0.0 0.0 0.0 0.0
315 1 14.85753891905601 15.71502588056374 0.0 0.0 0.0 0.0
316 2 15.63375048039146 14.93766636255009 0.0 0.0 0.0 0.0
317 2 16.79680255024559 15.374981859658327 0.0 0.0 0.0 0.0
318 1 17.818038713868244 14.903716711266965 0.0 0.0 0.0 0.0
319 1 18.506999705922443 15.007197788274443 0.0 0.0 0.0 0.0
320 1 18.907262955606736 15.587471957541048 0.0 0.0 0.0 0.0
321 2 0.8266204514770865 16.268789054529986 0.0 0.0 0.0 0.0
322 2 2.0807618992281696 16.105907818396656 0.0 0.0 0.0 0.0
323 1 2.740783329619781 16.97040795350059 0.0 0.0 0.0 0.0
324 1 3.1373086729920394 16.43580562700476 0.0 0.0 0.0 0.0
325 2 4.678210402774684 16.45996859898742 0.0 0.0 0.0 0.0
326 1 5.71204277739548 16.00231685560374 0.0 0.0 0.0 0.0
327 2 6.820825291553396 16.170534808615127 0.0 0.0 0.0 0.0
328 1 7.900682265858191 16.43615747294194 0.0 0.0 0.0 0.0
329 2 8.985136456937772 16.566128542273646 0.0 0.0 0.0 0.0
330 2 10.201177556930988 16.022246435990088 0.0 0.0 0.0 0.0
331 1 10.677967549784618 16.99460576148904 0.0 0.0 0.0 0.0
332 2 11.462674733766313 16.20296397979296 0.0 0.0 0.0 0.0
333 1 12.592245747675138 16.753815171216278 0.0 0.0 0.0 0.0
334 2 13.783707531261074 15.751748741710413 0.0 0.0 0.0 0.0
335 1 14.69659889783637 16.400113618356105 0.0 0.0 0.0 0.0
336 2 15.799546312282342 16.25678705397651 0.0 0.0 0.0 0.0
337 1 16.886168672359535 16.46072557238275 0.0 0.0 0.0 0.0
338 2 17.876985957265973 15.992370998479036 0.0 0.0 0.0 0.0
339 1 18.916317039008682 16.265243168749155 0.0 0.0 0.0 0.0
340 1 19.511296923432365 15.967863600425588 0.0 0.0 0.0 0.0
341 1 0.6447649293333639 17.8083218245517 0.0 0.0 0.0 0.0
342 2 1.6789283905028398 17.3098895849247 0.0 0.0 0.0 0.0
343 1 2.7641071349257604 17.628030055136854 0.0 0.0 0.0 0.0
344 2 3.8024830039304978 17.313399754367047 0.0 0.0 0.0 0.0
345 1 4.864217137159089 17.578457768102126 0.0 0.0 0.0 0.0
346 1 5.7579467683056915 16.65803721800428 0.0 0.0 0.0 0.0
347 2 6.5270525147797755 17.401912777704652 0.0 0.0 0.0 0.0
348 1 7.569763084592405 17.000326435130123 0.0 0.0 0.0 0.0
349 1 8.822138190313748 17.648885449937147 0.0 0.0 0.0 0.0
350 1 9.494630081205495 17.535730107594212 0.0 0.0 0.0 0.0
351 1 9.99157172016589 17.083981482102196 0.0 0.0 0.0 0.0
352 2 11.693432620898935 17.422373832399394 0.0 0.0 0.0 0.0
353 2 12.844204022331398 17.96152009825075 0.0 0.0 0.0 0.0
354 2 13.714643933355944 16.96109788686172 0.0 0.0 0.0 0.0
355 1 15.17173139891861 17.235305711397796 0.0 0.0 0.0 0.0
356 1 14.606927735008016 17.67949751752632 0.0 0.0 0.0 0.0
357 2 16.321332855052674 17.39024368005781 0.0 0.0 0.0 0.0
358 2 17.571537903009954 17.322819904337496 0.0 0.0 0.0 0.0
359 1 18.567678052846105 16.848544131560196 0.0 0.0 0.0 0.0
360 2 19.651031436555094 17.057450319099424 0.0 0.0 0.0 0.0
361 1 19.804358721388937 18.163496299457385 0.0 0.0 0.0 0.0
362 2 1.4357508856501138 18.51870481739077 0.0 0.0 0.0 0.0
363 1 2.4452819988052337 18.19257609012588 0.0 0.0 0.0 0.0
364 2 3.4917149038578104 18.507930638797138 0.0 0.0 0.0 0.0
365 1 4.5339619987772775 18.162686947360516 0.0 0.0 0.0 0.0
366 1 5.450202761029604 17.26906186735202 0.0 0.0 0.0 0.0
367 2 6.935744326665612 18.553604247580072 0.0 0.0 0.0 0.0
368 1 7.572970228220699 17.653682623236477 0.0 0.0 0.0 0.0
369 1 8.184530856760915 17.36078912916169 0.0 0.0 0.0 0.0
370 2 9.387590397009026 18.61728672204218 0.0 0.0 0.0 0.0
371 2 10.478625219745647 18.061691278117355 0.0 0.0 0.0 0.0
372 2 11.536777022573535 18.64973181098114 0.0 0.0 0.0 0.0
373 1 12.539621424397286 19.05550706292171 0.0 0.0 0.0 0.0
374 2 13.615982097495918 19.02756388874568 0.0 0.0 0.0 0.0
375 1 13.958420102171887 17.993927574410645 0.0 0.0 0.0 0.0
376 1 14.49655553455547 18.363688660768588 0.0 0.0 0.0 0.0
377 2 15.567930858118995 18.317744214074654 0.0 0.0 0.0 0.0
378 1 16.95699617337699 18.306799072899906 0.0 0.0 0.0 0.0
379 1 18.665386859277074 17.515354542695317 0.0 0.0 0.0 0.0
380 1 19.130674711979594 18.022208801312605 0.0 0.0 0.0 0.0
381 1 0.39253421199660066 18.736814103796643 0.0 0.0 0.0 0.0
382 1 2.075150351454351 19.395384334174995 0.0 0.0 0.0 0.0
383 1 2.47007624035124 18.864556272044506 0.0 0.0 0.0 0.0
384 1 4.128831019438434 19.39211921330119 0.0 0.0 0.0 0.0
385 1 4.553401479829799 18.841048410863017 0.0 0.0 0.0 0.0
386 2 5.614294918109397 18.415443741818702 0.0 0.0 0.0 0.0
387 2 6.326915151561952 19.608224200104353 0.0 0.0 0.0 0.0
388 2 8.1736700732195 18.526152774196532 0.0 0.0 0.0 0.0
389 1 8.689922737708235 19.471676936877213 0.0 0.0 0.0 0.0
390 1 9.309124133944982 19.704270907196626 0.0 0.0 0.0 0.0
391 2 10.38959695770054 19.373016143442154 0.0 0.0 0.0 0.0
392 1 11.418819001539221 19.74377950659914 0.0 0.0 0.0 0.0
393 1 12.089366810995186 19.566777289880942 0.0 0.0 0.0 0.0
394 1 12.7332010074235 19.716363823752545 0.0 0.0 0.0 0.0
395 1 14.555280477903418 19.63501534810879 0.0 0.0 0.0 0.0
396 1 14.71753936663311 18.996307533123403 0.0 0.0 0.0 0.0
397 1 16.519471214168142 18.86341462912974 0.0 0.0 0.0 0.0
398 1 17.179993501028356 18.951076506055976 0.0 0.0 0.0 0.0
399 2 18.11221081244022 18.44448139767727 0.0 0.0 0.0 0.0
400 2 19.158647377788753 19.125419093047423 0.0 0.0 0.0 0.0
