ITEM: TIMESTEP
1
ITEM: NUMBER OF ATOMS
400
ITEM: BOX BOUNDS xy xz yz pp pp pp
0.0 19.7609 0.19526400796996674
0.0 19.7609 0.0
0.0 10.0 0.0
ITEM: ATOMS id type x y z vx vy vz
1 1 0.2403729816336802 0.8213637523250761 0.0 0.0 0.0 0.0
2 2 1.3644254979922008 0.7297574653986955 0.0 0.0 0.0 0.0
3 2 2.7591391040474984 1.2456692701760141 0.0 0.0 0.0 0.0
4 1 3.9252092816386766 1.426668347105874 0.0 0.0 0.0 0.0
5 2 4.828046370014656 0.6964712371036229 0.0 0.0 0.0 0.0
6 1 5.89590014953423 0.39318286021310306 0.0 0.0 0.0 0.0
7 1 6.411830659096594 0.8137598697555747 0.0 0.0 0.0 0.0
8 2 7.513233144943078 0.7248883904947752 0.0 0.0 0.0 0.0
9 1 8.563215049228122 1.0068124574101025 0.0 0.0 0.0 0.0
10 1 9.076316690533506 0.5226551452237402 0.0 0.0 0.0 0.0
11 2 10.177323728526554 0.7361933618374521 0.0 0.0 0.0 0.0
12 2 11.440258251721351 0.6838979718023425 0.0 0.0 0.0 0.0
13 2 12.82405312393552 0.6782201635360612 0.0 0.0 0.0 0.0
14 1 13.847057428797818 0.3326380189096027 0.0 0.0 0.0 0.0
15 1 14.475468563169164 0.5676313574552566 0.0 0.0 0.0 0.0
16 1 15.796106666961279 0.5349405008081944 0.0 0.0 0.0 0.0
17 1 16.443790335818772 0.7202868283797901 0.0 0.0 0.0 0.0
18 1 17.12328473139507 0.5135610702258424 0.0 0.0 0.0 0.0
19 2 18.213918961246833 0.7816928885535679 0.0 0.0 0.0 0.0
20 1 19.350233887999043 0.668698018684357 0.0 0.0 0.0 0.0
21 1 0.528380794071292 1.431560927921304 0.0 0.0 0.0 0.0
22 1 1.107776496294611 1.782328885376437 0.0 0.0 0.0 0.0
23 1 1.7693994070366936 1.735823827474113 0.0 0.0 0.0 0.0
24 1 3.553034028498239 1.9900164568625505 0.0 0.0 0.0 0.0
25 1 4.529245002868755 1.739224910534778 0.0 0.0 0.0 0.0
26 2 5.642558366564736 1.6215094707450641 0.0 0.0 0.0 0.0
27 1 6.708944954830544 1.4132568020325522 0.0 0.0 0.0 0.0
28 2 7.721260216075637 1.938436516434874 0.0 0.0 0.0 0.0
29 1 8.777882861673248 1.6855931836638884 0.0 0.0 0.0 0.0
30 1 9.207212793226567 1.186661046896282 0.0 0.0 0.0 0.0
31 1 10.834467322103945 1.633833379879497 0.0 0.0 0.0 0.0
32 2 11.930266029242379 1.7910967865467848 0.0 0.0 0.0 0.0
33 1 13.007677943085028 1.8310789944795558 0.0 0.0 0.0 0.0
34 1 13.587166960805872 1.5167726573776348 0.0 0.0 0.0 0.0
35 1 13.9539260732492 0.9829910173554502 0.0 0.0 0.0 0.0
36 1 15.134248418452026 0.5334137070941227 0.0 0.0 0.0 0.0
37 1 15.95698284649914 1.2069434218314887 0.0 0.0 0.0 0.0
38 2 17.058613943674573 1.5910777907667981 0.0 0.0 0.0 0.0
39 1 18.126533430355042 1.862484011201975 0.0 0.0 0.0 0.0
40 2 19.253812266370172 1.7721714768238779 0.0 0.0 0.0 0.0
41 1 0.2204355776478019 2.6820701356345293 0.0 0.0 0.0 0.0
42 1 0.5411779262065528 2.109803145979403 0.0 0.0 0.0 0.0
43 2 2.541444865541903 2.477755207637638 0.0 0.0 0.0 0.0
44 1 3.5979587770999566 2.6623610840948517 0.0 0.0 0.0 0.0
45 1 4.1537119080411085 2.2895790367235773 0.0 0.0 0.0 0.0
46 1 4.822258677958798 2.3484143544284293 0.0 0.0 0.0 0.0
47 2 6.613339815644379 2.4693334179496427 0.0 0.0 0.0 0.0
48 1 8.282611898546573 2.8746479931672306 0.0 0.0 0.0 0.0
49 1 8.74122150186088 2.3624031351144117 0.0 0.0 0.0 0.0
50 2 9.828865826433699 2.110937177973449 0.0 0.0 0.0 0.0
51 1 10.93774528457138 2.3153812255480912 0.0 0.0 0.0 0.0
52 1 11.45313659111989 2.7744481880796106 0.0 0.0 0.0 0.0
53 2 12.571345392933699 2.8596028695924347 0.0 0.0 0.0 0.0
54 2 13.859389251800968 2.560165902098552 0.0 0.0 0.0 0.0
55 2 14.874733677398867 1.6024278403626264 0.0 0.0 0.0 0.0
56 1 14.968990816735 2.7047153839384155 0.0 0.0 0.0 0.0
57 2 16.026255323620237 2.319116428173347 0.0 0.0 0.0 0.0
58 1 17.100727905306382 2.6681904441447273 0.0 0.0 0.0 0.0
59 1 17.73568300806593 2.430182550580006 0.0 0.0 0.0 0.0
60 1 18.411247761449847 2.4576176891754904 0.0 0.0 0.0 0.0
61 1 0.8763337813029883 2.704782137515586 0.0 0.0 0.0 0.0
62 1 1.4525816655872215 2.3506326235489965 0.0 0.0 0.0 0.0
63 1 2.7266718669426204 3.5341426419281228 0.0 0.0 0.0 0.0
64 1 3.329417500429629 3.286109984119127 0.0 0.0 0.0 0.0
65 2 4.40349114615189 3.380047420344728 0.0 0.0 0.0 0.0
66 2 5.590781066171838 3.120066591883081 0.0 0.0 0.0 0.0
67 1 7.048926841827052 3.4292281832082563 0.0 0.0 0.0 0.0
68 1 7.637281820529472 3.0981072076778355 0.0 0.0 0.0 0.0
69 1 8.19751351068396 3.54694024777139 0.0 0.0 0.0 0.0
70 2 9.287169397758841 3.314393464485918 0.0 0.0 0.0 0.0
71 2 10.52497048101429 3.3606719133423506 0.0 0.0 0.0 0.0
72 2 11.71121487909332 3.8522097147628602 0.0 0.0 0.0 0.0
73 1 12.820999148605164 3.930650160296843 0.0 0.0 0.0 0.0
74 1 13.403431824547058 3.5739605426722743 0.0 0.0 0.0 0.0
75 1 14.079196952395097 3.6451360167004365 0.0 0.0 0.0 0.0
76 1 14.652302970915322 3.313659421309555 0.0 0.0 0.0 0.0
77 1 16.734602013715307 3.2178156804524853 0.0 0.0 0.0 0.0
78 1 17.424092747899255 3.2549581496873636 0.0 0.0 0.0 0.0
79 1 18.044511361458053 3.0105867519747807 0.0 0.0 0.0 0.0
80 2 19.117497701186437 3.2753267703115325 0.0 0.0 0.0 0.0
81 2 0.47650046087619513 3.8399147411142476 0.0 0.0 0.0 0.0
82 2 1.664066280938208 3.4380198410936016 0.0 0.0 0.0 0.0
83 2 2.848731246958966 4.580901365234098 0.0 0.0 0.0 0.0
84 1 3.9072511261155753 4.351989030166817 0.0 0.0 0.0 0.0
85 1 4.561138647568331 4.495964396892401 0.0 0.0 0.0 0.0
86 1 5.154362842214799 4.170255728846336 0.0 0.0 0.0 0.0
87 2 6.239291833388272 4.163518581272911 0.0 0.0 0.0 0.0
88 2 7.500102690191643 4.3902462326574465 0.0 0.0 0.0 0.0
89 1 8.569083741934257 4.153723227804022 0.0 0.0 0.0 0.0
90 2 9.603599384720422 4.566963487777342 0.0 0.0 0.0 0.0
91 1 10.745488436401537 4.451483632058542 0.0 0.0 0.0 0.0
92 1 11.310927581952832 4.862452752981697 0.0 0.0 0.0 0.0
93 1 12.679930498751588 5.205363685826846 0.0 0.0 0.0 0.0
94 1 12.546278214848714 4.5534174417926625 0.0 0.0 0.0 0.0
95 2 13.662259278342448 4.6449001415402424 0.0 0.0 0.0 0.0
96 1 14.66542719641598 4.022815379755501 0.0 0.0 0.0 0.0
97 2 15.699682925260156 3.5376181042403254 0.0 0.0 0.0 0.0
98 2 17.0303199538162 4.275955357052999 0.0 0.0 0.0 0.0
99 2 18.225563318313547 4.062972194509573 0.0 0.0 0.0 0.0
100 2 19.120817796646822 4.941704778888585 0.0 0.0 0.0 0.0
101 1 0.47901898174915586 5.031452214188131 0.0 0.0 0.0 0.0
102 2 1.527234657136582 4.691451200672686 0.0 0.0 0.0 0.0
103 1 2.258731001144234 5.499081413762654 0.0 0.0 0.0 0.0
104 1 2.8950750955382296 5.6450893893877705 0.0 0.0 0.0 0.0
105 2 3.9705537448889068 5.459030369413365 0.0 0.0 0.0 0.0
106 2 5.349270167540397 5.262318526739687 0.0 0.0 0.0 0.0
107 2 6.661093192821054 5.304486092914437 0.0 0.0 0.0 0.0
108 2 8.349810745539502 5.270820569378106 0.0 0.0 0.0 0.0
109 1 9.351391639827094 5.67720513012508 0.0 0.0 0.0 0.0
110 1 9.65889738103405 6.283073166683425 0.0 0.0 0.0 0.0
111 2 10.425797546840558 5.518209029736665 0.0 0.0 0.0 0.0
112 1 11.520141337153326 5.5044085953960815 0.0 0.0 0.0 0.0
113 1 12.006131483682875 5.0046695053590655 0.0 0.0 0.0 0.0
114 1 13.216849645134758 5.62841570863559 0.0 0.0 0.0 0.0
115 1 14.393554555157516 5.422881426292041 0.0 0.0 0.0 0.0
116 1 14.77815355125459 4.709871713424651 0.0 0.0 0.0 0.0
117 2 15.902025942474946 4.725953511379355 0.0 0.0 0.0 0.0
118 1 16.854682253258662 5.3476824062013515 0.0 0.0 0.0 0.0
119 1 17.8434471939543 5.042867392402285 0.0 0.0 0.0 0.0
120 1 18.74757521990877 5.973721524494495 0.0 0.0 0.0 0.0
121 2 0.09226200184308168 6.088925339176476 0.0 0.0 0.0 0.0
122 2 1.3268346793848242 6.020183965645761 0.0 0.0 0.0 0.0
123 1 2.445227572043083 6.161160474198991 0.0 0.0 0.0 0.0
124 1 3.1356112124558377 6.242560792891457 0.0 0.0 0.0 0.0
125 1 3.6961522247601972 6.573297767511337 0.0 0.0 0.0 0.0
126 2 4.774803087728526 6.440800875939434 0.0 0.0 0.0 0.0
127 2 6.025066022854704 6.3520288655573935 0.0 0.0 0.0 0.0
128 2 7.407377891142612 6.2797504303284075 0.0 0.0 0.0 0.0
129 2 8.614991261380137 6.521890829322902 0.0 0.0 0.0 0.0
130 1 10.22527744813105 6.63348078242968 0.0 0.0 0.0 0.0
131 1 10.88204216240032 6.715934399469729 0.0 0.0 0.0 0.0
132 1 11.263535693198166 6.179822126529026 0.0 0.0 0.0 0.0
133 2 12.315145800806372 6.238012471500844 0.0 0.0 0.0 0.0
134 1 13.387761553000384 6.274834976591869 0.0 0.0 0.0 0.0
135 1 13.87046712733643 5.823296442397062 0.0 0.0 0.0 0.0
136 1 15.030631664732532 5.341394377142086 0.0 0.0 0.0 0.0
137 2 15.918549734827426 5.944375207212674 0.0 0.0 0.0 0.0
138 1 16.984993150769593 6.005643859811188 0.0 0.0 0.0 0.0
139 1 17.499881290524687 5.59671536937104 0.0 0.0 0.0 0.0
140 1 18.19729580059376 5.601507330802812 0.0 0.0 0.0 0.0
141 1 0.3052987585821275 7.200353769374663 0.0 0.0 0.0 0.0
142 1 0.9514711513683101 7.033660053559738 0.0 0.0 0.0 0.0
143 1 1.6055683335149384 7.262694484645979 0.0 0.0 0.0 0.0
144 2 2.738036808487347 7.245799744591058 0.0 0.0 0.0 0.0
145 2 4.100058035401893 7.576003835333756 0.0 0.0 0.0 0.0
146 2 5.485255943648039 7.499830146387285 0.0 0.0 0.0 0.0
147 2 6.751381727820908 7.3475686842366335 0.0 0.0 0.0 0.0
148 1 7.852272752600815 7.31403692918632 0.0 0.0 0.0 0.0
149 2 8.87302321002067 7.760266261019619 0.0 0.0 0.0 0.0
150 1 9.635100728179545 6.96506606235834 0.0 0.0 0.0 0.0
151 2 10.433568895819517 7.7353680423374875 0.0 0.0 0.0 0.0
152 2 11.708032818867627 7.437812307869432 0.0 0.0 0.0 0.0
153 2 12.942403969920425 7.289866911699871 0.0 0.0 0.0 0.0
154 1 13.83694021875325 6.747937367829253 0.0 0.0 0.0 0.0
155 1 14.109376030354458 7.3638758469908145 0.0 0.0 0.0 0.0
156 2 14.828525777544385 6.444134996005015 0.0 0.0 0.0 0.0
157 2 15.81125654389093 7.236363789604498 0.0 0.0 0.0 0.0
158 1 16.74372968882535 6.622875981760725 0.0 0.0 0.0 0.0
159 2 17.84631496232566 6.657672028600978 0.0 0.0 0.0 0.0
160 2 19.012448179964647 7.019307820777223 0.0 0.0 0.0 0.0
161 2 0.866324437925038 8.131555650384822 0.0 0.0 0.0 0.0
162 2 2.0758165986079162 8.345644484034471 0.0 0.0 0.0 0.0
163 1 3.2008158653558314 8.243554733386354 0.0 0.0 0.0 0.0
164 1 4.36762020356295 8.593440249842272 0.0 0.0 0.0 0.0
165 1 5.010229691226513 8.448095120413063 0.0 0.0 0.0 0.0
166 1 5.653163273720658 8.667587400579349 0.0 0.0 0.0 0.0
167 1 6.252047669104881 8.312154951681723 0.0 0.0 0.0 0.0
168 2 7.469162694930316 8.356942666104795 0.0 0.0 0.0 0.0
169 1 8.530326350718987 8.799621323638574 0.0 0.0 0.0 0.0
170 2 9.652326039343478 8.764250093163966 0.0 0.0 0.0 0.0
171 1 10.740419114146695 8.812081124603095 0.0 0.0 0.0 0.0
172 1 11.294829538877151 8.457872108112737 0.0 0.0 0.0 0.0
173 1 12.550959158261426 8.273860160553747 0.0 0.0 0.0 0.0
174 1 13.239447670000875 8.337138378865445 0.0 0.0 0.0 0.0
175 1 13.81728430720256 7.989520537968268 0.0 0.0 0.0 0.0
176 2 14.906664944219484 8.137711366427672 0.0 0.0 0.0 0.0
177 2 16.143724032323618 8.509151409004582 0.0 0.0 0.0 0.0
178 2 17.004986904564294 7.64947610006894 0.0 0.0 0.0 0.0
179 2 18.174516294319915 7.935953924697531 0.0 0.0 0.0 0.0
180 2 19.395553855691595 8.197336480319978 0.0 0.0 0.0 0.0
181 1 1.2044391868198054 9.156549428421133 0.0 0.0 0.0 0.0
182 2 2.1832674958105436 9.648771945572648 0.0 0.0 0.0 0.0
183 1 3.0244732663608462 8.894655542763008 0.0 0.0 0.0 0.0
184 1 3.688298834895652 8.720897967902102 0.0 0.0 0.0 0.0
185 1 4.168738844811501 9.20385479231919 0.0 0.0 0.0 0.0
186 1 4.836272684444848 9.085713103954307 0.0 0.0 0.0 0.0
187 2 6.537182115020539 9.357040873364687 0.0 0.0 0.0 0.0
188 2 7.742546044940385 9.552838658622877 0.0 0.0 0.0 0.0
189 1 8.79964818081705 9.435176619421888 0.0 0.0 0.0 0.0
190 1 9.303210876771717 9.85892623890891 0.0 0.0 0.0 0.0
191 2 10.371563509546549 9.838001880174124 0.0 0.0 0.0 0.0
192 1 11.954718076987866 8.543911071495847 0.0 0.0 0.0 0.0
193 2 12.796812773404591 9.328189341745516 0.0 0.0 0.0 0.0
194 1 13.562693405324469 10.128291413476456 0.0 0.0 0.0 0.0
195 2 14.037891026775265 9.107990392081483 0.0 0.0 0.0 0.0
196 2 15.266969981466737 9.396131209453975 0.0 0.0 0.0 0.0
197 2 16.703861939333176 9.624064315871669 0.0 0.0 0.0 0.0
198 1 17.317399301713625 8.700738806565 0.0 0.0 0.0 0.0
199 2 18.347178113063368 9.153938147697893 0.0 0.0 0.0 0.0
200 2 19.836766340332613 9.363655449868387 0.0 0.0 0.0 0.0
201 1 1.0662209793750723 9.814172482336167 0.0 0.0 0.0 0.0
202 2 1.558454127203287 10.774896972301603 0.0 0.0 0.0 0.0
203 1 2.6180471623656607 10.691970967783421 0.0 0.0 0.0 0.0
204 2 3.392409902783583 9.920613763705846 0.0 0.0 0.0 0.0
205 2 4.664533290328934 10.159328628201003 0.0 0.0 0.0 0.0
206 1 5.449057948891068 9.350331122047406 0.0 0.0 0.0 0.0
207 2 5.853883661073342 10.412022408983145 0.0 0.0 0.0 0.0
208 2 7.085507680648437 10.56538150714503 0.0 0.0 0.0 0.0
209 2 8.472854631000576 10.56233029992231 0.0 0.0 0.0 0.0
210 2 9.695608512642774 10.910335593237614 0.0 0.0 0.0 0.0
211 2 11.152257008255257 10.818143840196177 0.0 0.0 0.0 0.0
212 2 11.571386797065351 9.56465177552093 0.0 0.0 0.0 0.0
213 2 12.455607641593822 10.503983490333367 0.0 0.0 0.0 0.0
214 1 13.536604394490269 10.803165887356098 0.0 0.0 0.0 0.0
215 2 14.633174147648228 10.504703876307229 0.0 0.0 0.0 0.0
216 1 15.679369672576732 10.963675831660433 0.0 0.0 0.0 0.0
217 1 15.837309133291223 10.321080854611681 0.0 0.0 0.0 0.0
218 2 16.826395369390223 10.866124084190497 0.0 0.0 0.0 0.0
219 1 17.723469597759397 10.079705244642078 0.0 0.0 0.0 0.0
220 2 18.90872398562251 10.253244072632873 0.0 0.0 0.0 0.0
221 2 0.31821349508052776 10.680404428682122 0.0 0.0 0.0 0.0
222 1 2.6129389972198482 11.396246473459898 0.0 0.0 0.0 0.0
223 1 3.192089287892492 11.00938504142921 0.0 0.0 0.0 0.0
224 1 3.859008111447314 10.90173599641334 0.0 0.0 0.0 0.0
225 1 4.456711037345288 11.208262100838576 0.0 0.0 0.0 0.0
226 1 5.137267683395725 11.245196116819631 0.0 0.0 0.0 0.0
227 1 6.383435093790793 11.384823729943866 0.0 0.0 0.0 0.0
228 2 7.76164109821829 11.582069194377732 0.0 0.0 0.0 0.0
229 2 8.943348036755248 11.93580370326521 0.0 0.0 0.0 0.0
230 1 10.439170900533322 11.68278902264702 0.0 0.0 0.0 0.0
231 1 11.046173762648309 11.911006261496917 0.0 0.0 0.0 0.0
232 2 12.089399283428987 11.694365963757164 0.0 0.0 0.0 0.0
233 1 13.10971682938279 12.045703668719598 0.0 0.0 0.0 0.0
234 1 13.131856333457927 11.357753690430632 0.0 0.0 0.0 0.0
235 2 14.143831653979094 11.733715896138975 0.0 0.0 0.0 0.0
236 1 15.209884389642227 11.446201349225532 0.0 0.0 0.0 0.0
237 2 16.19879233295308 11.938312250168405 0.0 0.0 0.0 0.0
238 1 17.30055990922175 11.90883316503902 0.0 0.0 0.0 0.0
239 2 18.057638584738346 11.121369652975664 0.0 0.0 0.0 0.0
240 1 19.172989580027494 11.358887877898777 0.0 0.0 0.0 0.0
241 2 0.36511637072524616 11.991055107548448 0.0 0.0 0.0 0.0
242 2 1.6383874266198097 11.979200469691278 0.0 0.0 0.0 0.0
243 1 2.6651942092349215 12.281387957999295 0.0 0.0 0.0 0.0
244 2 3.6757247209062283 11.97315156176681 0.0 0.0 0.0 0.0
245 1 4.743885142722203 11.797763919366894 0.0 0.0 0.0 0.0
246 2 5.712638323738841 12.24022472591239 0.0 0.0 0.0 0.0
247 1 6.757133883894266 11.941047386026863 0.0 0.0 0.0 0.0
248 2 8.025376647264704 12.787879680957742 0.0 0.0 0.0 0.0
249 1 9.126144086736147 13.037852940161486 0.0 0.0 0.0 0.0
250 1 9.975968416822006 12.152450939324538 0.0 0.0 0.0 0.0
251 1 10.584234995018583 12.394562984671419 0.0 0.0 0.0 0.0
252 2 11.576908642769569 12.851496944381669 0.0 0.0 0.0 0.0
253 1 12.720882678841985 12.598729568678648 0.0 0.0 0.0 0.0
254 1 13.40864823992039 12.653506447333953 0.0 0.0 0.0 0.0
255 1 15.131193604139298 12.118596969310795 0.0 0.0 0.0 0.0
256 1 15.427799134962132 12.700879979965396 0.0 0.0 0.0 0.0
257 1 17.077902298219197 12.549285047899925 0.0 0.0 0.0 0.0
258 1 17.747515856436937 12.429833518716057 0.0 0.0 0.0 0.0
259 1 18.34866230792608 12.129569983467874 0.0 0.0 0.0 0.0
260 1 19.016686513265167 12.036149272712587 0.0 0.0 0.0 0.0
261 1 1.0921858052170246 12.906356164718531 0.0 0.0 0.0 0.0
262 1 1.722999703121067 13.103919771139392 0.0 0.0 0.0 0.0
263 1 2.331672395688459 12.85396570044775 0.0 0.0 0.0 0.0
264 2 3.3716835868415567 13.174538849535686 0.0 0.0 0.0 0.0
265 2 4.548574534602641 12.873637415432377 0.0 0.0 0.0 0.0
266 2 5.593437396775187 13.466170785695317 0.0 0.0 0.0 0.0
267 2 6.779945799571885 13.036047248277852 0.0 0.0 0.0 0.0
268 2 7.671240742159994 13.975448744331974 0.0 0.0 0.0 0.0
269 1 8.739995064998087 13.611786554687729 0.0 0.0 0.0 0.0
270 1 9.788110110846079 12.807025421647277 0.0 0.0 0.0 0.0
271 1 10.459183779005077 13.059144315237395 0.0 0.0 0.0 0.0
272 1 12.182671043974143 13.78010887038515 0.0 0.0 0.0 0.0
273 1 12.576295108796335 13.244037317989122 0.0 0.0 0.0 0.0
274 1 14.06698155239049 12.826859232190467 0.0 0.0 0.0 0.0
275 1 14.749029675571755 12.705582699282301 0.0 0.0 0.0 0.0
276 1 15.158305982399458 13.29751185946173 0.0 0.0 0.0 0.0
277 2 16.269218754652748 13.376628415657155 0.0 0.0 0.0 0.0
278 2 17.505686379099977 13.528524631480282 0.0 0.0 0.0 0.0
279 2 18.656299185994513 13.135706295365816 0.0 0.0 0.0 0.0
280 2 19.85062771153956 13.244108781811462 0.0 0.0 0.0 0.0
281 2 1.1639752005435882 14.043431421263653 0.0 0.0 0.0 0.0
282 1 1.889660457587996 14.889452801020052 0.0 0.0 0.0 0.0
283 2 2.4344473231755717 13.957961986871387 0.0 0.0 0.0 0.0
284 1 3.601698267675011 14.228341040371278 0.0 0.0 0.0 0.0
285 1 4.284335854045621 13.991452961201013 0.0 0.0 0.0 0.0
286 2 5.283599055259303 14.643208399614428 0.0 0.0 0.0 0.0
287 2 6.478924824121111 14.305999053598907 0.0 0.0 0.0 0.0
288 2 7.25939397136512 15.239016336813792 0.0 0.0 0.0 0.0
289 1 8.316279306690387 14.846151221503582 0.0 0.0 0.0 0.0
290 1 8.723881052086767 14.288337957310894 0.0 0.0 0.0 0.0
291 2 9.79131945506999 13.938926604606184 0.0 0.0 0.0 0.0
292 2 11.093517687093819 14.00653039721609 0.0 0.0 0.0 0.0
293 2 13.495025579713865 13.780376286276681 0.0 0.0 0.0 0.0
294 1 14.494896048324087 13.342580635207097 0.0 0.0 0.0 0.0
295 2 14.92572253204172 14.358689504893055 0.0 0.0 0.0 0.0
296 1 16.085273031205467 14.505615535568259 0.0 0.0 0.0 0.0
297 1 16.76106929140772 14.36586082506528 0.0 0.0 0.0 0.0
298 1 17.403372299043397 14.591377198858613 0.0 0.0 0.0 0.0
299 2 18.49264857622723 14.368248384573135 0.0 0.0 0.0 0.0
300 2 19.751019763872982 14.484232391315258 0.0 0.0 0.0 0.0
301 2 0.8939130662002049 15.334359480630098 0.0 0.0 0.0 0.0
302 1 2.0347915492415196 15.539138896020065 0.0 0.0 0.0 0.0
303 1 2.5512071567879304 15.089660700506549 0.0 0.0 0.0 0.0
304 1 3.163050475724762 14.754161888301223 0.0 0.0 0.0 0.0
305 2 4.18398158377319 15.152051250152544 0.0 0.0 0.0 0.0
306 2 5.206503917279195 15.88258241099683 0.0 0.0 0.0 0.0
307 1 6.173410687893539 15.381785614956993 0.0 0.0 0.0 0.0
308 2 7.572619971380874 16.43601707738731 0.0 0.0 0.0 0.0
309 1 8.2944572831844 15.517117809771507 0.0 0.0 0.0 0.0
310 2 9.36235398554394 15.178258207976233 0.0 0.0 0.0 0.0
311 1 10.409156271143742 14.866237288375396 0.0 0.0 0.0 0.0
312 2 11.416687268536444 15.30622801031638 0.0 0.0 0.0 0.0
313 2 12.537294507735261 14.798639080748726 0.0 0.0 0.0 0.0
314 2 13.739152083056787 15.000336802696532 0.0 0.0 0.0 0.0
315 2 14.769504365571466 15.62134828519145 0.0 0.0 0.0 0.0
316 1 15.741992542365754 15.093890141696523 0.0 0.0 0.0 0.0
317 2 16.77316699585568 15.47003109292591 0.0 0.0 0.0 0.0
318 2 17.99480734870637 15.503007982599595 0.0 0.0 0.0 0.0
319 1 19.079343469619413 15.312027970460996 0.0 0.0 0.0 0.0
320 1 19.615820575303772 15.743563725392391 0.0 0.0 0.0 0.0
321 2 0.6897804177443495 16.56985647857583 0.0 0.0 0.0 0.0
322 1 1.6776486310987677 16.100590211198792 0.0 0.0 0.0 0.0
323 2 2.7345145865684204 16.405832440628664 0.0 0.0 0.0 0.0
324 1 3.1433264045455447 15.422969323517286 0.0 0.0 0.0 0.0
325 1 4.9673217102955025 16.957623277326313 0.0 0.0 0.0 0.0
326 1 5.6288943534234335 16.865938929059247 0.0 0.0 0.0 0.0
327 1 6.441582508930643 16.054633645389785 0.0 0.0 0.0 0.0
328 1 7.6424765979374545 17.584441584543438 0.0 0.0 0.0 0.0
329 1 8.664029836525806 16.05402603381648 0.0 0.0 0.0 0.0
330 1 9.299717323854894 16.26991392576888 0.0 0.0 0.0 0.0
331 2 10.36091558388847 15.980835382057174 0.0 0.0 0.0 0.0
332 1 11.36882390366477 16.41634349273719 0.0 0.0 0.0 0.0
333 2 12.437969146224116 16.140544183136207 0.0 0.0 0.0 0.0
334 2 13.694950225988524 16.318541984621557 0.0 0.0 0.0 0.0
335 2 14.82761467451209 16.898083572632892 0.0 0.0 0.0 0.0
336 2 15.821377433582215 16.202921778799677 0.0 0.0 0.0 0.0
337 1 16.814059757401886 16.58783689672743 0.0 0.0 0.0 0.0
338 1 17.431740771094752 16.411200832883537 0.0 0.0 0.0 0.0
339 1 18.951144541287615 15.954373570697161 0.0 0.0 0.0 0.0
340 1 19.401494881723337 16.406273655533905 0.0 0.0 0.0 0.0
341 1 0.7841403357223949 17.667302238497065 0.0 0.0 0.0 0.0
342 2 1.7800206892376325 17.18586573810803 0.0 0.0 0.0 0.0
343 2 2.9633220447903605 17.66883874306876 0.0 0.0 0.0 0.0
344 2 3.9931490863782146 16.41589253887258 0.0 0.0 0.0 0.0
345 2 4.218953143491947 17.741852091677533 0.0 0.0 0.0 0.0
346 2 5.498763332841667 17.9519410434535 0.0 0.0 0.0 0.0
347 2 6.6092592044931635 17.29732390833085 0.0 0.0 0.0 0.0
348 1 7.328927035145911 18.18670620500974 0.0 0.0 0.0 0.0
349 2 8.616660384636566 17.126591214982284 0.0 0.0 0.0 0.0
350 1 9.666808661326819 16.82583443195716 0.0 0.0 0.0 0.0
351 2 10.659689962011926 17.27380729019231 0.0 0.0 0.0 0.0
352 1 11.71270449810311 16.996102238923488 0.0 0.0 0.0 0.0
353 1 12.312598108669809 17.276125893402067 0.0 0.0 0.0 0.0
354 1 12.962264061038493 17.137366829627435 0.0 0.0 0.0 0.0
355 2 13.898060609201657 17.705681770461844 0.0 0.0 0.0 0.0
356 2 15.059962884027609 18.119981794818585 0.0 0.0 0.0 0.0
357 2 16.12944295759158 17.413562310291844 0.0 0.0 0.0 0.0
358 1 17.26658992392378 17.087940880298536 0.0 0.0 0.0 0.0
359 2 18.38506509300746 16.909187116288724 0.0 0.0 0.0 0.0
360 2 19.49333715450269 17.470451701901222 0.0 0.0 0.0 0.0
361 1 0.4891483571198965 18.297510205253573 0.0 0.0 0.0 0.0
362 2 1.5776301894407219 18.38393517460472 0.0 0.0 0.0 0.0
363 1 2.600927665018355 18.701868181261304 0.0 0.0 0.0 0.0
364 2 3.6650047820492127 18.88765872386952 0.0 0.0 0.0 0.0
365 1 4.732830644027426 18.720364220235226 0.0 0.0 0.0 0.0
366 1 5.307506750862918 19.063529309044114 0.0 0.0 0.0 0.0
367 2 6.412404823908457 18.81398048859299 0.0 0.0 0.0 0.0
368 1 7.5076328553156815 18.86197849017213 0.0 0.0 0.0 0.0
369 2 8.442127890350195 18.340619856852488 0.0 0.0 0.0 0.0
370 2 9.5789708258275 17.916758819275564 0.0 0.0 0.0 0.0
371 1 10.528317976135446 18.39955604254203 0.0 0.0 0.0 0.0
372 2 11.587783040764288 18.131504107866625 0.0 0.0 0.0 0.0
373 2 12.813850957548366 18.25910708235653 0.0 0.0 0.0 0.0
374 1 13.764563287394386 18.79648237893116 0.0 0.0 0.0 0.0
375 1 14.409670731359295 18.99139131661446 0.0 0.0 0.0 0.0
376 1 15.675453679426637 19.001464342184477 0.0 0.0 0.0 0.0
377 1 16.10485588253934 18.48463988997784 0.0 0.0 0.0 0.0
378 2 17.187289845818583 18.193783206596308 0.0 0.0 0.0 0.0
379 2 18.517867868244334 18.24175449342772 0.0 0.0 0.0 0.0
380 1 19.62987937347229 18.547658649262285 0.0 0.0 0.0 0.0
381 2 0.5538926458154728 19.459961758020647 0.0 0.0 0.0 0.0
382 1 1.6473407536078872 19.434117953837095 0.0 0.0 0.0 0.0
383 2 2.4714184694379995 0.028348098467322065 0.0 0.0 0.0 0.0
384 2 3.6621147895268447 0.3601545978876028 0.0 0.0 0.0 0.0
385 1 4.697892243019689 19.39146181132732 0.0 0.0 0.0 0.0
386 1 5.688787331991293 19.613131089859575 0.0 0.0 0.0 0.0
387 1 6.54037136826655 0.13708518771997488 0.0 0.0 0.0 0.0
388 1 7.293180565985433 19.489667200827224 0.0 0.0 0.0 0.0
389 2 8.45191642096693 19.55274411118734 0.0 0.0 0.0 0.0
390 2 9.697108446360797 19.228547855711625 0.0 0.0 0.0 0.0
391 2 10.960118081029558 19.38296374749822 0.0 0.0 0.0 0.0
392 2 12.199088107708034 19.337179712214304 0.0 0.0 0.0 0.0
393 1 13.273891687269371 19.288762287673528 0.0 0.0 0.0 0.0
394 1 13.912933832082622 19.45007745976677 0.0 0.0 0.0 0.0
395 1 14.559628437909668 19.66522397743612 0.0 0.0 0.0 0.0
396 1 15.056187696339412 19.230869278444686 0.0 0.0 0.0 0.0
397 1 15.586320754696814 19.677683988875316 0.0 0.0 0.0 0.0
398 2 16.659989335056622 19.40628274537046 0.0 0.0 0.0 0.0
399 2 17.865273239231858 19.320367614035263 0.0 0.0 0.0 0.0
400 2 19.06954435703658 19.460180656626694 0.0 0.0 0.0 0.0
