ITEM: TIMESTEP
1
ITEM: NUMBER OF ATOMS
400
ITEM: BOX BOUNDS xy xz yz pp pp pp
0.0 19.7609 0.35312172451569923
0.0 19.7609 0.0
0.0 10.0 0.0
ITEM: ATOMS id type x y z vx vy vz
1 1 0.5265192083195315 0.6556919789960357 0.0 0.0 0.0 0.0
2 2 1.8015606931251384 19.800668393293666 0.0 0.0 0.0 0.0
3 2 2.6710529689466505 0.09165343992002123 0.0 0.0 0.0 0.0
4 2 3.7721780519341253 0.7148219190094078 0.0 0.0 0.0 0.0
5 1 4.705380132644865 0.21941202249192437 0.0 0.0 0.0 0.0
6 1 5.338852702938901 0.32535186449443176 0.0 0.0 0.0 0.0
7 1 5.730014039811675 0.8279141282153516 0.0 0.0 0.0 0.0
8 1 7.773345260491281 0.7470295125508715 0.0 0.0 0.0 0.0
9 1 8.407335871994654 0.9349660000517617 0.0 0.0 0.0 0.0
10 2 9.418857622397347 0.5435745947385139 0.0 0.0 0.0 0.0
11 1 10.436987910103506 0.8886640049462586 0.0 0.0 0.0 0.0
12 1 11.06116924087848 0.6760518158321016 0.0 0.0 0.0 0.0
13 2 12.104511898196005 19.591873789016947 0.0 0.0 0.0 0.0
14 2 12.979539142308072 0.1853333581974227 0.0 0.0 0.0 0.0
15 2 14.186816384403022 0.7128407721418144 0.0 0.0 0.0 0.0
16 1 15.299021421318843 19.69623584173845 0.0 0.0 0.0 0.0
17 2 15.941238773656613 0.3288259658603866 0.0 0.0 0.0 0.0
18 2 17.12534981881127 0.6240349118997276 0.0 0.0 0.0 0.0
19 2 18.263662418425326 1.0496548026273946 0.0 0.0 0.0 0.0
20 2 19.248664411276238 0.35022521161229964 0.0 0.0 0.0 0.0
21 2 1.066198160395448 1.619656684123668 0.0 0.0 0.0 0.0
22 1 2.0397517281044806 1.0084269571136832 0.0 0.0 0.0 0.0
23 1 2.748978894716818 1.1584194932476182 0.0 0.0 0.0 0.0
24 1 3.2346192024964644 1.6408895567481478 0.0 0.0 0.0 0.0
25 1 4.95385536517313 0.9000840674467527 0.0 0.0 0.0 0.0
26 2 5.584749303834797 1.8759164752520912 0.0 0.0 0.0 0.0
27 2 6.752860328351322 1.1416877112953274 0.0 0.0 0.0 0.0
28 2 7.805986598673197 1.8494756411380913 0.0 0.0 0.0 0.0
29 1 8.816056878959849 1.4662647098412402 0.0 0.0 0.0 0.0
30 1 9.436907937354643 1.6890489980014607 0.0 0.0 0.0 0.0
31 1 10.04682283367316 1.4410499192913082 0.0 0.0 0.0 0.0
32 2 11.064110352174284 1.7744134515975816 0.0 0.0 0.0 0.0
33 2 12.071677474513082 1.0469756548515385 0.0 0.0 0.0 0.0
34 2 13.214811017255295 1.4725843665934157 0.0 0.0 0.0 0.0
35 1 14.25598421586139 1.8449555582922883 0.0 0.0 0.0 0.0
36 2 15.25099673951348 1.3854789238856504 0.0 0.0 0.0 0.0
37 1 16.33486334662532 1.3597481510829696 0.0 0.0 0.0 0.0
38 2 17.29293203697825 1.9007385050574255 0.0 0.0 0.0 0.0
39 1 18.403027872748243 2.0903747433574673 0.0 0.0 0.0 0.0
40 2 19.46421811621869 1.6186777961832377 0.0 0.0 0.0 0.0
41 1 0.37475162625465275 2.5011613607749235 0.0 0.0 0.0 0.0
42 2 2.238756176682641 2.098273439998177 0.0 0.0 0.0 0.0
43 1 3.024675277388791 2.8516623384548727 0.0 0.0 0.0 0.0
44 1 3.3538490561085816 2.291679872418653 0.0 0.0 0.0 0.0
45 2 4.355543908024372 1.8958337991207939 0.0 0.0 0.0 0.0
46 1 5.083230439542587 2.86177492713322 0.0 0.0 0.0 0.0
47 2 6.716243292283857 2.3953818913813794 0.0 0.0 0.0 0.0
48 1 7.683598481752765 2.966922550905609 0.0 0.0 0.0 0.0
49 1 8.509896700536336 2.6469930693916073 0.0 0.0 0.0 0.0
50 1 8.94519504664751 2.1434747380604096 0.0 0.0 0.0 0.0
51 1 9.945409825579638 2.124584353122556 0.0 0.0 0.0 0.0
52 2 10.693152270163335 2.911631609280168 0.0 0.0 0.0 0.0
53 1 12.073518617064856 2.143349992670915 0.0 0.0 0.0 0.0
54 2 12.998603614518494 2.667705404824708 0.0 0.0 0.0 0.0
55 2 14.167466654768498 2.9335960882201157 0.0 0.0 0.0 0.0
56 2 15.346649581261198 2.6481971250477985 0.0 0.0 0.0 0.0
57 1 16.209781623579925 2.012062761742097 0.0 0.0 0.0 0.0
58 1 16.452282992996487 2.660008919758235 0.0 0.0 0.0 0.0
59 1 18.055508376951238 2.6552778546789866 0.0 0.0 0.0 0.0
60 2 19.087606214687668 2.9034315778609545 0.0 0.0 0.0 0.0
61 1 0.35688012659604534 3.186253399758664 0.0 0.0 0.0 0.0
62 2 1.3870946669038444 2.960269731213793 0.0 0.0 0.0 0.0
63 1 2.432937910596711 3.1782819483982325 0.0 0.0 0.0 0.0
64 1 3.7334401161644326 2.874648580649997 0.0 0.0 0.0 0.0
65 2 4.46086958847464 3.779676297666255 0.0 0.0 0.0 0.0
66 1 5.768183924979924 2.9511666747848855 0.0 0.0 0.0 0.0
67 2 6.686363364958706 3.6042376096861224 0.0 0.0 0.0 0.0
68 1 7.767468696111 3.6433101542947712 0.0 0.0 0.0 0.0
69 1 8.31033636919438 3.2647624344628228 0.0 0.0 0.0 0.0
70 2 9.456257339945868 3.1815123834670156 0.0 0.0 0.0 0.0
71 1 10.330566479619598 3.9227925846242804 0.0 0.0 0.0 0.0
72 1 11.024774753165207 3.9377402855664574 0.0 0.0 0.0 0.0
73 2 11.908649215571135 3.257607048308591 0.0 0.0 0.0 0.0
74 2 13.276179191793082 3.8555316509525874 0.0 0.0 0.0 0.0
75 1 14.37979720482387 3.998065276176789 0.0 0.0 0.0 0.0
76 1 14.973483154040393 3.6746614618795865 0.0 0.0 0.0 0.0
77 2 16.076321917994193 3.7556621909818877 0.0 0.0 0.0 0.0
78 2 17.285020578945097 3.3873984873908847 0.0 0.0 0.0 0.0
79 1 19.095759591323706 4.005735411571609 0.0 0.0 0.0 0.0
80 1 19.74765492746743 3.732304797385738 0.0 0.0 0.0 0.0
81 1 0.6781267898203855 3.795885840515721 0.0 0.0 0.0 0.0
82 2 1.4397008667382618 4.651424608741685 0.0 0.0 0.0 0.0
83 1 2.131299427693537 3.797472488766506 0.0 0.0 0.0 0.0
84 2 3.225405745267117 3.8915921683119974 0.0 0.0 0.0 0.0
85 1 3.8430796706370494 4.737933917053147 0.0 0.0 0.0 0.0
86 1 5.535051765592686 3.5668989697198246 0.0 0.0 0.0 0.0
87 1 7.036092869455852 4.668473060299313 0.0 0.0 0.0 0.0
88 1 7.573346213652171 4.285759637474297 0.0 0.0 0.0 0.0
89 2 8.663986618570808 4.289129752523421 0.0 0.0 0.0 0.0
90 1 9.766798918826352 4.275312322169302 0.0 0.0 0.0 0.0
91 2 10.676015335930824 4.962858829797806 0.0 0.0 0.0 0.0
92 1 11.586811303470288 4.307755644264625 0.0 0.0 0.0 0.0
93 1 12.26792628294884 4.319304162350816 0.0 0.0 0.0 0.0
94 2 13.10647975302832 5.064427743539761 0.0 0.0 0.0 0.0
95 1 14.19056029765268 5.267988600349286 0.0 0.0 0.0 0.0
96 1 14.098368178849409 4.603014508376791 0.0 0.0 0.0 0.0
97 2 15.193085295808903 4.738333603381367 0.0 0.0 0.0 0.0
98 2 17.501418824615225 4.598455013899839 0.0 0.0 0.0 0.0
99 1 18.395752449064833 3.877867206043155 0.0 0.0 0.0 0.0
100 2 0.16974673197906154 4.761473706026244 0.0 0.0 0.0 0.0
101 1 0.8471338625973999 5.60756209218333 0.0 0.0 0.0 0.0
102 2 1.8577097733230807 5.950298343861238 0.0 0.0 0.0 0.0
103 2 2.7460595891808004 5.047257466507987 0.0 0.0 0.0 0.0
104 2 3.845835439556498 5.806861778069763 0.0 0.0 0.0 0.0
105 2 4.856284498920427 5.077753102386395 0.0 0.0 0.0 0.0
106 2 5.956180284795959 4.574459438426645 0.0 0.0 0.0 0.0
107 1 6.808747460924374 5.297146196232037 0.0 0.0 0.0 0.0
108 2 7.898128161135363 5.363740159653378 0.0 0.0 0.0 0.0
109 1 8.995985259704561 5.35681501276041 0.0 0.0 0.0 0.0
110 1 9.546061320470821 4.913189809263711 0.0 0.0 0.0 0.0
111 2 9.9309659187878 5.915491799004313 0.0 0.0 0.0 0.0
112 2 11.865104439113614 5.362602503328497 0.0 0.0 0.0 0.0
113 1 12.712701061257796 6.046597312454518 0.0 0.0 0.0 0.0
114 1 12.758606457896684 6.690446572917907 0.0 0.0 0.0 0.0
115 2 13.79753472497753 6.317165593214524 0.0 0.0 0.0 0.0
116 2 15.02984076675497 5.963514641279318 0.0 0.0 0.0 0.0
117 2 16.366941213908365 5.140796980718565 0.0 0.0 0.0 0.0
118 2 17.438861234455686 5.896042996338569 0.0 0.0 0.0 0.0
119 2 18.658714695510692 5.019087645993111 0.0 0.0 0.0 0.0
120 2 19.560987214686143 5.890673360931107 0.0 0.0 0.0 0.0
121 2 0.7430180265548315 6.724853535705983 0.0 0.0 0.0 0.0
122 2 1.8855945865418735 7.240023084279184 0.0 0.0 0.0 0.0
123 2 2.9248725477920012 6.5669189305194 0.0 0.0 0.0 0.0
124 2 4.169929886643065 7.06057200907394 0.0 0.0 0.0 0.0
125 1 4.851915963742506 6.197310345783277 0.0 0.0 0.0 0.0
126 2 5.862878968393343 5.816545570938208 0.0 0.0 0.0 0.0
127 1 6.948279804401988 5.9668209766123725 0.0 0.0 0.0 0.0
128 1 7.430633878693475 6.427398084126608 0.0 0.0 0.0 0.0
129 2 8.546929954754663 6.4489112140882 0.0 0.0 0.0 0.0
130 1 9.537369624429774 6.892556624312613 0.0 0.0 0.0 0.0
131 1 11.01295530908885 6.036298697738172 0.0 0.0 0.0 0.0
132 1 11.483135200410867 6.524201952221238 0.0 0.0 0.0 0.0
133 1 12.146318455811594 6.411864801817922 0.0 0.0 0.0 0.0
134 1 13.157003343552928 7.205384519576064 0.0 0.0 0.0 0.0
135 1 14.619134011363146 7.044136187213561 0.0 0.0 0.0 0.0
136 1 15.31598408563802 6.986661385255476 0.0 0.0 0.0 0.0
137 2 16.247681456251303 6.413980325262105 0.0 0.0 0.0 0.0
138 1 18.201364648499144 6.727685118430283 0.0 0.0 0.0 0.0
139 1 18.510093144851766 6.136440876760464 0.0 0.0 0.0 0.0
140 2 19.245635608391144 7.033129728503405 0.0 0.0 0.0 0.0
141 1 0.9455389591478724 7.811660007227986 0.0 0.0 0.0 0.0
142 1 1.4508679678209713 8.250685192090424 0.0 0.0 0.0 0.0
143 2 3.062848100312119 7.785326960466219 0.0 0.0 0.0 0.0
144 2 4.170600208681934 8.318375693718055 0.0 0.0 0.0 0.0
145 1 5.249454045886971 6.734769800609356 0.0 0.0 0.0 0.0
146 2 5.349864252996172 7.81790171953742 0.0 0.0 0.0 0.0
147 2 6.356148292890585 6.944742031305067 0.0 0.0 0.0 0.0
148 2 7.437252722812333 7.53089349579358 0.0 0.0 0.0 0.0
149 1 9.138746750962806 7.405356914367418 0.0 0.0 0.0 0.0
150 1 9.81234193718725 7.49010537119212 0.0 0.0 0.0 0.0
151 1 10.205617695633169 6.949524714274112 0.0 0.0 0.0 0.0
152 1 10.823422986798201 6.684848385390954 0.0 0.0 0.0 0.0
153 2 12.051432825942792 7.500478175698328 0.0 0.0 0.0 0.0
154 1 13.752971999316856 7.517697086204551 0.0 0.0 0.0 0.0
155 1 14.385480713347123 7.738258593642685 0.0 0.0 0.0 0.0
156 1 15.027175110006658 7.568582564675887 0.0 0.0 0.0 0.0
157 2 16.113094424392106 7.732329400246079 0.0 0.0 0.0 0.0
158 2 17.239731505639764 7.213007488171178 0.0 0.0 0.0 0.0
159 2 18.360481273119305 7.856009324022805 0.0 0.0 0.0 0.0
160 1 0.28101267211332653 7.758206135799074 0.0 0.0 0.0 0.0
161 2 0.5044958981490691 8.831976395738879 0.0 0.0 0.0 0.0
162 1 2.120410699511867 8.318040146409096 0.0 0.0 0.0 0.0
163 2 2.9610318630604597 9.054809925990154 0.0 0.0 0.0 0.0
164 1 3.979533890510923 9.431909867827502 0.0 0.0 0.0 0.0
165 1 5.166745473640866 8.894359889461468 0.0 0.0 0.0 0.0
166 2 6.148402853106085 9.368193034390334 0.0 0.0 0.0 0.0
167 1 6.424037289254777 8.06838967695389 0.0 0.0 0.0 0.0
168 1 6.931435966946907 8.502580584883733 0.0 0.0 0.0 0.0
169 1 8.517062611101872 7.593366286228996 0.0 0.0 0.0 0.0
170 2 9.370597378577544 8.462635042343605 0.0 0.0 0.0 0.0
171 2 10.843212594693643 7.810077385945238 0.0 0.0 0.0 0.0
172 2 11.660602973684131 8.717047448948447 0.0 0.0 0.0 0.0
173 1 12.724683638988063 8.35986073994042 0.0 0.0 0.0 0.0
174 1 13.145684700228534 7.8558609573376454 0.0 0.0 0.0 0.0
175 2 13.814046124423355 8.712553692323219 0.0 0.0 0.0 0.0
176 2 15.106156550419152 8.626027648453906 0.0 0.0 0.0 0.0
177 1 16.197528715108668 8.80404926039544 0.0 0.0 0.0 0.0
178 2 17.31918894843 8.505711119281601 0.0 0.0 0.0 0.0
179 1 19.118198607866265 8.699184838130728 0.0 0.0 0.0 0.0
180 1 19.446634895591593 8.10690398958617 0.0 0.0 0.0 0.0
181 1 0.7629188912874834 9.889706451829257 0.0 0.0 0.0 0.0
182 2 1.6969699535939673 9.316732108067914 0.0 0.0 0.0 0.0
183 1 2.517224487306378 10.058875198959464 0.0 0.0 0.0 0.0
184 2 3.535978299061308 10.45140469329697 0.0 0.0 0.0 0.0
185 1 4.6272902121936825 9.269553954674913 0.0 0.0 0.0 0.0
186 1 5.117082052661139 9.704769178977514 0.0 0.0 0.0 0.0
187 1 6.834390144298053 10.308138142270536 0.0 0.0 0.0 0.0
188 1 7.174623340089667 9.111408552218206 0.0 0.0 0.0 0.0
189 2 8.12022601421211 8.606099938888482 0.0 0.0 0.0 0.0
190 1 8.870621870153895 9.426927907924735 0.0 0.0 0.0 0.0
191 2 10.494787688685378 9.07676547470323 0.0 0.0 0.0 0.0
192 1 11.368520328511877 9.836634497036046 0.0 0.0 0.0 0.0
193 1 11.924137045263098 10.265264160836146 0.0 0.0 0.0 0.0
194 2 12.612188334449476 9.41800095330233 0.0 0.0 0.0 0.0
195 1 14.554247745856586 9.563755574145508 0.0 0.0 0.0 0.0
196 2 15.621707269351399 9.763853541199154 0.0 0.0 0.0 0.0
197 1 16.613315808669718 9.310977503685667 0.0 0.0 0.0 0.0
198 1 17.221482589899882 9.60671614579286 0.0 0.0 0.0 0.0
199 1 18.481277059981153 8.952209316323813 0.0 0.0 0.0 0.0
200 2 19.4205517289834 9.766480218579677 0.0 0.0 0.0 0.0
201 1 1.2688386392672764 10.338241209875145 0.0 0.0 0.0 0.0
202 1 1.9305401073024673 10.378014286698066 0.0 0.0 0.0 0.0
203 1 2.485599167748632 10.742386388780526 0.0 0.0 0.0 0.0
204 1 3.4095635627512206 11.521065769842254 0.0 0.0 0.0 0.0
205 1 4.472594223577063 9.904000687612607 0.0 0.0 0.0 0.0
206 2 5.72408258084909 10.606084575911085 0.0 0.0 0.0 0.0
207 1 6.731985649358721 11.00025178790468 0.0 0.0 0.0 0.0
208 1 7.350457362022882 10.792813078591008 0.0 0.0 0.0 0.0
209 2 7.904324334653322 9.880898418193624 0.0 0.0 0.0 0.0
210 1 9.515039984487265 9.551042564570636 0.0 0.0 0.0 0.0
211 2 10.280902475387888 10.315199486283323 0.0 0.0 0.0 0.0
212 1 11.329811360470622 10.55571412109167 0.0 0.0 0.0 0.0
213 1 12.566361447450577 10.484538512011389 0.0 0.0 0.0 0.0
214 2 13.60813395042265 10.060085350964693 0.0 0.0 0.0 0.0
215 1 14.660043901740515 10.253110215200723 0.0 0.0 0.0 0.0
216 1 15.10336750213247 10.750219230627177 0.0 0.0 0.0 0.0
217 1 16.667633914910265 9.960975130619067 0.0 0.0 0.0 0.0
218 1 17.185639263761527 10.347307025985904 0.0 0.0 0.0 0.0
219 2 18.213513758364897 10.011933394395577 0.0 0.0 0.0 0.0
220 2 0.3359671413691212 10.885055882999014 0.0 0.0 0.0 0.0
221 1 1.0534170438212136 12.374159566868974 0.0 0.0 0.0 0.0
222 2 1.6074602269048512 11.420864840707656 0.0 0.0 0.0 0.0
223 1 2.7504224446734438 11.35931152261311 0.0 0.0 0.0 0.0
224 1 2.933433623968987 12.016962253721214 0.0 0.0 0.0 0.0
225 1 4.642001495589082 10.535935481978443 0.0 0.0 0.0 0.0
226 1 5.670120646008705 11.73729641131152 0.0 0.0 0.0 0.0
227 1 6.324274222382312 11.525657477081579 0.0 0.0 0.0 0.0
228 2 7.421209622555451 11.888444591568032 0.0 0.0 0.0 0.0
229 1 8.002601312572764 10.960286746630603 0.0 0.0 0.0 0.0
230 2 9.02600446490727 10.537574218354482 0.0 0.0 0.0 0.0
231 1 10.976551586670624 11.150773727391924 0.0 0.0 0.0 0.0
232 2 12.025113328068198 11.420869890006319 0.0 0.0 0.0 0.0
233 1 13.025390582414547 10.955295697102416 0.0 0.0 0.0 0.0
234 2 13.108046374989248 12.01372834106389 0.0 0.0 0.0 0.0
235 2 14.099931152743416 11.228654898845821 0.0 0.0 0.0 0.0
236 2 15.188330457478695 11.842873867574328 0.0 0.0 0.0 0.0
237 2 16.18766160556065 10.914586052521454 0.0 0.0 0.0 0.0
238 2 17.53789175799143 11.36326986302975 0.0 0.0 0.0 0.0
239 2 18.864012683827223 11.055023445755417 0.0 0.0 0.0 0.0
240 1 19.65042515400616 11.876578822343232 0.0 0.0 0.0 0.0
241 1 0.5613200063669447 11.93849802851373 0.0 0.0 0.0 0.0
242 1 1.6923702992349887 12.497997285072376 0.0 0.0 0.0 0.0
243 1 2.3424429940633975 12.332301558312151 0.0 0.0 0.0 0.0
244 1 3.5921450172995426 12.150797194855468 0.0 0.0 0.0 0.0
245 2 4.539001002535861 11.607266399185047 0.0 0.0 0.0 0.0
246 1 5.347344141191803 12.34071585208186 0.0 0.0 0.0 0.0
247 2 6.4274754038086614 12.595620873655228 0.0 0.0 0.0 0.0
248 2 8.233138669503322 12.876800086899086 0.0 0.0 0.0 0.0
249 2 8.731292141719784 11.759906454336337 0.0 0.0 0.0 0.0
250 2 9.960603003317175 11.571751626078385 0.0 0.0 0.0 0.0
251 1 11.01195123854344 11.833735282971082 0.0 0.0 0.0 0.0
252 1 11.447069819436292 12.347864237938285 0.0 0.0 0.0 0.0
253 1 12.107113301641217 12.547674545626375 0.0 0.0 0.0 0.0
254 1 14.14473541212604 12.358256042447552 0.0 0.0 0.0 0.0
255 1 14.63148247677681 12.806530900497307 0.0 0.0 0.0 0.0
256 2 15.67497393552654 12.984960315589502 0.0 0.0 0.0 0.0
257 2 16.483400262781196 12.09419593863584 0.0 0.0 0.0 0.0
258 2 17.52274811472943 12.70599518668729 0.0 0.0 0.0 0.0
259 1 18.37813039990932 12.047007844064003 0.0 0.0 0.0 0.0
260 1 19.02956601678496 12.125061695240996 0.0 0.0 0.0 0.0
261 1 0.4356566884134498 12.605565642000212 0.0 0.0 0.0 0.0
262 1 2.1187616753235314 12.985133275197633 0.0 0.0 0.0 0.0
263 2 3.1680343691984683 13.144126206818399 0.0 0.0 0.0 0.0
264 1 3.8890438197550385 13.997515957902838 0.0 0.0 0.0 0.0
265 2 4.3619335599674285 12.908265485622902 0.0 0.0 0.0 0.0
266 1 5.425990106477262 13.003101627878115 0.0 0.0 0.0 0.0
267 1 7.198378153999673 13.3715296764324 0.0 0.0 0.0 0.0
268 1 7.708782425723809 13.794353286766246 0.0 0.0 0.0 0.0
269 2 9.526307463035511 12.779154106939362 0.0 0.0 0.0 0.0
270 1 10.557715013524485 13.104412971206719 0.0 0.0 0.0 0.0
271 1 10.714635426743214 12.447387224576255 0.0 0.0 0.0 0.0
272 1 11.218596029965504 12.963202830716874 0.0 0.0 0.0 0.0
273 1 11.879074242595074 13.200522360237226 0.0 0.0 0.0 0.0
274 2 13.029930494014277 13.192022006685747 0.0 0.0 0.0 0.0
275 1 14.115236003372683 13.205846669902249 0.0 0.0 0.0 0.0
276 1 16.665567167653034 13.328353857193708 0.0 0.0 0.0 0.0
277 1 17.158740326128875 13.765357042854765 0.0 0.0 0.0 0.0
278 1 17.80235464943456 13.922755598864924 0.0 0.0 0.0 0.0
279 2 18.62097100318825 13.138220287887842 0.0 0.0 0.0 0.0
280 1 19.54256264107141 12.53700293594209 0.0 0.0 0.0 0.0
281 2 1.1427592360347247 13.469527884980172 0.0 0.0 0.0 0.0
282 1 2.193097296753806 13.645370775843137 0.0 0.0 0.0 0.0
283 1 2.633984415848561 14.119673463413946 0.0 0.0 0.0 0.0
284 1 3.279029302819268 14.248897252279843 0.0 0.0 0.0 0.0
285 2 4.95950329566904 14.00146526780843 0.0 0.0 0.0 0.0
286 2 6.155403160764113 13.797200575972141 0.0 0.0 0.0 0.0
287 1 7.150969336821317 14.103081170855944 0.0 0.0 0.0 0.0
288 1 7.703574203118706 14.469661564025875 0.0 0.0 0.0 0.0
289 2 8.72096250872247 14.095474557796647 0.0 0.0 0.0 0.0
290 2 9.913966519536501 14.021168084622035 0.0 0.0 0.0 0.0
291 2 11.108756057740484 14.044230002785302 0.0 0.0 0.0 0.0
292 1 12.171223450881431 13.833346712933693 0.0 0.0 0.0 0.0
293 1 12.742767405258972 14.225831022124009 0.0 0.0 0.0 0.0
294 1 13.398329851733095 14.25784785115645 0.0 0.0 0.0 0.0
295 1 13.910417643920326 13.848471671522345 0.0 0.0 0.0 0.0
296 2 14.977406067415327 13.944785790193665 0.0 0.0 0.0 0.0
297 2 16.18463487599163 14.31380457522889 0.0 0.0 0.0 0.0
298 1 17.299642257984605 14.422465232518439 0.0 0.0 0.0 0.0
299 2 18.804762749611392 14.346174676330499 0.0 0.0 0.0 0.0
300 2 19.73406019602488 13.603436656149576 0.0 0.0 0.0 0.0
301 1 0.5485581234425653 14.508604463024342 0.0 0.0 0.0 0.0
302 2 1.6388727620744987 14.612091185097132 0.0 0.0 0.0 0.0
303 2 2.7158179682283774 15.191660526265652 0.0 0.0 0.0 0.0
304 1 3.7542804209862677 14.716492072330023 0.0 0.0 0.0 0.0
305 2 4.731036969724257 15.191207074512105 0.0 0.0 0.0 0.0
306 1 5.757172288902317 14.803714226044553 0.0 0.0 0.0 0.0
307 2 6.827121264463846 15.133744793269962 0.0 0.0 0.0 0.0
308 1 7.97401433817409 15.07152902493038 0.0 0.0 0.0 0.0
309 2 9.046688233877607 15.29693007036678 0.0 0.0 0.0 0.0
310 1 10.167801132800452 15.107635636895235 0.0 0.0 0.0 0.0
311 2 11.08545044750495 15.745628740785024 0.0 0.0 0.0 0.0
312 2 11.93514430130191 14.901904125021128 0.0 0.0 0.0 0.0
313 1 12.15096588675763 15.939374429585591 0.0 0.0 0.0 0.0
314 2 13.099103121860217 15.30938505329921 0.0 0.0 0.0 0.0
315 2 14.270452231908214 14.923623281876942 0.0 0.0 0.0 0.0
316 2 15.47816581677805 15.433887601836469 0.0 0.0 0.0 0.0
317 2 16.759681756436986 15.445237299793638 0.0 0.0 0.0 0.0
318 2 18.01313919355247 15.244398315055399 0.0 0.0 0.0 0.0
319 1 19.191140140215026 15.333799593152099 0.0 0.0 0.0 0.0
320 1 19.777427362885003 14.951814335081865 0.0 0.0 0.0 0.0
321 1 0.6911410737423342 15.162184988972019 0.0 0.0 0.0 0.0
322 2 1.5332133986068441 15.929132422324159 0.0 0.0 0.0 0.0
323 1 2.62772742886286 16.26041401862707 0.0 0.0 0.0 0.0
324 2 3.705175162776452 15.898205201648675 0.0 0.0 0.0 0.0
325 1 4.729263881473739 16.266405126951412 0.0 0.0 0.0 0.0
326 2 5.788055818365148 15.897852444899247 0.0 0.0 0.0 0.0
327 1 6.8778331274718685 16.21957249084237 0.0 0.0 0.0 0.0
328 2 8.031653394804174 16.17013410689365 0.0 0.0 0.0 0.0
329 2 9.250529056181723 16.57175265410424 0.0 0.0 0.0 0.0
330 1 10.013865580925811 15.787681327940861 0.0 0.0 0.0 0.0
331 2 10.508669996969491 16.811894925223967 0.0 0.0 0.0 0.0
332 2 11.778898883561578 16.961793111958634 0.0 0.0 0.0 0.0
333 1 12.681317897349816 16.308319811541743 0.0 0.0 0.0 0.0
334 1 13.342665995637317 16.38400082315178 0.0 0.0 0.0 0.0
335 2 14.411129789546719 16.145374041795684 0.0 0.0 0.0 0.0
336 1 15.494178420081584 16.562077792853238 0.0 0.0 0.0 0.0
337 2 16.592018201460373 16.78625259998942 0.0 0.0 0.0 0.0
338 1 17.543550443083827 16.2196847911923 0.0 0.0 0.0 0.0
339 2 18.681924312707466 16.291715689113413 0.0 0.0 0.0 0.0
340 2 19.93888106362245 16.112687229570934 0.0 0.0 0.0 0.0
341 2 0.8366452742130168 17.14047916088821 0.0 0.0 0.0 0.0
342 2 2.0382662259860926 17.167618737007476 0.0 0.0 0.0 0.0
343 1 3.0505646155452464 16.780812358579666 0.0 0.0 0.0 0.0
344 2 4.067375078830784 17.15498821703085 0.0 0.0 0.0 0.0
345 1 5.1134058177205945 16.792624811975443 0.0 0.0 0.0 0.0
346 2 6.154788181878724 17.069487759051285 0.0 0.0 0.0 0.0
347 2 7.347688448336693 17.20253223791015 0.0 0.0 0.0 0.0
348 1 8.45682350579923 17.31743128560352 0.0 0.0 0.0 0.0
349 1 8.130736194391329 17.90409057571886 0.0 0.0 0.0 0.0
350 1 9.74660657544755 17.557676363471888 0.0 0.0 0.0 0.0
351 1 10.306831391883733 17.948645242707872 0.0 0.0 0.0 0.0
352 1 10.992583846712146 17.78521016862853 0.0 0.0 0.0 0.0
353 1 12.90473542436327 16.91733141930222 0.0 0.0 0.0 0.0
354 2 13.915225575711004 17.315375843521668 0.0 0.0 0.0 0.0
355 1 15.014629103425454 17.036061254859682 0.0 0.0 0.0 0.0
356 1 15.62750199046867 17.313099720143526 0.0 0.0 0.0 0.0
357 1 16.10769934569321 17.822774591458693 0.0 0.0 0.0 0.0
358 1 17.732896560025363 16.850677857488616 0.0 0.0 0.0 0.0
359 1 18.25421971956232 17.284147532140988 0.0 0.0 0.0 0.0
360 2 19.3633012620746 17.3724836881479 0.0 0.0 0.0 0.0
361 1 0.4588592259691635 18.14964240314172 0.0 0.0 0.0 0.0
362 2 1.560143333341669 18.324177843654162 0.0 0.0 0.0 0.0
363 2 3.0384459147909912 17.899734841179388 0.0 0.0 0.0 0.0
364 2 4.48635152837081 18.364318360986015 0.0 0.0 0.0 0.0
365 1 5.114821628604414 17.456841755525737 0.0 0.0 0.0 0.0
366 1 5.540639188902947 17.958053215040277 0.0 0.0 0.0 0.0
367 2 6.621135131038333 18.266078003695554 0.0 0.0 0.0 0.0
368 2 7.716012864054912 18.893853648307093 0.0 0.0 0.0 0.0
369 2 9.075597717359567 18.381051967217086 0.0 0.0 0.0 0.0
370 1 10.155762793381404 18.626382780492108 0.0 0.0 0.0 0.0
371 1 10.808253713725314 18.429187790090054 0.0 0.0 0.0 0.0
372 1 11.616230412487905 18.040994452477765 0.0 0.0 0.0 0.0
373 1 12.292660944358122 17.915263509839324 0.0 0.0 0.0 0.0
374 1 12.848127150183476 17.5706199659891 0.0 0.0 0.0 0.0
375 2 14.824738913949654 18.10033863674309 0.0 0.0 0.0 0.0
376 1 15.803183916979188 18.455007565131165 0.0 0.0 0.0 0.0
377 1 16.442304215166242 18.426502999567298 0.0 0.0 0.0 0.0
378 2 17.316660131708772 17.844671355666748 0.0 0.0 0.0 0.0
379 2 18.50628055782106 18.34227766590556 0.0 0.0 0.0 0.0
380 1 19.624978244099385 18.440180786273885 0.0 0.0 0.0 0.0
381 2 0.694030475899775 19.23042679524143 0.0 0.0 0.0 0.0
382 1 2.5063651784365524 18.885950622831064 0.0 0.0 0.0 0.0
383 1 3.5005715538054547 18.874235121336085 0.0 0.0 0.0 0.0
384 1 3.9771356073660518 19.34749134933638 0.0 0.0 0.0 0.0
385 1 4.6197608865872395 19.477522210323414 0.0 0.0 0.0 0.0
386 2 5.601468242812691 19.01782514805511 0.0 0.0 0.0 0.0
387 2 6.688349577862613 19.644237343559965 0.0 0.0 0.0 0.0
388 1 7.367332982234231 0.22485984337610695 0.0 0.0 0.0 0.0
389 2 8.750761644504916 19.593070707371133 0.0 0.0 0.0 0.0
390 1 9.77879385963577 19.200691177299053 0.0 0.0 0.0 0.0
391 2 10.801543529613058 19.543232978164905 0.0 0.0 0.0 0.0
392 1 11.439194800926291 18.68084945971582 0.0 0.0 0.0 0.0
393 1 12.086022366359696 18.53013656766156 0.0 0.0 0.0 0.0
394 2 13.18295658301638 18.620100815800583 0.0 0.0 0.0 0.0
395 2 14.328039054176328 19.210550429895168 0.0 0.0 0.0 0.0
396 1 15.452695347184514 19.04243697493937 0.0 0.0 0.0 0.0
397 1 16.138419419211203 19.027410770211304 0.0 0.0 0.0 0.0
398 2 17.252423193833618 19.138735407202002 0.0 0.0 0.0 0.0
399 2 18.429705646633767 19.581336955524854 0.0 0.0 0.0 0.0
400 1 19.36764770666308 19.04496464712513 0.0 0.0 0.0 0.0
