ITEM: TIMESTEP
1
ITEM: NUMBER OF ATOMS
400
ITEM: BOX BOUNDS xy xz yz pp pp pp
0.0 19.7609 0.11376285464052877
0.0 19.7609 0.0
0.0 10.0 0.0
ITEM: ATOMS id type x y z vx vy vz
1 1 19.283186705690955 0.6195363433957057 0.0 0.0 0.0 0.0
2 2 0.5634859980939035 0.23703241463312347 0.0 0.0 0.0 0.0
3 1 1.7160225390042103 19.67580740652375 0.0 0.0 0.0 0.0
4 2 2.643572326527668 0.18663671427888562 0.0 0.0 0.0 0.0
5 2 3.54949224671257 0.9991224314196551 0.0 0.0 0.0 0.0
6 2 4.70171418673769 0.486866744912666 0.0 0.0 0.0 0.0
7 2 6.285171318884985 0.7040181451063733 0.0 0.0 0.0 0.0
8 2 7.511087370881776 1.1365738321458068 0.0 0.0 0.0 0.0
9 2 8.77206706827956 0.8054568655515743 0.0 0.0 0.0 0.0
10 1 9.701642616208549 0.2189286991919836 0.0 0.0 0.0 0.0
11 1 10.388823487396486 0.29461676848316465 0.0 0.0 0.0 0.0
12 1 10.941687278842101 0.708192233948609 0.0 0.0 0.0 0.0
13 1 11.652261365189995 0.724759158867607 0.0 0.0 0.0 0.0
14 2 13.179017408215474 0.7774615194916121 0.0 0.0 0.0 0.0
15 2 14.944966583346785 0.2319177739899896 0.0 0.0 0.0 0.0
16 2 15.937256019693105 19.123694548209393 0.0 0.0 0.0 0.0
17 1 16.556517023460135 0.20598780860453364 0.0 0.0 0.0 0.0
18 2 17.655117682152756 0.41315300360888957 0.0 0.0 0.0 0.0
19 1 18.657258939628083 0.8809270567415698 0.0 0.0 0.0 0.0
20 1 18.713684165136463 0.2125148653178397 0.0 0.0 0.0 0.0
21 1 0.43001668105496665 2.436871407001427 0.0 0.0 0.0 0.0
22 2 0.8379140090801127 1.4123235527983322 0.0 0.0 0.0 0.0
23 1 1.6137863996507795 0.6054420139724014 0.0 0.0 0.0 0.0
24 2 2.336537774202873 1.4557378999373864 0.0 0.0 0.0 0.0
25 1 4.471901302398399 1.585464047020796 0.0 0.0 0.0 0.0
26 2 5.525277063480077 1.721458604679869 0.0 0.0 0.0 0.0
27 1 6.598960892051817 1.760121982091843 0.0 0.0 0.0 0.0
28 1 7.112869759729481 2.1674444560127233 0.0 0.0 0.0 0.0
29 1 8.354048674008622 1.8369298241504604 0.0 0.0 0.0 0.0
30 1 9.016574805605673 1.8754798143498965 0.0 0.0 0.0 0.0
31 2 9.95670013853566 1.2859914122296023 0.0 0.0 0.0 0.0
32 2 11.12215479848297 1.7902187807728027 0.0 0.0 0.0 0.0
33 2 12.326154318613867 1.6146674764996292 0.0 0.0 0.0 0.0
34 1 13.399420647303455 1.820467024199792 0.0 0.0 0.0 0.0
35 2 14.31614947498763 1.247853878437764 0.0 0.0 0.0 0.0
36 2 15.52579249266974 1.5624738148650392 0.0 0.0 0.0 0.0
37 1 15.973460752593132 0.5233236529156507 0.0 0.0 0.0 0.0
38 2 16.755874438472038 1.2830688057015662 0.0 0.0 0.0 0.0
39 2 17.928125373220034 1.6958740977815443 0.0 0.0 0.0 0.0
40 2 19.34950560543862 1.727915537702829 0.0 0.0 0.0 0.0
41 1 19.65822347043945 2.824738019584208 0.0 0.0 0.0 0.0
42 2 0.7497099022542675 3.5138079858675333 0.0 0.0 0.0 0.0
43 2 1.5091806892796835 2.4329521968008785 0.0 0.0 0.0 0.0
44 1 2.591730225982016 2.546916399415747 0.0 0.0 0.0 0.0
45 2 3.6130668535880224 2.2287102832948835 0.0 0.0 0.0 0.0
46 2 4.746638983655398 2.78989064733963 0.0 0.0 0.0 0.0
47 2 6.183731171584082 2.8112698778940484 0.0 0.0 0.0 0.0
48 1 7.7863532761168255 2.1917045793361245 0.0 0.0 0.0 0.0
49 2 8.611095153106263 2.918870731757805 0.0 0.0 0.0 0.0
50 1 9.522370478108135 2.300821128198613 0.0 0.0 0.0 0.0
51 1 10.182081907166639 2.3491851252178617 0.0 0.0 0.0 0.0
52 1 11.92893776455233 2.5966198424195137 0.0 0.0 0.0 0.0
53 1 12.562702733623961 2.7726499387114214 0.0 0.0 0.0 0.0
54 1 13.117779939821535 2.405462551065731 0.0 0.0 0.0 0.0
55 2 14.262497375297173 2.464465024840017 0.0 0.0 0.0 0.0
56 2 15.447573817336774 2.8877487382627325 0.0 0.0 0.0 0.0
57 1 16.358558329447426 2.303444805966039 0.0 0.0 0.0 0.0
58 1 17.02411159660689 2.345477232189827 0.0 0.0 0.0 0.0
59 1 17.52247024300653 2.7819165306497977 0.0 0.0 0.0 0.0
60 2 18.58702583116143 2.7274244507102168 0.0 0.0 0.0 0.0
61 1 19.38972813544731 3.450899452998462 0.0 0.0 0.0 0.0
62 2 1.4668640167167057 4.54885419181737 0.0 0.0 0.0 0.0
63 2 2.082514035292924 3.5069395596743296 0.0 0.0 0.0 0.0
64 2 3.32966533262983 3.4228200983903396 0.0 0.0 0.0 0.0
65 1 4.33512877289129 3.8914493271592043 0.0 0.0 0.0 0.0
66 2 5.445663177918645 3.8680529952849727 0.0 0.0 0.0 0.0
67 1 6.526664583574008 3.8806126929525404 0.0 0.0 0.0 0.0
68 2 7.393076392304206 3.2062755518741275 0.0 0.0 0.0 0.0
69 2 8.227275182898245 4.1470794286888575 0.0 0.0 0.0 0.0
70 2 9.77109913310298 3.363846138504292 0.0 0.0 0.0 0.0
71 2 10.988576654633906 3.0659042013519766 0.0 0.0 0.0 0.0
72 1 11.768410206423644 3.899365376373638 0.0 0.0 0.0 0.0
73 1 12.079768713560593 3.2609827737524193 0.0 0.0 0.0 0.0
74 2 13.44157226707433 3.4354986369052694 0.0 0.0 0.0 0.0
75 1 14.527491960164125 3.495325210888571 0.0 0.0 0.0 0.0
76 1 15.02835918401902 3.9124404641406625 0.0 0.0 0.0 0.0
77 1 15.68593096743708 3.9680050603613513 0.0 0.0 0.0 0.0
78 2 16.6236347225162 3.392975184235479 0.0 0.0 0.0 0.0
79 1 17.74691883284803 3.448468101618212 0.0 0.0 0.0 0.0
80 1 18.762267118585253 3.8122004728444665 0.0 0.0 0.0 0.0
81 2 19.61785963886254 4.503820423242002 0.0 0.0 0.0 0.0
82 1 0.6743351101774784 5.243069939737901 0.0 0.0 0.0 0.0
83 2 2.727847923788136 4.5813075229118105 0.0 0.0 0.0 0.0
84 1 3.839347200355299 4.388137719562289 0.0 0.0 0.0 0.0
85 2 4.785770912501172 4.938967438945541 0.0 0.0 0.0 0.0
86 1 5.8897385851924815 4.873406512039837 0.0 0.0 0.0 0.0
87 1 6.498181123138049 4.569978261831495 0.0 0.0 0.0 0.0
88 1 7.091120858308906 4.234641767414441 0.0 0.0 0.0 0.0
89 1 8.603422027906555 5.174051147344011 0.0 0.0 0.0 0.0
90 2 9.48675949656634 4.547966496973902 0.0 0.0 0.0 0.0
91 2 10.712582579653995 4.229367401579833 0.0 0.0 0.0 0.0
92 1 12.217555118817074 4.42670720988096 0.0 0.0 0.0 0.0
93 1 12.446887657333917 3.818012635269667 0.0 0.0 0.0 0.0
94 1 12.941226382452811 4.4243437626681965 0.0 0.0 0.0 0.0
95 2 14.097876667798333 4.4908124407769305 0.0 0.0 0.0 0.0
96 1 15.288581290288208 4.522240053653509 0.0 0.0 0.0 0.0
97 1 16.18964332660747 4.394576400771238 0.0 0.0 0.0 0.0
98 2 17.019804248261725 5.088612463246927 0.0 0.0 0.0 0.0
99 1 17.50063477248214 4.083293191969758 0.0 0.0 0.0 0.0
100 2 18.309692209167405 4.8471727474628485 0.0 0.0 0.0 0.0
101 1 0.083806369528308 5.5485231790305445 0.0 0.0 0.0 0.0
102 1 0.6721237846509688 5.894363729168199 0.0 0.0 0.0 0.0
103 2 1.7778682985875116 5.762301681168811 0.0 0.0 0.0 0.0
104 2 3.5636674821171224 5.472368874200667 0.0 0.0 0.0 0.0
105 1 4.511419623925999 5.990857590049994 0.0 0.0 0.0 0.0
106 2 5.609181857103227 5.946856729074042 0.0 0.0 0.0 0.0
107 1 6.439143336152316 5.259875850796853 0.0 0.0 0.0 0.0
108 2 7.507664392537959 5.215014257055711 0.0 0.0 0.0 0.0
109 1 9.141390938713805 5.582271823950663 0.0 0.0 0.0 0.0
110 1 9.814485985749794 5.61281314359476 0.0 0.0 0.0 0.0
111 1 10.358065734564287 5.24176922698949 0.0 0.0 0.0 0.0
112 2 11.46038736409856 5.194059640184887 0.0 0.0 0.0 0.0
113 1 12.574401887548921 4.985249572207998 0.0 0.0 0.0 0.0
114 2 13.509738838625442 5.557528844518724 0.0 0.0 0.0 0.0
115 2 14.824996026771402 5.509755343951584 0.0 0.0 0.0 0.0
116 1 15.952800299714724 5.590455566640353 0.0 0.0 0.0 0.0
117 1 15.816700983363436 4.944155734822206 0.0 0.0 0.0 0.0
118 1 17.859270351272585 5.898166071705945 0.0 0.0 0.0 0.0
119 1 18.575858434596988 5.9532094611195765 0.0 0.0 0.0 0.0
120 1 19.15747159551202 5.54813456019782 0.0 0.0 0.0 0.0
121 2 1.0866348223388835 6.884155594998356 0.0 0.0 0.0 0.0
122 1 2.2035180755175885 6.783050359220473 0.0 0.0 0.0 0.0
123 1 2.7481483915603238 6.354687162451616 0.0 0.0 0.0 0.0
124 1 4.069734842144812 6.504551620886645 0.0 0.0 0.0 0.0
125 1 4.736240738914866 6.609849550768455 0.0 0.0 0.0 0.0
126 1 5.271093045916066 7.000961250233829 0.0 0.0 0.0 0.0
127 1 5.945553976172116 6.998631783347546 0.0 0.0 0.0 0.0
128 2 6.868307472946982 6.348688792528596 0.0 0.0 0.0 0.0
129 2 8.236547795492683 6.191812047569456 0.0 0.0 0.0 0.0
130 2 9.456866457670753 6.636050751856264 0.0 0.0 0.0 0.0
131 2 10.744626257602865 6.259025693501034 0.0 0.0 0.0 0.0
132 1 11.65565268486536 6.899708218814443 0.0 0.0 0.0 0.0
133 2 12.339949889205611 6.039087832757168 0.0 0.0 0.0 0.0
134 2 13.358770711942315 6.798148055849504 0.0 0.0 0.0 0.0
135 2 14.683069333512725 6.790545400849074 0.0 0.0 0.0 0.0
136 1 15.662962445521332 6.200864565804985 0.0 0.0 0.0 0.0
137 2 16.778134496668947 6.291045305701714 0.0 0.0 0.0 0.0
138 1 17.819376243068064 6.597562636860011 0.0 0.0 0.0 0.0
139 1 18.484067541819062 6.642787354128392 0.0 0.0 0.0 0.0
140 2 19.573432815886626 6.575109535043694 0.0 0.0 0.0 0.0
141 1 0.2548878504059565 7.590225568223089 0.0 0.0 0.0 0.0
142 2 1.8439353599880628 7.84422972150282 0.0 0.0 0.0 0.0
143 2 3.0267410165824105 7.520641419671459 0.0 0.0 0.0 0.0
144 1 3.4064539173614747 6.532010900157786 0.0 0.0 0.0 0.0
145 2 4.303613284264194 7.601116008112148 0.0 0.0 0.0 0.0
146 2 5.525087628436058 8.051243686399825 0.0 0.0 0.0 0.0
147 2 6.773409432857806 7.708874200743026 0.0 0.0 0.0 0.0
148 1 7.703179559981754 7.134925777536494 0.0 0.0 0.0 0.0
149 1 8.391210819188192 7.242916605289341 0.0 0.0 0.0 0.0
150 1 8.949908356175937 7.591117718228882 0.0 0.0 0.0 0.0
151 2 10.723962431131378 7.4987074026805125 0.0 0.0 0.0 0.0
152 1 11.833069555487825 7.555438536219908 0.0 0.0 0.0 0.0
153 1 12.30867001693971 7.1074170109021475 0.0 0.0 0.0 0.0
154 1 13.987476938273135 7.669710330492114 0.0 0.0 0.0 0.0
155 2 15.008619291668234 8.07917455124904 0.0 0.0 0.0 0.0
156 2 15.894267506114625 7.253971226167403 0.0 0.0 0.0 0.0
157 2 17.081930189943815 7.471797764019443 0.0 0.0 0.0 0.0
158 1 18.116520045613875 7.223470317784454 0.0 0.0 0.0 0.0
159 1 18.76407818949458 7.291653141737535 0.0 0.0 0.0 0.0
160 1 19.344113986311644 7.625402673027179 0.0 0.0 0.0 0.0
161 1 0.7899902762639553 7.999554733846582 0.0 0.0 0.0 0.0
162 1 1.101609008849824 8.747031868116258 0.0 0.0 0.0 0.0
163 2 2.353492548548625 8.936483599925886 0.0 0.0 0.0 0.0
164 2 3.5489644631515858 8.63560670098884 0.0 0.0 0.0 0.0
165 1 4.6259173593595815 8.673131064494338 0.0 0.0 0.0 0.0
166 2 5.467311548878792 9.364967984538374 0.0 0.0 0.0 0.0
167 1 6.37126467247978 8.729777587158079 0.0 0.0 0.0 0.0
168 2 7.932147146139053 8.221309244074423 0.0 0.0 0.0 0.0
169 2 9.057385319390804 8.647649393894953 0.0 0.0 0.0 0.0
170 1 9.631495778583151 7.711996590152176 0.0 0.0 0.0 0.0
171 2 10.242113977798173 8.63446844995482 0.0 0.0 0.0 0.0
172 2 11.519024304961407 8.578124134809677 0.0 0.0 0.0 0.0
173 2 12.88679725255183 8.027944709040181 0.0 0.0 0.0 0.0
174 1 13.946821750748374 8.331450878223617 0.0 0.0 0.0 0.0
175 1 14.276677539989494 8.924005474767041 0.0 0.0 0.0 0.0
176 1 16.16966222087923 8.348988041470294 0.0 0.0 0.0 0.0
177 1 16.876842307524136 8.527407046832705 0.0 0.0 0.0 0.0
178 1 17.57475151877744 8.43123388246824 0.0 0.0 0.0 0.0
179 1 18.087833253619493 7.946021882900929 0.0 0.0 0.0 0.0
180 1 18.766829727368467 7.963341920794399 0.0 0.0 0.0 0.0
181 1 0.7153382654586504 9.374749693557325 0.0 0.0 0.0 0.0
182 1 1.3783708684432814 9.395507047819256 0.0 0.0 0.0 0.0
183 1 3.1884201293494936 9.663546283315801 0.0 0.0 0.0 0.0
184 1 4.483079700652013 10.041197619811536 0.0 0.0 0.0 0.0
185 1 4.397137714309136 9.32731989380649 0.0 0.0 0.0 0.0
186 1 5.1108445598477354 10.3743951706908 0.0 0.0 0.0 0.0
187 1 7.033991632928703 8.808579688752127 0.0 0.0 0.0 0.0
188 1 7.551726879544762 9.277824766521933 0.0 0.0 0.0 0.0
189 1 8.218769315307057 9.323127285075577 0.0 0.0 0.0 0.0
190 1 9.604964730341047 9.598923453798681 0.0 0.0 0.0 0.0
191 1 10.885094444673289 9.45545171469233 0.0 0.0 0.0 0.0
192 1 11.502098496594858 9.695167744345955 0.0 0.0 0.0 0.0
193 2 12.566168289413813 9.25487599890381 0.0 0.0 0.0 0.0
194 1 13.595836228703892 8.893578910493915 0.0 0.0 0.0 0.0
195 1 14.354299742520041 9.587303225594317 0.0 0.0 0.0 0.0
196 2 15.365361691170303 9.239036968151144 0.0 0.0 0.0 0.0
197 1 16.410653720894928 8.995701348303689 0.0 0.0 0.0 0.0
198 2 17.380049024666654 9.512749028051205 0.0 0.0 0.0 0.0
199 2 18.499699016549652 9.01410280821602 0.0 0.0 0.0 0.0
200 2 19.684518476515883 8.640975684484363 0.0 0.0 0.0 0.0
201 2 1.0070202732736107 10.439458501874874 0.0 0.0 0.0 0.0
202 2 2.2208640233516923 10.165826083912892 0.0 0.0 0.0 0.0
203 1 3.8614297139094425 9.715460841711083 0.0 0.0 0.0 0.0
204 1 4.558220555678115 10.754390027415457 0.0 0.0 0.0 0.0
205 1 5.190314124281826 11.034467296194729 0.0 0.0 0.0 0.0
206 1 5.770993739186968 10.602623125384753 0.0 0.0 0.0 0.0
207 2 6.591348086295391 9.797190806334763 0.0 0.0 0.0 0.0
208 2 7.972808968256507 10.383558929184481 0.0 0.0 0.0 0.0
209 1 8.816204202914582 9.683159091491484 0.0 0.0 0.0 0.0
210 1 10.269561512080434 9.792639527371177 0.0 0.0 0.0 0.0
211 1 10.362737318391904 10.481849752734075 0.0 0.0 0.0 0.0
212 1 10.907536200351945 10.093105195317706 0.0 0.0 0.0 0.0
213 1 11.953010254503916 10.171621728567594 0.0 0.0 0.0 0.0
214 1 13.680283863348363 9.554453234122667 0.0 0.0 0.0 0.0
215 1 14.028007492284273 10.152776830780773 0.0 0.0 0.0 0.0
216 2 15.06218761899156 10.494225389818931 0.0 0.0 0.0 0.0
217 2 16.267063582356354 10.103071893816509 0.0 0.0 0.0 0.0
218 2 17.345282417843322 10.745046478425543 0.0 0.0 0.0 0.0
219 1 18.33027504569933 10.12822400319329 0.0 0.0 0.0 0.0
220 2 19.44539530345937 9.845363783020359 0.0 0.0 0.0 0.0
221 2 0.9459899046124035 11.729338331278507 0.0 0.0 0.0 0.0
222 2 2.2163057914500652 11.40777195196773 0.0 0.0 0.0 0.0
223 2 3.4566323628710194 10.726553032424198 0.0 0.0 0.0 0.0
224 1 4.339119994388413 11.403346074781593 0.0 0.0 0.0 0.0
225 1 4.949254608854625 11.669628949509741 0.0 0.0 0.0 0.0
226 2 6.012805926677146 11.758100751847907 0.0 0.0 0.0 0.0
227 2 6.869350925588783 10.936824149234413 0.0 0.0 0.0 0.0
228 1 7.809710201067817 11.485198531479108 0.0 0.0 0.0 0.0
229 1 8.467974379508902 11.401383903364046 0.0 0.0 0.0 0.0
230 2 9.275014883675661 10.657349819206834 0.0 0.0 0.0 0.0
231 1 10.240189932567569 11.149647575829007 0.0 0.0 0.0 0.0
232 2 11.347067420300785 11.053547582302471 0.0 0.0 0.0 0.0
233 2 12.992756034373317 10.412215997768724 0.0 0.0 0.0 0.0
234 1 14.02831158320728 10.823512584702605 0.0 0.0 0.0 0.0
235 1 14.251735503752455 11.469622619828383 0.0 0.0 0.0 0.0
236 1 14.923118695342449 11.584732843012093 0.0 0.0 0.0 0.0
237 2 16.02331737531527 11.368158382740779 0.0 0.0 0.0 0.0
238 1 17.045405290933203 11.772927821799607 0.0 0.0 0.0 0.0
239 2 18.462244505822074 11.23756627823636 0.0 0.0 0.0 0.0
240 2 19.67976563627896 11.03044198490234 0.0 0.0 0.0 0.0
241 1 1.2310292532979137 12.790398750996328 0.0 0.0 0.0 0.0
242 1 1.7926558359024558 12.426150767811938 0.0 0.0 0.0 0.0
243 1 2.4545524742406903 12.489289748320234 0.0 0.0 0.0 0.0
244 2 3.3884516760943546 11.969263435121102 0.0 0.0 0.0 0.0
245 1 4.450017020451061 12.098122275025695 0.0 0.0 0.0 0.0
246 2 5.295837575130941 12.786924858430979 0.0 0.0 0.0 0.0
247 2 6.671596443650434 12.790691056399831 0.0 0.0 0.0 0.0
248 1 7.2948649696403125 11.920560465260396 0.0 0.0 0.0 0.0
249 2 8.226049877961865 12.505733591207331 0.0 0.0 0.0 0.0
250 2 9.425516737346765 11.944715720103904 0.0 0.0 0.0 0.0
251 1 10.514593523404251 11.748362815425969 0.0 0.0 0.0 0.0
252 2 11.496135673571283 12.266547577890943 0.0 0.0 0.0 0.0
253 2 12.504679571942248 11.542043774345798 0.0 0.0 0.0 0.0
254 1 13.589908501333905 11.31442860763544 0.0 0.0 0.0 0.0
255 1 14.487457411795848 12.110705206353957 0.0 0.0 0.0 0.0
256 2 15.493295418011432 12.527369664135342 0.0 0.0 0.0 0.0
257 2 16.72578968808794 12.798994945100356 0.0 0.0 0.0 0.0
258 1 17.6574218983775 12.048335511244426 0.0 0.0 0.0 0.0
259 1 18.289407265189666 12.29990475033247 0.0 0.0 0.0 0.0
260 2 19.373581614556183 12.208003256324611 0.0 0.0 0.0 0.0
261 1 0.5648309279756315 12.77509498824481 0.0 0.0 0.0 0.0
262 2 2.068186488339833 13.495256126946972 0.0 0.0 0.0 0.0
263 2 3.279655816485903 13.255172820939707 0.0 0.0 0.0 0.0
264 1 4.218467524903183 12.736903551423646 0.0 0.0 0.0 0.0
265 1 4.385753333230786 13.448530172772122 0.0 0.0 0.0 0.0
266 1 5.955967265655457 14.273344330977515 0.0 0.0 0.0 0.0
267 1 5.96415901336006 13.616418437892543 0.0 0.0 0.0 0.0
268 1 8.100738101795685 13.595001600617104 0.0 0.0 0.0 0.0
269 1 8.592010095720983 14.077218451088743 0.0 0.0 0.0 0.0
270 2 9.248553386421307 13.250884027190827 0.0 0.0 0.0 0.0
271 2 10.383051961636157 12.8089163307914 0.0 0.0 0.0 0.0
272 1 11.343704418562812 13.333771141508384 0.0 0.0 0.0 0.0
273 2 12.423595487285768 13.108502222028594 0.0 0.0 0.0 0.0
274 2 13.429289593793092 12.367421302280272 0.0 0.0 0.0 0.0
275 1 14.422811806634245 12.803513673394562 0.0 0.0 0.0 0.0
276 1 15.919768763152998 13.515048886782969 0.0 0.0 0.0 0.0
277 1 16.490204337726354 13.882515548288822 0.0 0.0 0.0 0.0
278 1 17.79273975457333 12.72842903090087 0.0 0.0 0.0 0.0
279 2 18.71566192508706 13.311196752933109 0.0 0.0 0.0 0.0
280 1 19.810101037729126 13.196125549507412 0.0 0.0 0.0 0.0
281 2 0.9238243364952432 13.848579925777095 0.0 0.0 0.0 0.0
282 1 2.810159957236928 14.25550459145088 0.0 0.0 0.0 0.0
283 1 2.9908818816477427 14.89585771422945 0.0 0.0 0.0 0.0
284 1 3.449645500858569 14.344964302781857 0.0 0.0 0.0 0.0
285 1 4.055326308576016 14.06813778068962 0.0 0.0 0.0 0.0
286 1 5.369078109768519 13.926436182380707 0.0 0.0 0.0 0.0
287 2 6.989454563361099 13.952747333120396 0.0 0.0 0.0 0.0
288 1 7.975896105558259 14.257331528087239 0.0 0.0 0.0 0.0
289 1 8.410672985863753 14.732305500872853 0.0 0.0 0.0 0.0
290 2 9.483266698484321 14.682911348102008 0.0 0.0 0.0 0.0
291 1 10.202046317797764 13.877881126065011 0.0 0.0 0.0 0.0
292 1 10.873541261795951 13.803936250275667 0.0 0.0 0.0 0.0
293 2 11.90144656353327 14.25666926285225 0.0 0.0 0.0 0.0
294 2 13.59265815815711 13.597419071244477 0.0 0.0 0.0 0.0
295 1 14.025379767595343 14.577513089748852 0.0 0.0 0.0 0.0
296 2 14.861527237261445 13.805942354380722 0.0 0.0 0.0 0.0
297 1 15.903687256324513 14.167542607063304 0.0 0.0 0.0 0.0
298 2 17.555994477027554 13.814244934040191 0.0 0.0 0.0 0.0
299 1 18.48332011511067 14.40951098088166 0.0 0.0 0.0 0.0
300 2 19.52909879461381 14.239923740317332 0.0 0.0 0.0 0.0
301 2 0.6456019814513505 15.06909690632761 0.0 0.0 0.0 0.0
302 2 1.8691602619099195 14.769008744334165 0.0 0.0 0.0 0.0
303 2 2.567681897587885 15.923574904970833 0.0 0.0 0.0 0.0
304 2 4.037476008977648 15.23357589347305 0.0 0.0 0.0 0.0
305 1 4.71748021105787 14.073624990675773 0.0 0.0 0.0 0.0
306 2 5.242824683798432 15.069328029249546 0.0 0.0 0.0 0.0
307 1 6.3383546276707134 14.82605176069352 0.0 0.0 0.0 0.0
308 2 7.395742258484866 15.187718609732856 0.0 0.0 0.0 0.0
309 1 8.52841280512217 15.367713403130065 0.0 0.0 0.0 0.0
310 2 9.465810876937088 15.913708917100882 0.0 0.0 0.0 0.0
311 2 10.70729475691254 14.88057276594982 0.0 0.0 0.0 0.0
312 2 11.794356628226442 15.477097507190871 0.0 0.0 0.0 0.0
313 2 12.98143820693273 14.93696564213812 0.0 0.0 0.0 0.0
314 1 14.033380489644012 15.249468027680592 0.0 0.0 0.0 0.0
315 1 14.618729923202487 14.864112200203834 0.0 0.0 0.0 0.0
316 2 15.669159495838665 15.189164692372483 0.0 0.0 0.0 0.0
317 1 16.637623802483187 14.558702349583719 0.0 0.0 0.0 0.0
318 1 16.68360962683191 15.503952453192104 0.0 0.0 0.0 0.0
319 2 17.6645010985165 15.09117014101511 0.0 0.0 0.0 0.0
320 2 19.081625538440285 15.418320718973565 0.0 0.0 0.0 0.0
321 2 0.4808574634308436 16.268270057853705 0.0 0.0 0.0 0.0
322 1 1.473175543200791 15.779007610068174 0.0 0.0 0.0 0.0
323 1 3.22251656899238 16.79447345682372 0.0 0.0 0.0 0.0
324 1 3.638767873864056 16.24949127372041 0.0 0.0 0.0 0.0
325 2 4.784854088302509 16.289846703367196 0.0 0.0 0.0 0.0
326 1 5.852064957940779 16.024741088109256 0.0 0.0 0.0 0.0
327 1 6.263629141510858 15.481234027266915 0.0 0.0 0.0 0.0
328 2 6.918636302333951 16.32998035618381 0.0 0.0 0.0 0.0
329 2 8.25507782547761 16.405596524187967 0.0 0.0 0.0 0.0
330 1 9.198960676186827 16.962151741708695 0.0 0.0 0.0 0.0
331 2 10.678031084548097 16.15438971588864 0.0 0.0 0.0 0.0
332 1 11.720851885911003 16.549102648178827 0.0 0.0 0.0 0.0
333 2 12.76661377181335 16.249051750111143 0.0 0.0 0.0 0.0
334 2 13.980155157968316 16.35619433144539 0.0 0.0 0.0 0.0
335 1 14.644237058094784 15.520130209888016 0.0 0.0 0.0 0.0
336 1 15.024757555453402 16.061228980373354 0.0 0.0 0.0 0.0
337 2 16.05036393484882 16.408887885087843 0.0 0.0 0.0 0.0
338 1 17.08222384735065 16.038437254088038 0.0 0.0 0.0 0.0
339 2 18.141868060536076 16.269611130304057 0.0 0.0 0.0 0.0
340 1 19.20468501635854 16.538041323939307 0.0 0.0 0.0 0.0
341 2 0.16944697511920886 17.463894140234743 0.0 0.0 0.0 0.0
342 2 1.5811455299237112 16.85229938397965 0.0 0.0 0.0 0.0
343 1 2.637662435245789 17.085409958720795 0.0 0.0 0.0 0.0
344 1 3.865054124320675 16.877786150227852 0.0 0.0 0.0 0.0
345 2 4.649085386683044 17.587801541150206 0.0 0.0 0.0 0.0
346 2 5.839169295907189 17.156514921965044 0.0 0.0 0.0 0.0
347 1 6.9015649998995245 17.40711617076089 0.0 0.0 0.0 0.0
348 1 7.407094805371595 17.83301414733704 0.0 0.0 0.0 0.0
349 1 7.547682025298271 17.20294030699144 0.0 0.0 0.0 0.0
350 1 9.53129797423536 17.534528717545637 0.0 0.0 0.0 0.0
351 1 9.880234241393564 16.94161567793876 0.0 0.0 0.0 0.0
352 1 11.292252693564107 17.04362720899718 0.0 0.0 0.0 0.0
353 2 12.267304980595034 17.505233479077287 0.0 0.0 0.0 0.0
354 1 13.297267584683834 17.21625301239042 0.0 0.0 0.0 0.0
355 1 13.917420838446839 17.4288286899682 0.0 0.0 0.0 0.0
356 2 15.029389459545188 17.14112217781156 0.0 0.0 0.0 0.0
357 1 16.073049808818656 17.503301983348322 0.0 0.0 0.0 0.0
358 1 17.098816193427005 16.712695935477324 0.0 0.0 0.0 0.0
359 2 17.84996050698741 17.487900245753238 0.0 0.0 0.0 0.0
360 1 18.87756925137072 17.112161410051947 0.0 0.0 0.0 0.0
361 2 0.25907390234290817 18.79555961774134 0.0 0.0 0.0 0.0
362 2 1.294400775572583 18.051705426132525 0.0 0.0 0.0 0.0
363 1 2.3261097671186612 17.6726951586384 0.0 0.0 0.0 0.0
364 2 3.4106658715632556 17.920864326510575 0.0 0.0 0.0 0.0
365 2 4.539429644211147 18.850768853496163 0.0 0.0 0.0 0.0
366 1 5.473595526355572 18.270355843249924 0.0 0.0 0.0 0.0
367 2 6.526860074807528 18.42716497579651 0.0 0.0 0.0 0.0
368 2 7.759985076213278 18.83773749258999 0.0 0.0 0.0 0.0
369 2 8.481167751472427 17.79460650588393 0.0 0.0 0.0 0.0
370 1 9.493031967420421 18.213323813466456 0.0 0.0 0.0 0.0
371 2 10.56215408984944 17.813124263274794 0.0 0.0 0.0 0.0
372 1 11.517607009516492 18.334364355261087 0.0 0.0 0.0 0.0
373 1 12.145142294548082 18.58023414377703 0.0 0.0 0.0 0.0
374 2 13.263883394735767 18.34674768779076 0.0 0.0 0.0 0.0
375 1 14.326231311940495 17.929358147407243 0.0 0.0 0.0 0.0
376 1 14.997587470234054 18.26563563870841 0.0 0.0 0.0 0.0
377 1 15.674758500464234 18.055302925261017 0.0 0.0 0.0 0.0
378 2 16.842390924284636 18.26838712221399 0.0 0.0 0.0 0.0
379 1 17.909199855641138 18.557993778161833 0.0 0.0 0.0 0.0
380 2 18.92084972238612 18.206880965360465 0.0 0.0 0.0 0.0
381 1 19.42141348201918 19.700869656302455 0.0 0.0 0.0 0.0
382 1 1.3322173984450876 19.128939265894655 0.0 0.0 0.0 0.0
383 2 2.3825269162875156 18.76157360496591 0.0 0.0 0.0 0.0
384 1 3.45573915676524 19.07119094448162 0.0 0.0 0.0 0.0
385 1 3.8240101422689556 19.668903087146393 0.0 0.0 0.0 0.0
386 2 5.71452221295832 19.372199815872897 0.0 0.0 0.0 0.0
387 1 6.826226950685356 19.461654857640628 0.0 0.0 0.0 0.0
388 1 7.245989693023727 0.09414119409952756 0.0 0.0 0.0 0.0
389 1 7.931670853887586 0.11763801816291299 0.0 0.0 0.0 0.0
390 2 8.978998592752307 19.225813989481363 0.0 0.0 0.0 0.0
391 2 10.253080735921225 18.988408333191373 0.0 0.0 0.0 0.0
392 2 11.403686434415446 19.425682635869496 0.0 0.0 0.0 0.0
393 2 12.61792426505343 19.544848491202647 0.0 0.0 0.0 0.0
394 2 13.90193023010391 19.505716642911327 0.0 0.0 0.0 0.0
395 1 14.357843651268174 18.56027944352547 0.0 0.0 0.0 0.0
396 1 14.882260322874576 18.935169264872727 0.0 0.0 0.0 0.0
397 1 16.98226907366353 19.384201024881833 0.0 0.0 0.0 0.0
398 1 17.573545586797014 19.110225196670758 0.0 0.0 0.0 0.0
399 1 18.252130601800495 19.144909764209697 0.0 0.0 0.0 0.0
400 1 18.90608657390735 19.292831265605837 0.0 0.0 0.0 0.0
