ITEM: TIMESTEP
1
ITEM: NUMBER OF ATOMS
400
ITEM: BOX BOUNDS xy xz yz pp pp pp
0.0 19.7609 0.3491120999431003
0.0 19.7609 0.0
0.0 10.0 0.0
ITEM: ATOMS id type x y z vx vy vz
1 1 1.4369526988721706 19.670999850055868 0.0 0.0 0.0 0.0
2 1 1.9823312306302512 19.30698979436805 0.0 0.0 0.0 0.0
3 1 2.471675109174653 0.6249362661187281 0.0 0.0 0.0 0.0
4 1 4.189879257094362 19.223400119327206 0.0 0.0 0.0 0.0
5 1 4.775271971117702 19.57594162839576 0.0 0.0 0.0 0.0
6 2 4.918577941611637 0.7973495505387563 0.0 0.0 0.0 0.0
7 2 6.058961359136946 0.2439715016506423 0.0 0.0 0.0 0.0
8 1 8.065330350967514 19.57807775748556 0.0 0.0 0.0 0.0
9 2 8.42225619194212 0.640250621650275 0.0 0.0 0.0 0.0
10 2 9.857077075235003 19.666652339076055 0.0 0.0 0.0 0.0
11 1 10.612254492866775 0.13426464579673322 0.0 0.0 0.0 0.0
12 2 11.983784922979448 19.47170563587168 0.0 0.0 0.0 0.0
13 2 12.6346951930814 0.6475303715424873 0.0 0.0 0.0 0.0
14 2 13.180610561770228 19.14320544901685 0.0 0.0 0.0 0.0
15 2 13.86999695126578 0.22513111242699044 0.0 0.0 0.0 0.0
16 2 15.112378888401969 0.5318189557651614 0.0 0.0 0.0 0.0
17 2 16.3414121054549 1.0100512815147749 0.0 0.0 0.0 0.0
18 2 17.45251908481273 0.41940643871064237 0.0 0.0 0.0 0.0
19 2 18.720262554106576 0.6551394246020906 0.0 0.0 0.0 0.0
20 1 0.44335144012261474 0.020686800855652773 0.0 0.0 0.0 0.0
21 2 0.17041651373271077 1.056395431524834 0.0 0.0 0.0 0.0
22 2 1.411070180968968 0.9197795964337133 0.0 0.0 0.0 0.0
23 2 2.3355624795113354 1.7426344292667735 0.0 0.0 0.0 0.0
24 2 3.570728945408435 0.5352434435240371 0.0 0.0 0.0 0.0
25 1 4.082204125428713 1.4939372571629215 0.0 0.0 0.0 0.0
26 2 4.998284949329139 2.1078142641163895 0.0 0.0 0.0 0.0
27 2 6.077630370799502 1.4332060404465428 0.0 0.0 0.0 0.0
28 2 7.188824220699505 0.7910926512283714 0.0 0.0 0.0 0.0
29 2 9.421934725844219 1.3219970255469382 0.0 0.0 0.0 0.0
30 1 10.322041043948445 0.7335596278870611 0.0 0.0 0.0 0.0
31 2 11.402620970573553 0.9368156511234178 0.0 0.0 0.0 0.0
32 2 11.943086417565688 2.0917956720055173 0.0 0.0 0.0 0.0
33 2 13.263545820702118 1.7550079323624839 0.0 0.0 0.0 0.0
34 1 14.295816220313645 1.2877700834180996 0.0 0.0 0.0 0.0
35 1 14.336998898787177 1.9738444876021237 0.0 0.0 0.0 0.0
36 2 15.377520490358316 1.708611960107522 0.0 0.0 0.0 0.0
37 1 16.38014965402944 2.213432839057582 0.0 0.0 0.0 0.0
38 2 17.364990109504255 1.645336155287255 0.0 0.0 0.0 0.0
39 1 18.43193052021901 1.7375039184578571 0.0 0.0 0.0 0.0
40 1 19.07956286250907 1.6909262592798735 0.0 0.0 0.0 0.0
41 1 19.55650644918143 2.144488096526732 0.0 0.0 0.0 0.0
42 2 0.8737587577541466 2.086188510662166 0.0 0.0 0.0 0.0
43 2 1.7790334102458722 2.9016330531474863 0.0 0.0 0.0 0.0
44 1 3.423520122764999 1.66248970983258 0.0 0.0 0.0 0.0
45 1 3.9058084535726216 2.1291030035908185 0.0 0.0 0.0 0.0
46 1 6.003099665472738 2.4975213634370323 0.0 0.0 0.0 0.0
47 1 6.658877878382023 2.3330731117966694 0.0 0.0 0.0 0.0
48 1 7.159822390821398 1.890177654795852 0.0 0.0 0.0 0.0
49 2 8.271098448731326 1.9364464301076287 0.0 0.0 0.0 0.0
50 2 9.441193505385398 2.5637387878678313 0.0 0.0 0.0 0.0
51 2 10.55584999191677 1.8612681723612876 0.0 0.0 0.0 0.0
52 1 11.085253752981615 2.817719769857173 0.0 0.0 0.0 0.0
53 1 12.830250520552168 2.760495827335802 0.0 0.0 0.0 0.0
54 1 13.467973302493318 2.9026912726603826 0.0 0.0 0.0 0.0
55 1 14.036987586261514 2.569398015996673 0.0 0.0 0.0 0.0
56 2 15.089386501718435 2.849274726644732 0.0 0.0 0.0 0.0
57 1 16.951088996925076 2.63310674846121 0.0 0.0 0.0 0.0
58 1 17.60549908511096 2.7352261619491554 0.0 0.0 0.0 0.0
59 1 18.175347330584355 2.3589671333022992 0.0 0.0 0.0 0.0
60 1 18.850208923858784 2.317505417528953 0.0 0.0 0.0 0.0
61 2 0.4868688051538712 3.3493016602812022 0.0 0.0 0.0 0.0
62 1 1.3957932402011295 3.9316358808691074 0.0 0.0 0.0 0.0
63 2 2.4855653169275227 3.9163440895204467 0.0 0.0 0.0 0.0
64 2 3.053031427141815 2.78892043314297 0.0 0.0 0.0 0.0
65 2 4.276045975874712 3.153364685657572 0.0 0.0 0.0 0.0
66 2 5.4904459625529185 3.445535030266977 0.0 0.0 0.0 0.0
67 1 6.456079327439675 2.9653835946226654 0.0 0.0 0.0 0.0
68 2 7.524815921646228 2.9771511923161116 0.0 0.0 0.0 0.0
69 2 7.812217577851925 4.429503978248502 0.0 0.0 0.0 0.0
70 2 8.602707142620526 3.496669902276312 0.0 0.0 0.0 0.0
71 2 9.743804592925997 3.8191590060791647 0.0 0.0 0.0 0.0
72 1 10.451748400512638 2.991695809913887 0.0 0.0 0.0 0.0
73 2 11.979448762392128 3.3990093715318297 0.0 0.0 0.0 0.0
74 2 13.067687111921876 3.941653863570717 0.0 0.0 0.0 0.0
75 2 14.244923602239584 3.6775023186275 0.0 0.0 0.0 0.0
76 1 15.294924357207227 3.9616623831841054 0.0 0.0 0.0 0.0
77 2 16.178391650089782 3.3482795948044592 0.0 0.0 0.0 0.0
78 2 17.303817985541624 3.8183810070631927 0.0 0.0 0.0 0.0
79 2 18.469883265420673 3.3940251999830817 0.0 0.0 0.0 0.0
80 1 19.348919296028093 2.7709055595027308 0.0 0.0 0.0 0.0
81 2 0.6343420962945981 4.72469008465647 0.0 0.0 0.0 0.0
82 2 1.8261085557202068 4.933151126982007 0.0 0.0 0.0 0.0
83 1 2.9085747885860638 5.009493463747684 0.0 0.0 0.0 0.0
84 2 3.639378252056788 4.22033935458863 0.0 0.0 0.0 0.0
85 1 4.708711095183768 4.179350781589424 0.0 0.0 0.0 0.0
86 2 5.65748060220976 4.706823025790085 0.0 0.0 0.0 0.0
87 2 6.669691050790603 4.01237754642424 0.0 0.0 0.0 0.0
88 2 7.961641939106391 5.632955099367285 0.0 0.0 0.0 0.0
89 1 8.987802273816659 5.296823375148455 0.0 0.0 0.0 0.0
90 1 8.897050227176658 4.601361416857609 0.0 0.0 0.0 0.0
91 1 9.509513740749671 4.881614835966484 0.0 0.0 0.0 0.0
92 2 10.938602135876755 4.02176465429714 0.0 0.0 0.0 0.0
93 2 12.028792609695502 4.672566645039277 0.0 0.0 0.0 0.0
94 1 13.056337667259498 5.040266340861442 0.0 0.0 0.0 0.0
95 2 14.096190926078057 4.871072428871019 0.0 0.0 0.0 0.0
96 1 15.14358104723848 4.603533795368783 0.0 0.0 0.0 0.0
97 2 16.241633080382 4.597085952016849 0.0 0.0 0.0 0.0
98 1 18.18851753125966 4.469273951112941 0.0 0.0 0.0 0.0
99 1 18.489008017775735 5.074082036719593 0.0 0.0 0.0 0.0
100 2 19.275228713142653 4.2941887593265315 0.0 0.0 0.0 0.0
101 2 1.0274252067955654 5.938050975206308 0.0 0.0 0.0 0.0
102 1 2.124904063800932 5.937165000700773 0.0 0.0 0.0 0.0
103 1 2.715463786068606 5.655219249268106 0.0 0.0 0.0 0.0
104 2 3.799673891239679 5.6942865772017575 0.0 0.0 0.0 0.0
105 1 4.532643057867958 4.822324159747469 0.0 0.0 0.0 0.0
106 2 5.046309998256858 5.756948284500306 0.0 0.0 0.0 0.0
107 2 6.749729153327569 5.340698917175661 0.0 0.0 0.0 0.0
108 1 7.185952893677677 6.388764834386078 0.0 0.0 0.0 0.0
109 2 8.860480591896485 6.450188616474936 0.0 0.0 0.0 0.0
110 2 9.93574651299897 5.8904905100511 0.0 0.0 0.0 0.0
111 1 10.175670832714193 4.816078320793699 0.0 0.0 0.0 0.0
112 2 11.065183012570344 5.428243648847546 0.0 0.0 0.0 0.0
113 1 12.046833295347337 5.840469107031555 0.0 0.0 0.0 0.0
114 1 12.666336633449372 5.557634590600718 0.0 0.0 0.0 0.0
115 2 13.693965801292716 6.06151565042082 0.0 0.0 0.0 0.0
116 2 14.993426474452153 5.695898418598667 0.0 0.0 0.0 0.0
117 2 16.215369528575994 5.8567628808253325 0.0 0.0 0.0 0.0
118 2 17.370210217486793 5.2119213355724066 0.0 0.0 0.0 0.0
119 1 18.355994486461444 5.7343037630674605 0.0 0.0 0.0 0.0
120 2 19.471847518387833 5.6108993688188775 0.0 0.0 0.0 0.0
121 1 0.1885706021741746 6.630526063247885 0.0 0.0 0.0 0.0
122 1 1.9609013840781484 6.5538115939657065 0.0 0.0 0.0 0.0
123 1 2.6339527800647224 6.366918607962113 0.0 0.0 0.0 0.0
124 1 3.236323574140863 6.6515201080581585 0.0 0.0 0.0 0.0
125 1 4.344555642113642 6.697268289772897 0.0 0.0 0.0 0.0
126 1 5.031485614234997 6.800549785410424 0.0 0.0 0.0 0.0
127 2 6.093963812930799 6.4537063434009 0.0 0.0 0.0 0.0
128 1 7.782149943183122 6.732947992800714 0.0 0.0 0.0 0.0
129 1 8.745119675921474 7.491869393150093 0.0 0.0 0.0 0.0
130 1 9.848060275120943 6.976125631719381 0.0 0.0 0.0 0.0
131 1 10.134334464681961 7.588334725720348 0.0 0.0 0.0 0.0
132 2 10.925738522427395 6.704398389435993 0.0 0.0 0.0 0.0
133 1 12.019555371232379 6.535841416766957 0.0 0.0 0.0 0.0
134 1 12.59705589252195 6.200141486320398 0.0 0.0 0.0 0.0
135 1 14.656757213935949 6.727772917484914 0.0 0.0 0.0 0.0
136 1 15.364031257666245 6.735610276572842 0.0 0.0 0.0 0.0
137 2 16.419300351152465 7.077009519852759 0.0 0.0 0.0 0.0
138 1 17.215115922529787 6.318079731780448 0.0 0.0 0.0 0.0
139 1 17.874703833064416 6.216564702345229 0.0 0.0 0.0 0.0
140 2 18.851793318500302 6.718167341456883 0.0 0.0 0.0 0.0
141 1 19.804271050670888 7.287846067821161 0.0 0.0 0.0 0.0
142 2 1.140452642698917 7.233711596184943 0.0 0.0 0.0 0.0
143 2 2.429443950594634 7.507718598626786 0.0 0.0 0.0 0.0
144 2 3.6444749552048323 7.655223041876314 0.0 0.0 0.0 0.0
145 1 4.647420059198605 7.318876531801445 0.0 0.0 0.0 0.0
146 2 5.687948350299799 7.644423834855523 0.0 0.0 0.0 0.0
147 2 6.951889596336654 7.464243317696197 0.0 0.0 0.0 0.0
148 1 8.073693506577445 7.3610943474421715 0.0 0.0 0.0 0.0
149 1 8.34587112982788 8.003294042587001 0.0 0.0 0.0 0.0
150 1 9.422863536931505 7.496163372975674 0.0 0.0 0.0 0.0
151 1 10.797818110512168 7.782753083953857 0.0 0.0 0.0 0.0
152 1 11.458584391571254 7.694089625199526 0.0 0.0 0.0 0.0
153 1 11.922284824568843 7.210327876163105 0.0 0.0 0.0 0.0
154 2 13.017426788792678 7.159758052946074 0.0 0.0 0.0 0.0
155 1 14.102699007273337 7.107327835415283 0.0 0.0 0.0 0.0
156 2 14.963401154319019 7.793165274567429 0.0 0.0 0.0 0.0
157 2 16.12308071602105 8.258926871984388 0.0 0.0 0.0 0.0
158 2 17.67798540343066 7.335632769948641 0.0 0.0 0.0 0.0
159 1 18.685051923553726 7.7738862491001415 0.0 0.0 0.0 0.0
160 1 19.34100215880595 7.7737814825962674 0.0 0.0 0.0 0.0
161 2 0.5342720725702746 8.293150308608556 0.0 0.0 0.0 0.0
162 2 1.8420095523679723 8.656419062651395 0.0 0.0 0.0 0.0
163 1 2.9332073880320855 8.493502688550052 0.0 0.0 0.0 0.0
164 1 3.5576495718233114 8.756234782594392 0.0 0.0 0.0 0.0
165 2 4.654777997964854 8.411252692350612 0.0 0.0 0.0 0.0
166 1 5.777352011871145 8.73776141316341 0.0 0.0 0.0 0.0
167 1 6.393099640190979 8.44295494694555 0.0 0.0 0.0 0.0
168 2 7.464713510494411 8.595133051437871 0.0 0.0 0.0 0.0
169 1 9.031063585374694 8.082827670250152 0.0 0.0 0.0 0.0
170 1 9.686362600840756 8.12528649276833 0.0 0.0 0.0 0.0
171 1 10.33204938223376 8.246433199344672 0.0 0.0 0.0 0.0
172 2 11.26591984137129 8.79561373149902 0.0 0.0 0.0 0.0
173 2 12.415915581236812 8.227232833859318 0.0 0.0 0.0 0.0
174 2 13.723103193154536 8.16972979984638 0.0 0.0 0.0 0.0
175 1 14.559423815911632 8.85762849318902 0.0 0.0 0.0 0.0
176 1 15.213126374534939 8.869082311856564 0.0 0.0 0.0 0.0
177 1 15.730063042778163 9.27909007951454 0.0 0.0 0.0 0.0
178 2 17.283332842845244 8.701324905564608 0.0 0.0 0.0 0.0
179 1 18.28165030651076 8.278818537631123 0.0 0.0 0.0 0.0
180 1 18.99012590863944 8.37972509528886 0.0 0.0 0.0 0.0
181 1 0.9702589223011167 9.292340535827835 0.0 0.0 0.0 0.0
182 1 1.4772271235755858 9.77069821031563 0.0 0.0 0.0 0.0
183 2 2.77573458571759 9.584135085377614 0.0 0.0 0.0 0.0
184 1 3.9654081885271197 9.287346491831533 0.0 0.0 0.0 0.0
185 1 4.313337885276134 10.371976820320558 0.0 0.0 0.0 0.0
186 2 5.064495067445425 9.565706516463386 0.0 0.0 0.0 0.0
187 2 6.598907431108465 9.505013238885185 0.0 0.0 0.0 0.0
188 1 7.696834398625551 9.662136950973602 0.0 0.0 0.0 0.0
189 2 8.632571724788097 9.079901675347644 0.0 0.0 0.0 0.0
190 2 9.864307199151206 9.226715464025704 0.0 0.0 0.0 0.0
191 2 10.860060170077162 9.991978227731277 0.0 0.0 0.0 0.0
192 1 11.886794859191307 10.431054548236066 0.0 0.0 0.0 0.0
193 2 12.355931100711915 9.461183092786944 0.0 0.0 0.0 0.0
194 2 13.648347106407034 9.45669539177689 0.0 0.0 0.0 0.0
195 2 14.866856513052948 9.941668984589166 0.0 0.0 0.0 0.0
196 1 16.004583050830533 9.88975767978221 0.0 0.0 0.0 0.0
197 1 16.39023914051226 9.319570027824748 0.0 0.0 0.0 0.0
198 1 17.356586296394557 9.80702087632046 0.0 0.0 0.0 0.0
199 2 18.37232885197265 9.347380622522662 0.0 0.0 0.0 0.0
200 2 19.608253486891773 9.301898868912833 0.0 0.0 0.0 0.0
201 1 0.7707456407007266 9.912967984160796 0.0 0.0 0.0 0.0
202 1 2.2471493580393833 10.552097799129333 0.0 0.0 0.0 0.0
203 2 3.3357107957064036 10.95435723718701 0.0 0.0 0.0 0.0
204 1 3.817335089666707 9.936550527550896 0.0 0.0 0.0 0.0
205 1 4.434542853554691 11.02277151932022 0.0 0.0 0.0 0.0
206 1 4.944723140675283 10.622011423437817 0.0 0.0 0.0 0.0
207 2 6.020653161950881 10.569488946284297 0.0 0.0 0.0 0.0
208 2 7.255227541218084 10.656654699038368 0.0 0.0 0.0 0.0
209 2 8.569659160012812 10.334252208891277 0.0 0.0 0.0 0.0
210 1 9.723943822475718 10.338543790702737 0.0 0.0 0.0 0.0
211 1 10.182887045382115 10.855566228768575 0.0 0.0 0.0 0.0
212 1 11.432064347669284 10.92396727471001 0.0 0.0 0.0 0.0
213 2 13.017603417873795 10.537785798343776 0.0 0.0 0.0 0.0
214 2 14.190306466931384 11.098584330363584 0.0 0.0 0.0 0.0
215 1 15.292166660412978 10.942368038643357 0.0 0.0 0.0 0.0
216 1 15.854786213159546 10.543358076335663 0.0 0.0 0.0 0.0
217 1 16.684887173203773 9.90779021476638 0.0 0.0 0.0 0.0
218 1 17.0784689053819 10.436510795432813 0.0 0.0 0.0 0.0
219 2 18.177596964636866 10.555768267467617 0.0 0.0 0.0 0.0
220 2 19.62873143223668 10.550620285109893 0.0 0.0 0.0 0.0
221 2 1.1697550617016437 10.908526948072453 0.0 0.0 0.0 0.0
222 2 2.1574540251821843 11.649266388747291 0.0 0.0 0.0 0.0
223 1 3.157620142478307 12.036202880107592 0.0 0.0 0.0 0.0
224 1 3.7998040219357296 12.089211467776398 0.0 0.0 0.0 0.0
225 1 4.277058026534531 11.646821984586305 0.0 0.0 0.0 0.0
226 2 5.400993463426799 11.607459643692255 0.0 0.0 0.0 0.0
227 1 6.357261648305346 12.178811332924498 0.0 0.0 0.0 0.0
228 1 6.5918998429477185 11.547092292325013 0.0 0.0 0.0 0.0
229 2 8.028178628664874 11.603078110983626 0.0 0.0 0.0 0.0
230 2 9.232592699814035 11.363326119890663 0.0 0.0 0.0 0.0
231 1 10.802952688513898 11.1083208449693 0.0 0.0 0.0 0.0
232 1 12.071348821767744 11.075890621836662 0.0 0.0 0.0 0.0
233 1 12.524657318776097 11.551201014584297 0.0 0.0 0.0 0.0
234 1 13.184185534292448 11.614057989076148 0.0 0.0 0.0 0.0
235 2 15.148807686580659 12.02874147185751 0.0 0.0 0.0 0.0
236 1 15.907545625693324 11.209136365656851 0.0 0.0 0.0 0.0
237 1 16.515239416474248 10.854984937229982 0.0 0.0 0.0 0.0
238 1 17.204187428431094 11.084948214596109 0.0 0.0 0.0 0.0
239 1 17.697306326432567 11.551701938418278 0.0 0.0 0.0 0.0
240 2 18.890206395051607 11.557201293687632 0.0 0.0 0.0 0.0
241 1 0.28532672498492706 11.573065419153776 0.0 0.0 0.0 0.0
242 1 2.1356041122890463 12.761403393986326 0.0 0.0 0.0 0.0
243 1 2.7736200571929066 12.565402090772933 0.0 0.0 0.0 0.0
244 1 3.4582371771816707 12.675266083443955 0.0 0.0 0.0 0.0
245 2 4.734606584030687 12.633278672194315 0.0 0.0 0.0 0.0
246 1 5.83315929200902 12.597615320861905 0.0 0.0 0.0 0.0
247 1 7.033097344145051 12.110062838275445 0.0 0.0 0.0 0.0
248 1 7.56361064828048 12.577243465460208 0.0 0.0 0.0 0.0
249 1 8.244461890003713 12.675260327258693 0.0 0.0 0.0 0.0
250 1 8.863175804850808 12.379396942022085 0.0 0.0 0.0 0.0
251 2 10.245028652209594 12.025626570927113 0.0 0.0 0.0 0.0
252 2 11.50463558288285 12.027818023993678 0.0 0.0 0.0 0.0
253 2 12.65096503695351 12.628822149804762 0.0 0.0 0.0 0.0
254 2 13.914117822457388 12.393753749524357 0.0 0.0 0.0 0.0
255 2 14.668130195941908 13.348360518438971 0.0 0.0 0.0 0.0
256 2 15.868142167467374 13.059011377367382 0.0 0.0 0.0 0.0
257 2 16.638483257603948 12.002137833001587 0.0 0.0 0.0 0.0
258 2 18.15272218477693 12.53786244419839 0.0 0.0 0.0 0.0
259 1 19.24611203861361 12.606480788333684 0.0 0.0 0.0 0.0
260 1 19.778319013371547 12.184911702321592 0.0 0.0 0.0 0.0
261 2 1.1043835530057935 12.366601786423878 0.0 0.0 0.0 0.0
262 1 1.7411229710510154 13.300066013757245 0.0 0.0 0.0 0.0
263 2 2.842474995325483 13.638684798095781 0.0 0.0 0.0 0.0
264 1 3.8402776067130167 13.245447684160727 0.0 0.0 0.0 0.0
265 1 4.374784016872497 13.643349939953223 0.0 0.0 0.0 0.0
266 2 5.49184914535712 13.627981540069397 0.0 0.0 0.0 0.0
267 2 6.710302440245322 13.237850415368758 0.0 0.0 0.0 0.0
268 1 7.835262471322858 13.203795600845497 0.0 0.0 0.0 0.0
269 1 8.801084675566099 13.046852559563789 0.0 0.0 0.0 0.0
270 1 9.434732218588298 12.75600053619872 0.0 0.0 0.0 0.0
271 2 10.581223384494377 13.211921178081106 0.0 0.0 0.0 0.0
272 1 11.67348698302209 13.134334798911906 0.0 0.0 0.0 0.0
273 2 12.162263874767437 14.126111939811025 0.0 0.0 0.0 0.0
274 2 13.387760843324287 13.641201528676936 0.0 0.0 0.0 0.0
275 1 14.901606963224882 14.401744522824789 0.0 0.0 0.0 0.0
276 1 15.506660252241758 14.089739241265116 0.0 0.0 0.0 0.0
277 2 17.07793275427114 13.163524894032998 0.0 0.0 0.0 0.0
278 1 18.0941156904915 13.604522405005559 0.0 0.0 0.0 0.0
279 2 19.20487329663449 13.711131609183651 0.0 0.0 0.0 0.0
280 1 19.873498729029873 12.842881032622957 0.0 0.0 0.0 0.0
281 1 1.7935367179458714 13.97101123987358 0.0 0.0 0.0 0.0
282 1 2.203674035624835 14.505807611736243 0.0 0.0 0.0 0.0
283 1 3.408071065286748 14.562586984911912 0.0 0.0 0.0 0.0
284 1 3.909817434703536 14.120332291542223 0.0 0.0 0.0 0.0
285 1 4.601208025695702 14.259046511328224 0.0 0.0 0.0 0.0
286 1 5.14360041241989 14.667959789390764 0.0 0.0 0.0 0.0
287 2 7.453458257348454 14.228208110639681 0.0 0.0 0.0 0.0
288 1 8.398398800945722 13.597827708727328 0.0 0.0 0.0 0.0
289 1 8.52741540887885 14.271431595910455 0.0 0.0 0.0 0.0
290 2 9.52387381720341 13.854893849717966 0.0 0.0 0.0 0.0
291 2 10.606843208960068 14.511785293138626 0.0 0.0 0.0 0.0
292 1 11.55413498315522 15.042144949422578 0.0 0.0 0.0 0.0
293 1 12.17555052957573 15.2506652649076 0.0 0.0 0.0 0.0
294 2 13.187985045890414 14.926012721300893 0.0 0.0 0.0 0.0
295 1 14.213541351606771 14.348931743605922 0.0 0.0 0.0 0.0
296 1 15.49961751970327 14.763054508033342 0.0 0.0 0.0 0.0
297 1 17.617738197838047 14.078377174920067 0.0 0.0 0.0 0.0
298 1 18.2674609616826 14.236779382964691 0.0 0.0 0.0 0.0
299 1 18.702065771812823 14.735883573056595 0.0 0.0 0.0 0.0
300 2 0.7220755102854355 13.738988195315821 0.0 0.0 0.0 0.0
301 2 1.2132284779007592 14.908451643231745 0.0 0.0 0.0 0.0
302 1 2.25456442007418 15.178043823124765 0.0 0.0 0.0 0.0
303 1 2.7998187086631634 14.795613865320911 0.0 0.0 0.0 0.0
304 2 4.211243455561026 15.255304096315493 0.0 0.0 0.0 0.0
305 1 5.322694868499647 15.31546718077993 0.0 0.0 0.0 0.0
306 2 6.245534164190744 14.623348726008382 0.0 0.0 0.0 0.0
307 1 7.154013755918862 15.260149205002467 0.0 0.0 0.0 0.0
308 1 7.821782724604528 15.39075654085529 0.0 0.0 0.0 0.0
309 1 8.959138053138316 14.785328341754802 0.0 0.0 0.0 0.0
310 1 9.597742628999507 14.974665598705757 0.0 0.0 0.0 0.0
311 2 10.101239594961985 15.941219015200694 0.0 0.0 0.0 0.0
312 1 11.0851282450573 15.509817759973298 0.0 0.0 0.0 0.0
313 1 11.71860036971086 15.734776719475015 0.0 0.0 0.0 0.0
314 1 12.504025417995539 15.842001004365496 0.0 0.0 0.0 0.0
315 1 14.242212990107738 15.004220475277105 0.0 0.0 0.0 0.0
316 1 14.882685327635201 15.055172438257012 0.0 0.0 0.0 0.0
317 2 16.56654972168334 14.437594339660576 0.0 0.0 0.0 0.0
318 2 17.698408246491 15.142314724058274 0.0 0.0 0.0 0.0
319 1 18.781619353613625 15.420874578945604 0.0 0.0 0.0 0.0
320 2 19.755589343296542 14.878922933774543 0.0 0.0 0.0 0.0
321 1 0.6054641657419568 15.78548087919745 0.0 0.0 0.0 0.0
322 2 1.768502481535441 16.16030390975619 0.0 0.0 0.0 0.0
323 2 3.091493997358827 15.860329013476404 0.0 0.0 0.0 0.0
324 1 4.513595773762089 16.26173273669114 0.0 0.0 0.0 0.0
325 1 5.1356124693712495 15.981924008271209 0.0 0.0 0.0 0.0
326 2 6.257392927633086 15.87445829203157 0.0 0.0 0.0 0.0
327 1 7.361909698831917 15.890058602582142 0.0 0.0 0.0 0.0
328 1 7.878080086745025 16.304902842978844 0.0 0.0 0.0 0.0
329 1 8.301595928950723 14.915698215171387 0.0 0.0 0.0 0.0
330 2 8.856768447217346 15.867727247003224 0.0 0.0 0.0 0.0
331 1 11.188959011266387 16.18053517561832 0.0 0.0 0.0 0.0
332 1 11.536771459367248 16.75040238733199 0.0 0.0 0.0 0.0
333 1 12.035753789006845 16.32726532511256 0.0 0.0 0.0 0.0
334 1 13.15165032194234 16.04695264694987 0.0 0.0 0.0 0.0
335 2 14.26139460466002 16.0848709678038 0.0 0.0 0.0 0.0
336 2 15.54336450178805 15.86559730761539 0.0 0.0 0.0 0.0
337 2 16.728168371266563 15.818808498678486 0.0 0.0 0.0 0.0
338 1 17.761304466250817 16.222416826326562 0.0 0.0 0.0 0.0
339 1 18.390283654393492 15.98355031008466 0.0 0.0 0.0 0.0
340 2 19.411839709757107 16.347666927163743 0.0 0.0 0.0 0.0
341 1 0.7247203964311217 16.4224174411307 0.0 0.0 0.0 0.0
342 1 2.0311793897862156 17.322464171952326 0.0 0.0 0.0 0.0
343 1 2.5636135833353184 16.910296002393743 0.0 0.0 0.0 0.0
344 2 3.6389933855192313 16.953958521679393 0.0 0.0 0.0 0.0
345 1 4.690636950966023 16.878728254388193 0.0 0.0 0.0 0.0
346 2 5.724726275706096 16.97357679904306 0.0 0.0 0.0 0.0
347 2 6.9882937979365645 16.924960849224995 0.0 0.0 0.0 0.0
348 2 8.379881257721772 17.287365127396935 0.0 0.0 0.0 0.0
349 1 9.485679518275592 17.487935985646338 0.0 0.0 0.0 0.0
350 1 9.416986198583968 16.8203438510474 0.0 0.0 0.0 0.0
351 2 10.510765401215444 17.115249152760466 0.0 0.0 0.0 0.0
352 1 11.571934826430859 17.40567381476723 0.0 0.0 0.0 0.0
353 1 12.666955166975418 16.54615825528735 0.0 0.0 0.0 0.0
354 1 13.312644436206341 16.709085413003272 0.0 0.0 0.0 0.0
355 1 15.113429555051368 16.82790091224151 0.0 0.0 0.0 0.0
356 2 16.235413230538423 16.978059914999186 0.0 0.0 0.0 0.0
357 1 17.26520371829835 17.382711188201803 0.0 0.0 0.0 0.0
358 1 17.333350514120514 16.72923751112364 0.0 0.0 0.0 0.0
359 2 18.40973702387542 17.09888441304339 0.0 0.0 0.0 0.0
360 1 19.50478252389715 17.48095310718302 0.0 0.0 0.0 0.0
361 2 0.9226578889893969 17.459682611923167 0.0 0.0 0.0 0.0
362 1 1.887057725848029 17.9985647690908 0.0 0.0 0.0 0.0
363 2 2.9818272669611487 17.98850619429015 0.0 0.0 0.0 0.0
364 1 4.092624148084877 17.950656815722436 0.0 0.0 0.0 0.0
365 1 4.61934809734636 17.52473956435929 0.0 0.0 0.0 0.0
366 2 6.329828306581585 18.026309097105525 0.0 0.0 0.0 0.0
367 1 7.4237090732376085 17.915546847933363 0.0 0.0 0.0 0.0
368 1 7.953966373321169 18.304579494033533 0.0 0.0 0.0 0.0
369 1 8.607157563767734 18.40361734144174 0.0 0.0 0.0 0.0
370 1 9.167682833657087 18.07052513444331 0.0 0.0 0.0 0.0
371 2 10.195693929549043 18.378105615324024 0.0 0.0 0.0 0.0
372 1 11.211555071708624 17.973882652963386 0.0 0.0 0.0 0.0
373 1 12.171675504435424 17.042348842567886 0.0 0.0 0.0 0.0
374 1 13.048295488297168 17.36548579063407 0.0 0.0 0.0 0.0
375 2 14.177464214545532 17.355261580764623 0.0 0.0 0.0 0.0
376 2 15.345837349942236 17.87337035052828 0.0 0.0 0.0 0.0
377 2 16.56960307228039 18.24296708450514 0.0 0.0 0.0 0.0
378 1 17.67112885518953 17.896666533483817 0.0 0.0 0.0 0.0
379 2 18.716705627262538 18.312369110321686 0.0 0.0 0.0 0.0
380 1 19.798853633851024 18.106192010687415 0.0 0.0 0.0 0.0
381 2 1.0132104070679795 18.680826551742722 0.0 0.0 0.0 0.0
382 1 2.1183082073669506 18.649604070424957 0.0 0.0 0.0 0.0
383 2 3.071644387678228 19.29322375183498 0.0 0.0 0.0 0.0
384 1 3.9265052852323055 18.599288301098035 0.0 0.0 0.0 0.0
385 2 5.048017862381711 18.507316792989982 0.0 0.0 0.0 0.0
386 1 5.977964294086113 19.04196860450364 0.0 0.0 0.0 0.0
387 2 7.116262106112708 19.001863377421166 0.0 0.0 0.0 0.0
388 1 8.209286101793666 18.93094418297698 0.0 0.0 0.0 0.0
389 1 8.760249206029993 19.31179564018855 0.0 0.0 0.0 0.0
390 1 9.170156995883639 18.773558074477577 0.0 0.0 0.0 0.0
391 1 10.897549208953357 19.225506634538224 0.0 0.0 0.0 0.0
392 1 11.261959549242162 18.647643650316276 0.0 0.0 0.0 0.0
393 2 12.285516661198738 18.206759783111234 0.0 0.0 0.0 0.0
394 1 13.342356424489738 18.031723770643293 0.0 0.0 0.0 0.0
395 2 14.287494165357801 18.611533935377988 0.0 0.0 0.0 0.0
396 2 15.42379481376716 19.08173594489391 0.0 0.0 0.0 0.0
397 2 16.55611072989357 19.55498636710001 0.0 0.0 0.0 0.0
398 2 17.618396879482898 18.95640664980905 0.0 0.0 0.0 0.0
399 1 18.589864136120656 19.423965386336064 0.0 0.0 0.0 0.0
400 2 19.64082991557077 19.205955446651856 0.0 0.0 0.0 0.0
