ITEM: TIMESTEP
1
ITEM: NUMBER OF ATOMS
100
ITEM: BOX BOUNDS xy xz yz pp pp pp
0.0 9.89045 0.0
0.0 10.448721276473842 0.0
0.0 10.0 3.164816442e-314
ITEM: ATOMS id type x y z vx vy vz
1 1 0.9539487403185701 0.198812737405937 0.0 0.0 0.0 0.0
2 1 0.9999528503812682 0.8680391364331264 0.0 0.0 0.0 0.0
3 2 2.0536799038411275 0.5067241600765754 0.0 0.0 0.0 0.0
4 1 3.1288726139668626 0.0006898061388043761 0.0 0.0 0.0 0.0
5 2 4.209409504389509 0.32398270861483397 0.0 0.0 0.0 0.0
6 1 5.294504862984352 0.7837286291390467 0.0 0.0 0.0 0.0
7 1 5.956436700622734 1.0514286088838523 0.0 0.0 0.0 0.0
8 2 6.926742046562254 0.38412990842725797 0.0 0.0 0.0 0.0
9 2 8.25879883910131 0.37520964278568436 0.0 0.0 0.0 0.0
10 2 9.800639496271872 0.6755295537780651 0.0 0.0 0.0 0.0
11 1 0.6696294067643066 1.4671457257023668 0.0 0.0 0.0 0.0
12 1 1.3306017389275586 1.4487819632494165 0.0 0.0 0.0 0.0
13 2 2.304353337850669 1.8808354424345037 0.0 0.0 0.0 0.0
14 2 3.2669577817617497 1.117043301838527 0.0 0.0 0.0 0.0
15 2 4.525460060512142 1.5765415801923737 0.0 0.0 0.0 0.0
16 2 5.641171491678219 2.1243636918558817 0.0 0.0 0.0 0.0
17 1 6.515435561705129 1.4554627465921102 0.0 0.0 0.0 0.0
18 2 7.605940194921117 1.4973271969798387 0.0 0.0 0.0 0.0
19 2 8.878405525624611 1.5425853635620284 0.0 0.0 0.0 0.0
20 1 0.07628883175745535 1.7644181135388253 0.0 0.0 0.0 0.0
21 2 0.8800239994052146 2.558308269244057 0.0 0.0 0.0 0.0
22 1 1.9309057367752358 2.927249599598446 0.0 0.0 0.0 0.0
23 1 2.612390497863081 2.910886179751381 0.0 0.0 0.0 0.0
24 2 3.5868112861915984 2.4099047717923394 0.0 0.0 0.0 0.0
25 1 4.670673644777782 2.7639135168014692 0.0 0.0 0.0 0.0
26 1 5.25303910990409 3.158524723580995 0.0 0.0 0.0 0.0
27 1 5.947807091919076 3.1917929323549235 0.0 0.0 0.0 0.0
28 2 6.880160423528983 2.59544231364067 0.0 0.0 0.0 0.0
29 2 8.190746964843814 2.6456579240759717 0.0 0.0 0.0 0.0
30 2 9.44368781657234 2.7073134009557425 0.0 0.0 0.0 0.0
31 1 0.2238485687883746 3.556800199935025 0.0 0.0 0.0 0.0
32 2 1.2830427297077454 3.8330719883534243 0.0 0.0 0.0 0.0
33 1 2.307364329809732 3.494722160266856 0.0 0.0 0.0 0.0
34 2 3.390864437867443 3.6751426695275082 0.0 0.0 0.0 0.0
35 2 4.546048858285234 4.01453269325862 0.0 0.0 0.0 0.0
36 1 5.594390344085371 3.762259699719292 0.0 0.0 0.0 0.0
37 2 6.628394900408082 4.09486084749787 0.0 0.0 0.0 0.0
38 1 7.574800882112272 3.5459582269285232 0.0 0.0 0.0 0.0
39 1 8.796740532573345 3.6027429909724433 0.0 0.0 0.0 0.0
40 1 9.456502524287117 3.8291532426873403 0.0 0.0 0.0 0.0
41 2 0.3239487488477025 4.663119470292903 0.0 0.0 0.0 0.0
42 1 1.4571778284186225 4.926219357696377 0.0 0.0 0.0 0.0
43 2 2.524311274919893 4.565908389689708 0.0 0.0 0.0 0.0
44 1 3.684662347009132 4.772634298731098 0.0 0.0 0.0 0.0
45 1 4.307975950898842 5.11608880663791 0.0 0.0 0.0 0.0
46 1 5.09821920688289 4.958700968707536 0.0 0.0 0.0 0.0
47 1 5.5724567070706525 4.459371859962114 0.0 0.0 0.0 0.0
48 1 7.159715718757171 5.05195586546229 0.0 0.0 0.0 0.0
49 2 8.169964536275945 4.516747565165707 0.0 0.0 0.0 0.0
50 1 9.161032361546964 5.06227275198481 0.0 0.0 0.0 0.0
51 1 9.68572852262874 6.25532999427283 0.0 0.0 0.0 0.0
52 2 0.8392651073780483 5.839861433595466 0.0 0.0 0.0 0.0
53 2 2.223720618232217 5.76284822242129 0.0 0.0 0.0 0.0
54 1 3.3063484840518647 5.3499530757136675 0.0 0.0 0.0 0.0
55 1 3.9029675785807623 5.692300054599901 0.0 0.0 0.0 0.0
56 2 4.962863330408178 6.04094133469365 0.0 0.0 0.0 0.0
57 2 6.123765772122372 5.439106040386141 0.0 0.0 0.0 0.0
58 1 7.646784979952871 5.497111889631341 0.0 0.0 0.0 0.0
59 2 8.589943636163403 6.035059474967176 0.0 0.0 0.0 0.0
60 1 9.615265271679991 5.584895236469068 0.0 0.0 0.0 0.0
61 2 0.5499422208352391 7.056735233447689 0.0 0.0 0.0 0.0
62 2 1.8895636546686716 6.970581393188533 0.0 0.0 0.0 0.0
63 1 2.9432336859294628 6.617088659428326 0.0 0.0 0.0 0.0
64 1 3.302629364088135 6.0313503592705295 0.0 0.0 0.0 0.0
65 1 5.44797838323771 7.0406107269179845 0.0 0.0 0.0 0.0
66 1 5.957779839405362 6.556431568320663 0.0 0.0 0.0 0.0
67 2 7.086034909573758 6.438631935510504 0.0 0.0 0.0 0.0
68 1 8.053509005055348 7.015399515516746 0.0 0.0 0.0 0.0
69 1 8.71089360377676 7.153267003635868 0.0 0.0 0.0 0.0
70 1 9.338938735618186 6.843080630801693 0.0 0.0 0.0 0.0
71 1 0.6880989192354431 8.13551460937878 0.0 0.0 0.0 0.0
72 1 1.2956514450994951 7.879337869087803 0.0 0.0 0.0 0.0
73 1 2.9783421916500306 7.299744904417201 0.0 0.0 0.0 0.0
74 2 4.024562147252991 6.872039057597136 0.0 0.0 0.0 0.0
75 1 4.685716823078752 7.75631765769805 0.0 0.0 0.0 0.0
76 1 5.360174456505694 7.7227437766459905 0.0 0.0 0.0 0.0
77 2 6.457419157741982 7.557897838380938 0.0 0.0 0.0 0.0
78 1 7.570591813558838 7.47412515060912 0.0 0.0 0.0 0.0
79 1 8.248956673243686 7.720475460719666 0.0 0.0 0.0 0.0
80 2 9.480890180772006 7.931600714012961 0.0 0.0 0.0 0.0
81 2 0.23586295603259774 9.104361597479128 0.0 0.0 0.0 0.0
82 1 1.2396528850401067 8.554243666645267 0.0 0.0 0.0 0.0
83 2 2.335820830684083 8.212355132485143 0.0 0.0 0.0 0.0
84 2 3.6628605714415525 8.198581924035004 0.0 0.0 0.0 0.0
85 2 5.06270361932575 8.808359577075 0.0 0.0 0.0 0.0
86 1 6.192795343603162 8.63593428302232 0.0 0.0 0.0 0.0
87 2 5.999307491958487 9.728714177901333 0.0 0.0 0.0 0.0
88 2 7.333865575508244 8.548348347170641 0.0 0.0 0.0 0.0
89 1 8.472217648520335 8.439772000818804 0.0 0.0 0.0 0.0
90 1 9.018470410721708 8.91082708642976 0.0 0.0 0.0 0.0
91 1 0.46642915864810813 10.179611402594956 0.0 0.0 0.0 0.0
92 2 1.4274517486773355 9.646251598328757 0.0 0.0 0.0 0.0
93 2 2.6578442783947804 9.442909588373631 0.0 0.0 0.0 0.0
94 2 3.9065754861952313 9.51748643091296 0.0 0.0 0.0 0.0
95 1 4.924518041320528 9.92591932257482 0.0 0.0 0.0 0.0
96 1 5.253772860687071 0.0811277741113301 0.0 0.0 0.0 0.0
97 1 5.842937979693002 0.38565678190194697 0.0 0.0 0.0 0.0
98 1 7.074128702645018 9.702597969595335 0.0 0.0 0.0 0.0
99 2 8.128718406354977 9.525608676926824 0.0 0.0 0.0 0.0
100 2 9.264076642745037 10.0055354081222 0.0 0.0 0.0 0.0
ITEM: TIMESTEP
2
ITEM: NUMBER OF ATOMS
100
ITEM: BOX BOUNDS xy xz yz pp pp pp
0.0 9.90045 0.0
0.0 10.501640737500008 0.0
0.0 10.0 3.164816442e-314
ITEM: ATOMS id type x y z vx vy vz
1 1 0.9575743960176805 0.19351727461814724 0.0 0.0 0.0 0.0
2 1 1.0046524692307743 0.8653598874291485 0.0 0.0 0.0 0.0
3 2 2.0574821840310396 0.5031751841282343 0.0 0.0 0.0 0.0
4 1 3.1312122722265223 10.49800807725309 0.0 0.0 0.0 0.0
5 2 4.2116275808806884 0.323331646500308 0.0 0.0 0.0 0.0
6 1 5.293108116453963 0.7831625814889271 0.0 0.0 0.0 0.0
7 1 5.954466246690204 1.0594277710927633 0.0 0.0 0.0 0.0
8 2 6.9282309337281935 0.3934203853034513 0.0 0.0 0.0 0.0
9 2 8.262961757348195 0.3757114130064625 0.0 0.0 0.0 0.0
10 2 9.816461934340015 0.6763292035994305 0.0 0.0 0.0 0.0
11 1 0.6782616094985994 1.4692774043961025 0.0 0.0 0.0 0.0
12 1 1.3409874795105987 1.4441033420630853 0.0 0.0 0.0 0.0
13 2 2.306210530540266 1.9020176787019263 0.0 0.0 0.0 0.0
14 2 3.2622133739386907 1.11769222200582 0.0 0.0 0.0 0.0
15 2 4.527183975115342 1.5806472337101725 0.0 0.0 0.0 0.0
16 2 5.641862440944983 2.1385767600891112 0.0 0.0 0.0 0.0
17 1 6.51635926598663 1.4662752609699068 0.0 0.0 0.0 0.0
18 2 7.6105727459461745 1.5064030001507729 0.0 0.0 0.0 0.0
19 2 8.892292819305172 1.546135730740733 0.0 0.0 0.0 0.0
20 1 0.0833095641075544 1.7684628717569006 0.0 0.0 0.0 0.0
21 2 0.8918273343969109 2.5625142016243805 0.0 0.0 0.0 0.0
22 1 1.937618712552795 2.9521983313416724 0.0 0.0 0.0 0.0
23 1 2.6190796556796445 2.9335160731840086 0.0 0.0 0.0 0.0
24 2 3.5874121870166227 2.418615989331425 0.0 0.0 0.0 0.0
25 1 4.672205631987839 2.770560660054102 0.0 0.0 0.0 0.0
26 1 5.246529614200263 3.1804551611313836 0.0 0.0 0.0 0.0
27 1 5.944235849982028 3.203460771088224 0.0 0.0 0.0 0.0
28 2 6.88790046743866 2.6179309368398065 0.0 0.0 0.0 0.0
29 2 8.207038013065013 2.650204085891016 0.0 0.0 0.0 0.0
30 2 9.463632951591704 2.7169871752351615 0.0 0.0 0.0 0.0
31 1 0.2297447210212753 3.573366358716478 0.0 0.0 0.0 0.0
32 2 1.2885125671911744 3.857345409155087 0.0 0.0 0.0 0.0
33 1 2.3166610268549648 3.5201677112362546 0.0 0.0 0.0 0.0
34 2 3.4048607852150505 3.6933802004817324 0.0 0.0 0.0 0.0
35 2 4.55892299641677 4.065277596897173 0.0 0.0 0.0 0.0
36 1 5.60103108500797 3.7805675759592643 0.0 0.0 0.0 0.0
37 2 6.646996619496264 4.085730691368985 0.0 0.0 0.0 0.0
38 1 7.607284011335964 3.5616020374457174 0.0 0.0 0.0 0.0
39 1 8.809167523407211 3.611518664343984 0.0 0.0 0.0 0.0
40 1 9.469715708848147 3.8405114501877784 0.0 0.0 0.0 0.0
41 2 0.31911004078446115 4.6855128075453925 0.0 0.0 0.0 0.0
42 1 1.4579626433079058 4.953971959618954 0.0 0.0 0.0 0.0
43 2 2.5312082309734794 4.5937507089096625 0.0 0.0 0.0 0.0
44 1 3.673288699362456 4.79562886611789 0.0 0.0 0.0 0.0
45 1 4.276415719163049 5.159950962813723 0.0 0.0 0.0 0.0
46 1 5.146942528088426 4.988183676718904 0.0 0.0 0.0 0.0
47 1 5.605326795170536 4.479988164966145 0.0 0.0 0.0 0.0
48 1 7.179948696465024 5.0446924037342304 0.0 0.0 0.0 0.0
49 2 8.193912088247279 4.538710510725501 0.0 0.0 0.0 0.0
50 1 9.171022350290745 5.097657609221892 0.0 0.0 0.0 0.0
51 1 9.68904960286072 6.288140314273323 0.0 0.0 0.0 0.0
52 2 0.8342738371379853 5.868238557882886 0.0 0.0 0.0 0.0
53 2 2.224073048192249 5.79449715408724 0.0 0.0 0.0 0.0
54 1 3.3124417667198114 5.38665380349763 0.0 0.0 0.0 0.0
55 1 3.900458419437004 5.746760569260947 0.0 0.0 0.0 0.0
56 2 4.96959170978633 6.065885189118008 0.0 0.0 0.0 0.0
57 2 6.159061661252543 5.472478614323929 0.0 0.0 0.0 0.0
58 1 7.64437257351585 5.517794520709152 0.0 0.0 0.0 0.0
59 2 8.590088473846311 6.066887946872544 0.0 0.0 0.0 0.0
60 1 9.623330180757934 5.616706027356973 0.0 0.0 0.0 0.0
61 2 0.5440203965887335 7.09122842756333 0.0 0.0 0.0 0.0
62 2 1.8874027235187185 7.0077011026143055 0.0 0.0 0.0 0.0
63 1 2.9417078767122407 6.65719046617559 0.0 0.0 0.0 0.0
64 1 3.2977936279630913 6.071260105184227 0.0 0.0 0.0 0.0
65 1 5.451666124226165 7.070106619521787 0.0 0.0 0.0 0.0
66 1 5.965367749718085 6.5881229383389694 0.0 0.0 0.0 0.0
67 2 7.096762245106401 6.474959469307174 0.0 0.0 0.0 0.0
68 1 8.0581707624478 7.055435279953603 0.0 0.0 0.0 0.0
69 1 8.716181695683115 7.186531737058137 0.0 0.0 0.0 0.0
70 1 9.342523862479025 6.876805665425417 0.0 0.0 0.0 0.0
71 1 0.6800839214265046 8.173417157485503 0.0 0.0 0.0 0.0
72 1 1.288611374060382 7.916297118821252 0.0 0.0 0.0 0.0
73 1 2.9774694097253107 7.340466402116657 0.0 0.0 0.0 0.0
74 2 4.027546611766555 6.909700120161487 0.0 0.0 0.0 0.0
75 1 4.678536426071419 7.805197166225629 0.0 0.0 0.0 0.0
76 1 5.353155575322185 7.753496722804173 0.0 0.0 0.0 0.0
77 2 6.4558247191165545 7.598336892227427 0.0 0.0 0.0 0.0
78 1 7.572634589214367 7.514028127251193 0.0 0.0 0.0 0.0
79 1 8.254276404000436 7.758495514767576 0.0 0.0 0.0 0.0
80 2 9.482188289866958 7.9693085929338325 0.0 0.0 0.0 0.0
81 2 0.23500278682200085 9.148752948820723 0.0 0.0 0.0 0.0
82 1 1.2331280977585064 8.592640668496918 0.0 0.0 0.0 0.0
83 2 2.3292507265701077 8.253031521368367 0.0 0.0 0.0 0.0
84 2 3.6548886681462323 8.244651208408417 0.0 0.0 0.0 0.0
85 2 5.074429120873728 8.851522361034062 0.0 0.0 0.0 0.0
86 1 6.20440799276864 8.684664337340408 0.0 0.0 0.0 0.0
87 2 6.006843543206397 9.781570031201193 0.0 0.0 0.0 0.0
88 2 7.342966510326532 8.591797988795491 0.0 0.0 0.0 0.0
89 1 8.480083956548429 8.486438556262891 0.0 0.0 0.0 0.0
90 1 9.028727433973339 8.956328466254812 0.0 0.0 0.0 0.0
91 1 0.46741676662410553 10.227403623577265 0.0 0.0 0.0 0.0
92 2 1.425988899970824 9.687399858210572 0.0 0.0 0.0 0.0
93 2 2.660395549159143 9.487601371189031 0.0 0.0 0.0 0.0
94 2 3.9109893637898003 9.565998129887921 0.0 0.0 0.0 0.0
95 1 4.929465048530337 9.974194971440237 0.0 0.0 0.0 0.0
96 1 5.257173525010297 0.0787139514378022 0.0 0.0 0.0 0.0
97 1 5.844250799884042 0.3896313032658241 0.0 0.0 0.0 0.0
98 1 7.0839907668196105 9.762844734014397 0.0 0.0 0.0 0.0
99 2 8.137873091921463 9.5722426612674 0.0 0.0 0.0 0.0
100 2 9.274034752485344 10.05584544101656 0.0 0.0 0.0 0.0
ITEM: TIMESTEP
3
ITEM: NUMBER OF ATOMS
100
ITEM: BOX BOUNDS xy xz yz pp pp pp
0.0 9.910449999999999 0.0
0.0 10.495238448139354 0.0
0.0 10.0 3.164816442e-314
ITEM: ATOMS id type x y z vx vy vz
1 1 0.9588794388272905 0.19360873788397576 0.0 0.0 0.0 0.0
2 1 1.0060843697435058 0.8655056870530328 0.0 0.0 0.0 0.0
3 2 2.0595041856670093 0.5037779535296767 0.0 0.0 0.0 0.0
4 1 3.136559735781429 10.492441098767797 0.0 0.0 0.0 0.0
5 2 4.217760603695927 0.32391781896443483 0.0 0.0 0.0 0.0
6 1 5.300576612273295 0.7848781587599968 0.0 0.0 0.0 0.0
7 1 5.963440929331413 1.0593442453716961 0.0 0.0 0.0 0.0
8 2 6.935635221056335 0.3930517538971613 0.0 0.0 0.0 0.0
9 2 8.27137815513768 0.37596340806704837 0.0 0.0 0.0 0.0
10 2 9.827417414971507 0.6762332898673806 0.0 0.0 0.0 0.0
11 1 0.6788576095861137 1.4690607570525955 0.0 0.0 0.0 0.0
12 1 1.3416530934602287 1.4448507837418019 0.0 0.0 0.0 0.0
13 2 2.308970953358134 1.8986515103092803 0.0 0.0 0.0 0.0
14 2 3.2676158831136752 1.1177640315284327 0.0 0.0 0.0 0.0
15 2 4.532628515960839 1.5808178906947312 0.0 0.0 0.0 0.0
16 2 5.6483148596261294 2.1368000195952876 0.0 0.0 0.0 0.0
17 1 6.524945598033476 1.4666547363937845 0.0 0.0 0.0 0.0
18 2 7.619416736615294 1.5066892021879243 0.0 0.0 0.0 0.0
19 2 8.90184980412368 1.5459365094346496 0.0 0.0 0.0 0.0
20 1 0.08363275907489616 1.7680642050297788 0.0 0.0 0.0 0.0
21 2 0.8925027819598695 2.561966204009611 0.0 0.0 0.0 0.0
22 1 1.9399199648399883 2.9487501210392706 0.0 0.0 0.0 0.0
23 1 2.621794289339654 2.930280706529141 0.0 0.0 0.0 0.0
24 2 3.5917635015569305 2.417714658312297 0.0 0.0 0.0 0.0
25 1 4.677473506593985 2.7690144943918917 0.0 0.0 0.0 0.0
26 1 5.2525025811772865 3.1778082000688985 0.0 0.0 0.0 0.0
27 1 5.950492877225734 3.2020855506881687 0.0 0.0 0.0 0.0
28 2 6.894380440548518 2.616390078589737 0.0 0.0 0.0 0.0
29 2 8.215310172825573 2.6518629167113197 0.0 0.0 0.0 0.0
30 2 9.472645123087151 2.715702738113383 0.0 0.0 0.0 0.0
31 1 0.23170656034835777 3.570036174431279 0.0 0.0 0.0 0.0
32 2 1.2907396942051597 3.8542379996175744 0.0 0.0 0.0 0.0
33 1 2.3189044491067095 3.5167759064884194 0.0 0.0 0.0 0.0
34 2 3.406990702630213 3.6911636071446834 0.0 0.0 0.0 0.0
35 2 4.562141263260606 4.0601386192302025 0.0 0.0 0.0 0.0
36 1 5.605448257559223 3.778232177964116 0.0 0.0 0.0 0.0
37 2 6.650584340098051 4.0870595346100975 0.0 0.0 0.0 0.0
38 1 7.610002455101376 3.560288579845428 0.0 0.0 0.0 0.0
39 1 8.820330335280287 3.611825487616213 0.0 0.0 0.0 0.0
40 1 9.481747462391898 3.8382158458272215 0.0 0.0 0.0 0.0
41 2 0.32090847608127704 4.682060309685368 0.0 0.0 0.0 0.0
42 1 1.4600866168157394 4.9508750647659205 0.0 0.0 0.0 0.0
43 2 2.533478679030916 4.590493631461578 0.0 0.0 0.0 0.0
44 1 3.6772548547454167 4.792691965724505 0.0 0.0 0.0 0.0
45 1 4.281615864756118 5.155724237843614 0.0 0.0 0.0 0.0
46 1 5.147946608616322 4.98479746992314 0.0 0.0 0.0 0.0
47 1 5.607093406687059 4.477066562141838 0.0 0.0 0.0 0.0
48 1 7.185727722252419 5.045185041470134 0.0 0.0 0.0 0.0
49 2 8.200069757119262 4.535918487579191 0.0 0.0 0.0 0.0
50 1 9.180794791927315 5.0915277595070805 0.0 0.0 0.0 0.0
51 1 9.698853064479897 6.283074022371874 0.0 0.0 0.0 0.0
52 2 0.8345687949742131 5.863959205706844 0.0 0.0 0.0 0.0
53 2 2.22670296094259 5.790931991540212 0.0 0.0 0.0 0.0
54 1 3.3150879780567313 5.382896292743715 0.0 0.0 0.0 0.0
55 1 3.9037839612683096 5.742181883459176 0.0 0.0 0.0 0.0
56 2 4.972932137374162 6.062935935356466 0.0 0.0 0.0 0.0
57 2 6.161862434352232 5.467372101249033 0.0 0.0 0.0 0.0
58 1 7.653282239930893 5.515153464649298 0.0 0.0 0.0 0.0
59 2 8.600134157117296 6.06142547633563 0.0 0.0 0.0 0.0
60 1 9.633029336939565 5.611491520413282 0.0 0.0 0.0 0.0
61 2 0.5437068614540057 7.0862106977489 0.0 0.0 0.0 0.0
62 2 1.889204356180034 7.003523600273302 0.0 0.0 0.0 0.0
63 1 2.944140658681617 6.653309656478752 0.0 0.0 0.0 0.0
64 1 3.3008793174695747 6.0673842271185245 0.0 0.0 0.0 0.0
65 1 5.458046778956602 7.065250195223798 0.0 0.0 0.0 0.0
66 1 5.970678032593344 6.583019419182334 0.0 0.0 0.0 0.0
67 2 7.102133646384133 6.469723175804884 0.0 0.0 0.0 0.0
68 1 8.065788191947888 7.049050374801717 0.0 0.0 0.0 0.0
69 1 8.724250615706918 7.18133495014352 0.0 0.0 0.0 0.0
70 1 9.351725128091207 6.871717147058375 0.0 0.0 0.0 0.0
71 1 0.6800356682272254 8.16795451282517 0.0 0.0 0.0 0.0
72 1 1.2888839183305734 7.911064350114994 0.0 0.0 0.0 0.0
73 1 2.979126323503146 7.336607699419513 0.0 0.0 0.0 0.0
74 2 4.02991520164901 6.906275942267243 0.0 0.0 0.0 0.0
75 1 4.682661292255004 7.801232058622611 0.0 0.0 0.0 0.0
76 1 5.357768300029777 7.747984747713684 0.0 0.0 0.0 0.0
77 2 6.461649686701563 7.59346343402688 0.0 0.0 0.0 0.0
78 1 7.579294766072574 7.507167518031558 0.0 0.0 0.0 0.0
79 1 8.261218530276302 7.7522767021592385 0.0 0.0 0.0 0.0
80 2 9.49139892880071 7.9639188397896765 0.0 0.0 0.0 0.0
81 2 0.2347103340377169 9.143059505727136 0.0 0.0 0.0 0.0
82 1 1.2329901114231547 8.587211493787906 0.0 0.0 0.0 0.0
83 2 2.3297555087032773 8.24880787485488 0.0 0.0 0.0 0.0
84 2 3.657684734978496 8.239576752783504 0.0 0.0 0.0 0.0
85 2 5.082309767621464 8.84639916423327 0.0 0.0 0.0 0.0
86 1 6.212935339549755 8.680326772909519 0.0 0.0 0.0 0.0
87 2 6.014060129019819 9.776864476225319 0.0 0.0 0.0 0.0
88 2 7.351727938062049 8.585386274668382 0.0 0.0 0.0 0.0
89 1 8.489086463455354 8.48095567091923 0.0 0.0 0.0 0.0
90 1 9.037849594137752 8.951009536015944 0.0 0.0 0.0 0.0
91 1 0.468372180146325 10.221050196417547 0.0 0.0 0.0 0.0
92 2 1.4279042416284171 9.681392379990093 0.0 0.0 0.0 0.0
93 2 2.6640929274857954 9.483009736096472 0.0 0.0 0.0 0.0
94 2 3.9163269653224124 9.56067956974502 0.0 0.0 0.0 0.0
95 1 4.93588603419429 9.968629814213765 0.0 0.0 0.0 0.0
96 1 5.263627249967287 0.0800153148731643 0.0 0.0 0.0 0.0
97 1 5.85117256262018 0.3903508274581856 0.0 0.0 0.0 0.0
98 1 7.091670282170633 9.755375673278149 0.0 0.0 0.0 0.0
99 2 8.146436609784539 9.566634462154976 0.0 0.0 0.0 0.0
100 2 9.283707770659833 10.050155390384013 0.0 0.0 0.0 0.0
ITEM: TIMESTEP
4
ITEM: NUMBER OF ATOMS
100
ITEM: BOX BOUNDS xy xz yz pp pp pp
0.0 9.920449999999999 0.0
0.0 10.488904916194697 0.0
0.0 10.0 3.164816442e-314
ITEM: ATOMS id type x y z vx vy vz
1 1 0.9601273103065064 0.1936642065252158 0.0 0.0 0.0 0.0
2 1 1.0074988261750775 0.8656070994832993 0.0 0.0 0.0 0.0
3 2 2.0614655459606275 0.5042383094055083 0.0 0.0 0.0 0.0
4 1 3.141956818110533 10.48687288995769 0.0 0.0 0.0 0.0
5 2 4.223891112524632 0.32452379436885587 0.0 0.0 0.0 0.0
6 1 5.308048741835389 0.7866006659725053 0.0 0.0 0.0 0.0
7 1 5.972404453597108 1.0592621971872882 0.0 0.0 0.0 0.0
8 2 6.943035403277742 0.39269872978263715 0.0 0.0 0.0 0.0
9 2 8.279773172705001 0.3762249262183132 0.0 0.0 0.0 0.0
10 2 9.838355353146872 0.676126511319463 0.0 0.0 0.0 0.0
11 1 0.6794756101046937 1.468809917745515 0.0 0.0 0.0 0.0
12 1 1.3423530967229027 1.4455186729762926 0.0 0.0 0.0 0.0
13 2 2.311695847930106 1.8953383753335737 0.0 0.0 0.0 0.0
14 2 3.272960932099999 1.1178227618886882 0.0 0.0 0.0 0.0
15 2 4.538074106131392 1.5809894009387802 0.0 0.0 0.0 0.0
16 2 5.654765554296509 2.1350346841970738 0.0 0.0 0.0 0.0
17 1 6.533515776069135 1.467026701451661 0.0 0.0 0.0 0.0
18 2 7.6282494689987645 1.507010997727029 0.0 0.0 0.0 0.0
19 2 8.911421063933961 1.545731358370554 0.0 0.0 0.0 0.0
20 1 0.08398378921949122 1.7676692587104448 0.0 0.0 0.0 0.0
21 2 0.8932719987062566 2.5613567464311537 0.0 0.0 0.0 0.0
22 1 1.9422528604845333 2.945367794103309 0.0 0.0 0.0 0.0
23 1 2.624544638308656 2.927091961036303 0.0 0.0 0.0 0.0
24 2 3.5961307625084524 2.416832579839219 0.0 0.0 0.0 0.0
25 1 4.6827426739185 2.767516447776697 0.0 0.0 0.0 0.0
26 1 5.258471432046013 3.175198929114803 0.0 0.0 0.0 0.0
27 1 5.956732458904323 3.2007157276015556 0.0 0.0 0.0 0.0
28 2 6.900873687446987 2.6149183552326978 0.0 0.0 0.0 0.0
29 2 8.223608067906683 2.653537521727154 0.0 0.0 0.0 0.0
30 2 9.481698323472028 2.7144514147878023 0.0 0.0 0.0 0.0
31 1 0.2336483131506417 3.566782967330397 0.0 0.0 0.0 0.0
32 2 1.292978982939853 3.8511764359758196 0.0 0.0 0.0 0.0
33 1 2.3211824987150305 3.513436341065396 0.0 0.0 0.0 0.0
34 2 3.4091682384860618 3.688997128463744 0.0 0.0 0.0 0.0
35 2 4.5654159135150545 4.055080534605569 0.0 0.0 0.0 0.0
36 1 5.609905513406596 3.775925967244558 0.0 0.0 0.0 0.0
37 2 6.654245844714661 4.088288101209251 0.0 0.0 0.0 0.0
38 1 7.612890995677127 3.559046164637496 0.0 0.0 0.0 0.0
39 1 8.831482513824547 3.61214082243291 0.0 0.0 0.0 0.0
40 1 9.493740426849069 3.835981585050456 0.0 0.0 0.0 0.0
41 2 0.3227190036870982 4.678665184712076 0.0 0.0 0.0 0.0
42 1 1.462212342291291 4.94783935756024 0.0 0.0 0.0 0.0
43 2 2.535750168328624 4.587287191080486 0.0 0.0 0.0 0.0
44 1 3.681247300338585 4.789808606254675 0.0 0.0 0.0 0.0
45 1 4.286821509908777 5.151547446702728 0.0 0.0 0.0 0.0
46 1 5.149075549152991 4.9814430064134925 0.0 0.0 0.0 0.0
47 1 5.608972957435797 4.474170249014929 0.0 0.0 0.0 0.0
48 1 7.191509550820028 5.045637726231082 0.0 0.0 0.0 0.0
49 2 8.206320665603439 4.533174684969836 0.0 0.0 0.0 0.0
50 1 9.190600076899157 5.085475894153819 0.0 0.0 0.0 0.0
51 1 9.708634662392452 6.278060491692037 0.0 0.0 0.0 0.0
52 2 0.8348696475831257 5.85975139595777 0.0 0.0 0.0 0.0
53 2 2.2293515406358213 5.78742525940532 0.0 0.0 0.0 0.0
54 1 3.3177488175608865 5.379185574712006 0.0 0.0 0.0 0.0
55 1 3.907120425818762 5.73765269998374 0.0 0.0 0.0 0.0
56 2 4.976292007150772 6.060001527589272 0.0 0.0 0.0 0.0
57 2 6.164753705754868 5.4623653563322145 0.0 0.0 0.0 0.0
58 1 7.662126334196788 5.512522897621816 0.0 0.0 0.0 0.0
59 2 8.610141979002313 6.0559876135600765 0.0 0.0 0.0 0.0
60 1 9.642742657921104 5.606340928774123 0.0 0.0 0.0 0.0
61 2 0.5433563722457789 7.081251235181597 0.0 0.0 0.0 0.0
62 2 1.8910243131601097 6.999411205010466 0.0 0.0 0.0 0.0
63 1 2.9465974241160007 6.649496304508325 0.0 0.0 0.0 0.0
64 1 3.303977725921968 6.063563034415128 0.0 0.0 0.0 0.0
65 1 5.464374792094157 7.0604489402639 0.0 0.0 0.0 0.0
66 1 5.975963792707013 6.577983031561813 0.0 0.0 0.0 0.0
67 2 7.107474779763503 6.464513878464566 0.0 0.0 0.0 0.0
68 1 8.073371410761785 7.042700224781454 0.0 0.0 0.0 0.0
69 1 8.732287394385263 7.176171098377619 0.0 0.0 0.0 0.0
70 1 9.360895839852672 6.866665432336817 0.0 0.0 0.0 0.0
71 1 0.679963323500144 8.162547401441175 0.0 0.0 0.0 0.0
72 1 1.289128939247784 7.905874647672424 0.0 0.0 0.0 0.0
73 1 2.9808087184487913 7.332820480691627 0.0 0.0 0.0 0.0
74 2 4.03231592392143 6.902893858297389 0.0 0.0 0.0 0.0
75 1 4.686763670861091 7.797341689189424 0.0 0.0 0.0 0.0
76 1 5.362355156798357 7.7425372836429 0.0 0.0 0.0 0.0
77 2 6.467454018370223 7.588633634287449 0.0 0.0 0.0 0.0
78 1 7.585935798182641 7.500360013584588 0.0 0.0 0.0 0.0
79 1 8.268130265959117 7.746074244904617 0.0 0.0 0.0 0.0
80 2 9.50057436524647 7.958576044750101 0.0 0.0 0.0 0.0
81 2 0.2343642727966377 9.137405878168263 0.0 0.0 0.0 0.0
82 1 1.2328236048252101 8.581833470198045 0.0 0.0 0.0 0.0
83 2 2.330230234488625 8.244629431408262 0.0 0.0 0.0 0.0
84 2 3.6604755581171524 8.234605292300333 0.0 0.0 0.0 0.0
85 2 5.090170435407676 8.841336970995613 0.0 0.0 0.0 0.0
86 1 6.221434820390602 8.676025410002472 0.0 0.0 0.0 0.0
87 2 6.021253238501303 9.772197524624882 0.0 0.0 0.0 0.0
88 2 7.360453340851776 8.579025253402893 0.0 0.0 0.0 0.0
89 1 8.498055182786835 8.475531910937455 0.0 0.0 0.0 0.0
90 1 9.046925986313738 8.945738168889054 0.0 0.0 0.0 0.0
91 1 0.46928455039115735 10.214733119658932 0.0 0.0 0.0 0.0
92 2 1.4297868180997901 9.675436557216106 0.0 0.0 0.0 0.0
93 2 2.667762148757565 9.478448361713426 0.0 0.0 0.0 0.0
94 2 3.921645846294081 9.55544662466441 0.0 0.0 0.0 0.0
95 1 4.942292586993725 9.963138225580144 0.0 0.0 0.0 0.0
96 1 5.270077348577781 0.08131487373253309 0.0 0.0 0.0 0.0
97 1 5.858088497234373 0.39106794238628984 0.0 0.0 0.0 0.0
98 1 7.099320406236535 9.748003584481424 0.0 0.0 0.0 0.0
99 2 8.154957407808325 9.561078163827137 0.0 0.0 0.0 0.0
100 2 9.293334719596263 10.044522368040852 0.0 0.0 0.0 0.0
ITEM: TIMESTEP
5
ITEM: NUMBER OF ATOMS
100
ITEM: BOX BOUNDS xy xz yz pp pp pp
0.0 9.930449999999999 0.0
0.0 10.482650990197731 0.0
0.0 10.0 3.164816442e-314
ITEM: ATOMS id type x y z vx vy vz
1 1 0.9613259209448232 0.19366848727231847 0.0 0.0 0.0 0.0
2 1 1.0089040576101294 0.8656500574606263 0.0 0.0 0.0 0.0
3 2 2.063372079645539 0.5045429841722707 0.0 0.0 0.0 0.0
4 1 3.1474111733640058 10.4813025074128 0.0 0.0 0.0 0.0
5 2 4.230019212527806 0.32515348395069227 0.0 0.0 0.0 0.0
6 1 5.315537687938536 0.7883523610384635 0.0 0.0 0.0 0.0
7 1 5.981378626197712 1.059190039421032 0.0 0.0 0.0 0.0
8 2 6.950437589468111 0.3923748214405189 0.0 0.0 0.0 0.0
9 2 8.288147738896704 0.376497729322648 0.0 0.0 0.0 0.0
10 2 9.849287396065385 0.676001662510106 0.0 0.0 0.0 0.0
11 1 0.6801316618402321 1.468516967746457 0.0 0.0 0.0 0.0
12 1 1.343102913475652 1.4460882917808897 0.0 0.0 0.0 0.0
13 2 2.314388121035755 1.8920902515128577 0.0 0.0 0.0 0.0
14 2 3.278233292145326 1.1178550257258204 0.0 0.0 0.0 0.0
15 2 4.543502240567563 1.5811514877325297 0.0 0.0 0.0 0.0
16 2 5.661190994854817 2.1332710744595396 0.0 0.0 0.0 0.0
17 1 6.542077210618895 1.4674200311436296 0.0 0.0 0.0 0.0
18 2 7.637076554316435 1.5073755149263857 0.0 0.0 0.0 0.0
19 2 8.921022107338857 1.545509307590674 0.0 0.0 0.0 0.0
20 1 0.08437909323360467 1.7672701732241647 0.0 0.0 0.0 0.0
21 2 0.8941526460198519 2.5606817934750774 0.0 0.0 0.0 0.0
22 1 1.9446318519717498 2.9420652422481823 0.0 0.0 0.0 0.0
23 1 2.6273410429431414 2.9239611201055635 0.0 0.0 0.0 0.0
24 2 3.600497166394004 2.415947970038107 0.0 0.0 0.0 0.0
25 1 4.687990061929077 2.766032803164138 0.0 0.0 0.0 0.0
26 1 5.2643811710885595 3.1726360291888027 0.0 0.0 0.0 0.0
27 1 5.962904462500422 3.1993218467565683 0.0 0.0 0.0 0.0
28 2 6.90738769873539 2.6135664610798086 0.0 0.0 0.0 0.0
29 2 8.231957011126312 2.655201269194911 0.0 0.0 0.0 0.0
30 2 9.490813238736285 2.713226447448851 0.0 0.0 0.0 0.0
31 1 0.23558822980423383 3.563601977095686 0.0 0.0 0.0 0.0
32 2 1.295246666487574 3.8481655199083633 0.0 0.0 0.0 0.0
33 1 2.3235171959006795 3.5101633751949017 0.0 0.0 0.0 0.0
34 2 3.411428523600617 3.6868712448716843 0.0 0.0 0.0 0.0
35 2 4.568767138652214 4.0502110172975 0.0 0.0 0.0 0.0
36 1 5.61439310974137 3.7736404666469285 0.0 0.0 0.0 0.0
37 2 6.6580149675839255 4.0892903282002075 0.0 0.0 0.0 0.0
38 1 7.616053756168114 3.557893298965553 0.0 0.0 0.0 0.0
39 1 8.842634516024827 3.61244923887581 0.0 0.0 0.0 0.0
40 1 9.505705890754328 3.8338040846830426 0.0 0.0 0.0 0.0
41 2 0.32455620849222233 4.675324653546211 0.0 0.0 0.0 0.0
42 1 1.4643453234632047 4.9448706249088366 0.0 0.0 0.0 0.0
43 2 2.5380368858905227 4.584143110120508 0.0 0.0 0.0 0.0
44 1 3.685211032063303 4.786979922945299 0.0 0.0 0.0 0.0
45 1 4.29190030457989 5.147492736551621 0.0 0.0 0.0 0.0
46 1 5.150481503295463 4.978143446111915 0.0 0.0 0.0 0.0
47 1 5.611057638860951 4.4712926736033 0.0 0.0 0.0 0.0
48 1 7.197336471169233 5.045919135121102 0.0 0.0 0.0 0.0
49 2 8.212736942219324 4.53050760450472 0.0 0.0 0.0 0.0
50 1 9.200473710132801 5.079509018953094 0.0 0.0 0.0 0.0
51 1 9.718373789338367 6.273095749420267 0.0 0.0 0.0 0.0
52 2 0.8351724745691003 5.8556198988183 0.0 0.0 0.0 0.0
53 2 2.232006532478365 5.783988361953075 0.0 0.0 0.0 0.0
54 1 3.320429480386512 5.375560546225535 0.0 0.0 0.0 0.0
55 1 3.910438203636542 5.733272906695583 0.0 0.0 0.0 0.0
56 2 4.979666853773183 6.057080862728187 0.0 0.0 0.0 0.0
57 2 6.167842457297898 5.457485983763706 0.0 0.0 0.0 0.0
58 1 7.6708446922670035 5.509887579758334 0.0 0.0 0.0 0.0
59 2 8.620084494722759 6.050544979675275 0.0 0.0 0.0 0.0
60 1 9.65247771163201 5.601256292020401 0.0 0.0 0.0 0.0
61 2 0.5429407136086889 7.076347849883175 0.0 0.0 0.0 0.0
62 2 1.892838418760135 6.995372555039811 0.0 0.0 0.0 0.0
63 1 2.949054447039948 6.645786133918569 0.0 0.0 0.0 0.0
64 1 3.307053064333202 6.059840216486997 0.0 0.0 0.0 0.0
65 1 5.470636010232497 7.05571179691533 0.0 0.0 0.0 0.0
66 1 5.981215009148081 6.573026197499479 0.0 0.0 0.0 0.0
67 2 7.112775768895031 6.4593553096918885 0.0 0.0 0.0 0.0
68 1 8.080905717181544 7.036381117931583 0.0 0.0 0.0 0.0
69 1 8.740275605122262 7.171016405511145 0.0 0.0 0.0 0.0
70 1 9.370007994731974 6.861635096733109 0.0 0.0 0.0 0.0
71 1 0.6798345155608401 8.157192449113179 0.0 0.0 0.0 0.0
72 1 1.289315640053484 7.900728421670384 0.0 0.0 0.0 0.0
73 1 2.9824946147437754 7.329134678467825 0.0 0.0 0.0 0.0
74 2 4.034735276727321 6.89958687053436 0.0 0.0 0.0 0.0
75 1 4.690813940419903 7.793570526857767 0.0 0.0 0.0 0.0
76 1 5.3668873855806485 7.737163544708919 0.0 0.0 0.0 0.0
77 2 6.4732194324491505 7.583866463482378 0.0 0.0 0.0 0.0
78 1 7.592551016970533 7.49361775825543 0.0 0.0 0.0 0.0
79 1 8.27500929950849 7.7398809040678485 0.0 0.0 0.0 0.0
80 2 9.50968306218477 7.953270204133758 0.0 0.0 0.0 0.0
81 2 0.2339509403800239 9.131796002779017 0.0 0.0 0.0 0.0
82 1 1.2325967652019454 8.57650419955192 0.0 0.0 0.0 0.0
83 2 2.3306413645271333 8.240511692355481 0.0 0.0 0.0 0.0
84 2 3.6632276036301006 8.229770764757191 0.0 0.0 0.0 0.0
85 2 5.098016479776809 8.836360933325825 0.0 0.0 0.0 0.0
86 1 6.229905927530388 8.671784617244006 0.0 0.0 0.0 0.0
87 2 6.028425250624876 9.767595185791462 0.0 0.0 0.0 0.0
88 2 7.369136004510455 8.572728888073177 0.0 0.0 0.0 0.0
89 1 8.506976981186423 8.47017884168211 0.0 0.0 0.0 0.0
90 1 9.055948591179842 8.940518547547548 0.0 0.0 0.0 0.0
91 1 0.4701574246894562 10.208451788152992 0.0 0.0 0.0 0.0
92 2 1.4316372156701695 9.669523145659156 0.0 0.0 0.0 0.0
93 2 2.6714103793325186 9.473919106808067 0.0 0.0 0.0 0.0
94 2 3.9269544603290725 9.550315174401158 0.0 0.0 0.0 0.0
95 1 4.948690041792128 9.95774591759621 0.0 0.0 0.0 0.0
96 1 5.276527232745908 0.08263167912501344 0.0 0.0 0.0 0.0
97 1 5.865004854496728 0.39179533672805855 0.0 0.0 0.0 0.0
98 1 7.106942268066527 9.740749804582194 0.0 0.0 0.0 0.0
99 2 8.163433982740964 9.555586837069892 0.0 0.0 0.0 0.0
100 2 9.302914670824338 10.038955673846283 0.0 0.0 0.0 0.0
ITEM: TIMESTEP
6
ITEM: NUMBER OF ATOMS
100
ITEM: BOX BOUNDS xy xz yz pp pp pp
0.0 9.940449999999998 0.0
0.0 10.476450348564018 0.0
0.0 10.0 3.164816442e-314
ITEM: ATOMS id type x y z vx vy vz
1 1 0.9624692595573184 0.19365081077273136 0.0 0.0 0.0 0.0
2 1 1.0102850475816287 0.8656650088958325 0.0 0.0 0.0 0.0