ITEM: TIMESTEP
1
ITEM: NUMBER OF ATOMS
100
ITEM: BOX BOUNDS xy xz yz pp pp pp
0.0 9.89045 0.0
0.0 9.88045 0.0
0.0 10.0 3.135355458e-314
ITEM: ATOMS id type x y z vx vy vz
1 1 0.9301526998049566 0.24170394539459233 0.0 0.0 0.0 0.0
2 1 1.0390489494995017 0.9126393651257245 0.0 0.0 0.0 0.0
3 2 2.007393321375027 0.3809540928334896 0.0 0.0 0.0 0.0
4 1 3.0359957582107286 0.023725320901202197 0.0 0.0 0.0 0.0
5 2 4.591563044097518 0.44932000366166897 0.0 0.0 0.0 0.0
6 1 5.671495533219374 0.5900801335440369 0.0 0.0 0.0 0.0
7 1 6.310530831046297 0.7507056714955076 0.0 0.0 0.0 0.0
8 2 7.31996438424016 0.38169912448609894 0.0 0.0 0.0 0.0
9 2 8.514654633684149 0.5642523463656997 0.0 0.0 0.0 0.0
10 2 9.812330152879843 0.7311908633530597 0.0 0.0 0.0 0.0
11 1 0.6868615324178349 1.4880227514146445 0.0 0.0 0.0 0.0
12 1 1.3372709877022357 1.5282092390511215 0.0 0.0 0.0 0.0
13 2 2.397654820401847 1.5824367211686703 0.0 0.0 0.0 0.0
14 2 3.490590123092411 0.9772808606141363 0.0 0.0 0.0 0.0
15 2 4.586934869370534 1.6709419305243698 0.0 0.0 0.0 0.0
16 2 5.76317126443527 1.7040928819346368 0.0 0.0 0.0 0.0
17 1 6.730963410164642 1.2812658866295048 0.0 0.0 0.0 0.0
18 2 7.755294497561653 1.5780003229727129 0.0 0.0 0.0 0.0
19 2 8.944869835177213 1.6914234612795453 0.0 0.0 0.0 0.0
20 1 0.11076865130198596 1.8009722283911889 0.0 0.0 0.0 0.0
21 2 0.8520634089163702 2.5732647771396184 0.0 0.0 0.0 0.0
22 1 1.920014898945293 2.6711722073230906 0.0 0.0 0.0 0.0
23 1 2.572473978613865 2.642950085055443 0.0 0.0 0.0 0.0
24 2 3.5135108359441576 2.182444180118058 0.0 0.0 0.0 0.0
25 1 4.436512216262824 2.756932910819782 0.0 0.0 0.0 0.0
26 1 5.1187185242168365 2.6864749287035625 0.0 0.0 0.0 0.0
27 1 5.801199984761808 2.768619825442485 0.0 0.0 0.0 0.0
28 2 6.844221785910525 2.394474771009615 0.0 0.0 0.0 0.0
29 2 8.184420273146792 2.8112246993613166 0.0 0.0 0.0 0.0
30 2 9.481545663525884 2.758833714129735 0.0 0.0 0.0 0.0
31 1 0.2957281059197159 3.5544012926712796 0.0 0.0 0.0 0.0
32 2 1.3689143326627597 3.6874224443332957 0.0 0.0 0.0 0.0
33 1 2.3178983796061057 3.232819828921076 0.0 0.0 0.0 0.0
34 2 3.3909521729203242 3.3828395479480142 0.0 0.0 0.0 0.0
35 2 4.482875100318503 3.8301817569274386 0.0 0.0 0.0 0.0
36 1 5.43547833642164 3.3128115234470346 0.0 0.0 0.0 0.0
37 2 6.533323322233204 3.575739861689587 0.0 0.0 0.0 0.0
38 1 7.600430368056102 3.747871262771641 0.0 0.0 0.0 0.0
39 1 8.918359408820253 3.672551185086356 0.0 0.0 0.0 0.0
40 1 9.574047398314073 3.8668629088620814 0.0 0.0 0.0 0.0
41 2 0.5282100837523845 4.607327015758171 0.0 0.0 0.0 0.0
42 1 1.593392578478377 4.739467867982692 0.0 0.0 0.0 0.0
43 2 2.5721441611127687 4.287077322827605 0.0 0.0 0.0 0.0
44 1 3.629765468750945 4.4927008032197655 0.0 0.0 0.0 0.0
45 1 4.1589582239175975 4.913473612670597 0.0 0.0 0.0 0.0
46 1 5.237714619790225 4.561279003003514 0.0 0.0 0.0 0.0
47 1 5.549506978319761 3.979977677919663 0.0 0.0 0.0 0.0
48 1 7.269079466019318 4.373353935014888 0.0 0.0 0.0 0.0
49 2 8.322818969362134 4.562421785261315 0.0 0.0 0.0 0.0
50 1 9.370286251504377 4.513892528645339 0.0 0.0 0.0 0.0
51 1 9.859384420634798 5.528566655850583 0.0 0.0 0.0 0.0
52 2 1.0908081548335788 5.6969815553067535 0.0 0.0 0.0 0.0
53 2 2.365699010302215 5.481398982221042 0.0 0.0 0.0 0.0
54 1 3.440466460270677 5.136423391210926 0.0 0.0 0.0 0.0
55 1 3.9813302431932214 5.566831212781714 0.0 0.0 0.0 0.0
56 2 5.066956333308052 5.599883102908379 0.0 0.0 0.0 0.0
57 2 6.27195610332922 4.818814518404776 0.0 0.0 0.0 0.0
58 1 7.351895913111728 5.059313188200541 0.0 0.0 0.0 0.0
59 2 8.235075189740728 5.766852557378724 0.0 0.0 0.0 0.0
60 1 9.258689122636024 5.201562875349827 0.0 0.0 0.0 0.0
61 2 0.270263426715611 6.580185647172664 0.0 0.0 0.0 0.0
62 2 1.9119201254854115 6.614968071632405 0.0 0.0 0.0 0.0
63 1 2.979267687164121 6.37780359874958 0.0 0.0 0.0 0.0
64 1 3.3753696454902524 5.825617064157965 0.0 0.0 0.0 0.0
65 1 5.090899004129482 6.657215449241899 0.0 0.0 0.0 0.0
66 1 5.7481855564113244 6.469733358724717 0.0 0.0 0.0 0.0
67 2 6.713740449530826 5.953933726405071 0.0 0.0 0.0 0.0
68 1 7.5736714858396095 6.601924935443247 0.0 0.0 0.0 0.0
69 1 8.264399928520222 6.884374081681754 0.0 0.0 0.0 0.0
70 1 9.305172861267902 5.9020432656869835 0.0 0.0 0.0 0.0
71 1 0.519089605558124 7.614058545951705 0.0 0.0 0.0 0.0
72 1 1.114955950818586 7.331411592951572 0.0 0.0 0.0 0.0
73 1 2.938489875376177 7.045385287710234 0.0 0.0 0.0 0.0
74 2 4.010898738998759 6.70722429582837 0.0 0.0 0.0 0.0
75 1 4.917419921171697 7.299477178048246 0.0 0.0 0.0 0.0
76 1 5.552123752966762 7.115505626342413 0.0 0.0 0.0 0.0
77 2 6.612903856262368 7.191363635949834 0.0 0.0 0.0 0.0
78 1 7.679867074515234 7.235742022414191 0.0 0.0 0.0 0.0
79 1 8.225216126247297 7.5721136510400315 0.0 0.0 0.0 0.0
80 2 9.293007950809498 7.458685555406614 0.0 0.0 0.0 0.0
81 2 0.16758228504486333 8.60837299959262 0.0 0.0 0.0 0.0
82 1 1.0748822053548668 8.00631614856696 0.0 0.0 0.0 0.0
83 2 2.143946500135646 7.813776401658405 0.0 0.0 0.0 0.0
84 2 3.551548793829736 7.952827963413848 0.0 0.0 0.0 0.0
85 2 4.75241384385054 8.3445616493265 0.0 0.0 0.0 0.0
86 1 5.671325552731805 7.7607840963362635 0.0 0.0 0.0 0.0
87 2 5.991077956126648 8.7927489769293 0.0 0.0 0.0 0.0
88 2 7.279226387034064 8.238840696929161 0.0 0.0 0.0 0.0
89 1 8.386769156357474 8.20055611261154 0.0 0.0 0.0 0.0
90 1 8.962384661083373 8.504145391931818 0.0 0.0 0.0 0.0
91 1 0.46831608939078934 9.652302828200506 0.0 0.0 0.0 0.0
92 2 1.404402042690881 9.073146813227714 0.0 0.0 0.0 0.0
93 2 2.6716209860576443 8.905142449787418 0.0 0.0 0.0 0.0
94 2 3.920595527444463 9.26095278270536 0.0 0.0 0.0 0.0
95 1 5.056048127437529 9.368393168260273 0.0 0.0 0.0 0.0
96 1 5.5676417881069025 9.806880985586538 0.0 0.0 0.0 0.0
97 1 6.233725878306379 0.06092759045210382 0.0 0.0 0.0 0.0
98 1 6.949684853651389 9.268690634260002 0.0 0.0 0.0 0.0
99 2 8.06162983063775 9.235457243495544 0.0 0.0 0.0 0.0
100 2 9.276488963879682 9.522048021369379 0.0 0.0 0.0 0.0
ITEM: TIMESTEP
2
ITEM: NUMBER OF ATOMS
100
ITEM: BOX BOUNDS xy xz yz pp pp pp
0.0 9.90045 0.0
0.0 9.88045 0.0
0.0 10.0 3.135355458e-314
ITEM: ATOMS id type x y z vx vy vz
1 1 0.9291066513828606 0.23761830842651605 0.0 0.0 0.0 0.0
2 1 1.036436270814593 0.9082132214233143 0.0 0.0 0.0 0.0
3 2 2.0062076824181188 0.38198725265055133 0.0 0.0 0.0 0.0
4 1 3.036085321885694 0.02770258095165155 0.0 0.0 0.0 0.0
5 2 4.601913858113298 0.4518273627802824 0.0 0.0 0.0 0.0
6 1 5.682412520719194 0.5868390185875018 0.0 0.0 0.0 0.0
7 1 6.32015120212926 0.751121134448325 0.0 0.0 0.0 0.0
8 2 7.328598542310118 0.38163751722583444 0.0 0.0 0.0 0.0
9 2 8.5233104518875 0.564919186314263 0.0 0.0 0.0 0.0
10 2 9.821967238974217 0.7302683613920383 0.0 0.0 0.0 0.0
11 1 0.6894446302303813 1.4861239571928424 0.0 0.0 0.0 0.0
12 1 1.3412308564089528 1.5199226876542016 0.0 0.0 0.0 0.0
13 2 2.4025386145683445 1.5827211772391638 0.0 0.0 0.0 0.0
14 2 3.4987840555040477 0.9778561759804738 0.0 0.0 0.0 0.0
15 2 4.593723449213051 1.6740106623299915 0.0 0.0 0.0 0.0
16 2 5.770680562567604 1.7027152136209471 0.0 0.0 0.0 0.0
17 1 6.740274416065291 1.2820588184047204 0.0 0.0 0.0 0.0
18 2 7.765072495077313 1.5797956134547062 0.0 0.0 0.0 0.0
19 2 8.956075197639572 1.6915035104110467 0.0 0.0 0.0 0.0
20 1 0.1131782675806016 1.7997349779303349 0.0 0.0 0.0 0.0
21 2 0.8574364947495503 2.5703861518310576 0.0 0.0 0.0 0.0
22 1 1.9253087465102225 2.671954978663711 0.0 0.0 0.0 0.0
23 1 2.5779094441676045 2.6436177793031215 0.0 0.0 0.0 0.0
24 2 3.5193506029853783 2.183762302798037 0.0 0.0 0.0 0.0
25 1 4.44194566847302 2.760412759969516 0.0 0.0 0.0 0.0
26 1 5.124546771252895 2.6867810675664847 0.0 0.0 0.0 0.0
27 1 5.807236496406749 2.768238100048221 0.0 0.0 0.0 0.0
28 2 6.851448281305914 2.394582207424018 0.0 0.0 0.0 0.0
29 2 8.197580212007471 2.8134695635760205 0.0 0.0 0.0 0.0
30 2 9.494912720219249 2.7580382866564657 0.0 0.0 0.0 0.0
31 1 0.3010910685154088 3.551995938245471 0.0 0.0 0.0 0.0
32 2 1.3734741479529482 3.6873688925284047 0.0 0.0 0.0 0.0
33 1 2.323176745450365 3.233553762922393 0.0 0.0 0.0 0.0
34 2 3.3962592354706174 3.3847646027495224 0.0 0.0 0.0 0.0
35 2 4.488212897052141 3.8343830603685416 0.0 0.0 0.0 0.0
36 1 5.440394767894589 3.3125372708271876 0.0 0.0 0.0 0.0
37 2 6.540158240810149 3.575452235956504 0.0 0.0 0.0 0.0
38 1 7.607971612816853 3.746917688432038 0.0 0.0 0.0 0.0
39 1 8.933464934135312 3.6738857730345655 0.0 0.0 0.0 0.0
40 1 9.589691085263484 3.8645165756060824 0.0 0.0 0.0 0.0
41 2 0.529932537876407 4.606332258279431 0.0 0.0 0.0 0.0
42 1 1.595627388811497 4.740770317298062 0.0 0.0 0.0 0.0
43 2 2.5750111006771084 4.28839589266308 0.0 0.0 0.0 0.0
44 1 3.63245959898182 4.494857323511754 0.0 0.0 0.0 0.0
45 1 4.159634837212029 4.917397959637921 0.0 0.0 0.0 0.0
46 1 5.246983508780347 4.561515192444552 0.0 0.0 0.0 0.0
47 1 5.55619963966829 3.979216251161478 0.0 0.0 0.0 0.0
48 1 7.2780392699609635 4.372307111208695 0.0 0.0 0.0 0.0
49 2 8.332371288783738 4.560804194536539 0.0 0.0 0.0 0.0
50 1 9.380863623111113 4.509716516065322 0.0 0.0 0.0 0.0
51 1 9.869299332847408 5.526182655664601 0.0 0.0 0.0 0.0
52 2 1.09135617387583 5.6978733966776 0.0 0.0 0.0 0.0
53 2 2.368741827540556 5.48322003367791 0.0 0.0 0.0 0.0
54 1 3.4443252603347254 5.139688101045402 0.0 0.0 0.0 0.0
55 1 3.9841757930733985 5.571780846710717 0.0 0.0 0.0 0.0
56 2 5.0696646773642735 5.598948294633392 0.0 0.0 0.0 0.0
57 2 6.281030495732853 4.817823486261607 0.0 0.0 0.0 0.0
58 1 7.360819174786521 5.058727497431938 0.0 0.0 0.0 0.0
59 2 8.24313511236692 5.766299534066462 0.0 0.0 0.0 0.0
60 1 9.268874707777922 5.19785409318861 0.0 0.0 0.0 0.0
61 2 0.2668511881286062 6.578506610221063 0.0 0.0 0.0 0.0
62 2 1.9132756411170726 6.616495102310143 0.0 0.0 0.0 0.0
63 1 2.9814142553884757 6.381472218151613 0.0 0.0 0.0 0.0
64 1 3.3780863807738575 5.829909651030049 0.0 0.0 0.0 0.0
65 1 5.093831112465025 6.656353011425206 0.0 0.0 0.0 0.0
66 1 5.752938545540889 6.466563813503765 0.0 0.0 0.0 0.0
67 2 6.720954379427879 5.953849901961117 0.0 0.0 0.0 0.0
68 1 7.580795589587514 6.601811714335507 0.0 0.0 0.0 0.0
69 1 8.26923400794209 6.88407753138393 0.0 0.0 0.0 0.0
70 1 9.313765025473666 5.897717226769324 0.0 0.0 0.0 0.0
71 1 0.516493713511802 7.612054506883487 0.0 0.0 0.0 0.0
72 1 1.1128982265939258 7.329605310334928 0.0 0.0 0.0 0.0
73 1 2.938914917517646 7.049195650428544 0.0 0.0 0.0 0.0
74 2 4.0132300714865385 6.713323900821469 0.0 0.0 0.0 0.0
75 1 4.924916000119104 7.300458893184419 0.0 0.0 0.0 0.0
76 1 5.557883517052578 7.11156435343829 0.0 0.0 0.0 0.0
77 2 6.6174767174075075 7.192147422367035 0.0 0.0 0.0 0.0
78 1 7.684719500488617 7.236167970384812 0.0 0.0 0.0 0.0
79 1 8.230906232454887 7.571630682555085 0.0 0.0 0.0 0.0
80 2 9.299168297901705 7.457885321604219 0.0 0.0 0.0 0.0
81 2 0.16395649982371593 8.606206903563551 0.0 0.0 0.0 0.0
82 1 1.0719048900587358 8.004523682514796 0.0 0.0 0.0 0.0
83 2 2.1419789521809207 7.816630445328608 0.0 0.0 0.0 0.0
84 2 3.5498143612680324 7.958059366692268 0.0 0.0 0.0 0.0
85 2 4.752239739059281 8.34505721694953 0.0 0.0 0.0 0.0
86 1 5.670324731690951 7.758049316707579 0.0 0.0 0.0 0.0
87 2 5.9959785893863655 8.789183508603077 0.0 0.0 0.0 0.0
88 2 7.284933751339835 8.23968672007941 0.0 0.0 0.0 0.0
89 1 8.39261921550076 8.200148956828283 0.0 0.0 0.0 0.0
90 1 8.968414347343725 8.503612508744336 0.0 0.0 0.0 0.0
91 1 0.46576093457932916 9.649775060742126 0.0 0.0 0.0 0.0
92 2 1.4025997363294198 9.070884573181813 0.0 0.0 0.0 0.0
93 2 2.671112195973153 8.908972032529144 0.0 0.0 0.0 0.0
94 2 3.923392331825544 9.266802981405965 0.0 0.0 0.0 0.0
95 1 5.0612060415787425 9.367666835030523 0.0 0.0 0.0 0.0
96 1 5.5750891584571525 9.804059931623884 0.0 0.0 0.0 0.0
97 1 6.241114914054855 0.06070350409282596 0.0 0.0 0.0 0.0
98 1 6.953665149016295 9.269622307819562 0.0 0.0 0.0 0.0
99 2 8.067663992884802 9.235356399801633 0.0 0.0 0.0 0.0
100 2 9.283689348886186 9.521350261575678 0.0 0.0 0.0 0.0
ITEM: TIMESTEP
3
ITEM: NUMBER OF ATOMS
100
ITEM: BOX BOUNDS xy xz yz pp pp pp
0.0 9.910449999999999 0.0
0.0 9.88045 0.0
0.0 10.0 3.135355458e-314
ITEM: ATOMS id type x y z vx vy vz
1 1 0.9281729174334701 0.2337785393008606 0.0 0.0 0.0 0.0
2 1 1.0341511942837172 0.9040657993498312 0.0 0.0 0.0 0.0
3 2 2.0051956317572404 0.38279211386157985 0.0 0.0 0.0 0.0
4 1 3.0363871291799387 0.03155768583773232 0.0 0.0 0.0 0.0
5 2 4.612083526900731 0.454141175617877 0.0 0.0 0.0 0.0
6 1 5.693077689940437 0.583744200375159 0.0 0.0 0.0 0.0
7 1 6.329600647844029 0.7514851236348492 0.0 0.0 0.0 0.0
8 2 7.337176311925552 0.3815799268260206 0.0 0.0 0.0 0.0
9 2 8.531947166725978 0.5655867335885493 0.0 0.0 0.0 0.0
10 2 9.831663495143914 0.7294197446120777 0.0 0.0 0.0 0.0
11 1 0.6920252712464042 1.484313643642071 0.0 0.0 0.0 0.0
12 1 1.345104957560793 1.5121129964307396 0.0 0.0 0.0 0.0
13 2 2.4072894208379267 1.5828709830887222 0.0 0.0 0.0 0.0
14 2 3.506879136246824 0.9783619108439027 0.0 0.0 0.0 0.0
15 2 4.6004371370664225 1.6769010920994576 0.0 0.0 0.0 0.0
16 2 5.7781146205356375 1.7013975269349655 0.0 0.0 0.0 0.0
17 1 6.74946960573482 1.2828016728481189 0.0 0.0 0.0 0.0
18 2 7.774761362997653 1.5815963039546572 0.0 0.0 0.0 0.0
19 2 8.967225435628608 1.6915950260129988 0.0 0.0 0.0 0.0
20 1 0.11554986494550731 1.7985637581378762 0.0 0.0 0.0 0.0
21 2 0.8626289722910191 2.5676878639916088 0.0 0.0 0.0 0.0
22 1 1.9304628647578503 2.672682549774568 0.0 0.0 0.0 0.0
23 1 2.5832178067628924 2.644181048725726 0.0 0.0 0.0 0.0
24 2 3.5250923952485436 2.184984851877761 0.0 0.0 0.0 0.0
25 1 4.447312511164433 2.763713331150909 0.0 0.0 0.0 0.0
26 1 5.130317941015422 2.6871983824356436 0.0 0.0 0.0 0.0
27 1 5.813228883746605 2.7678980124702934 0.0 0.0 0.0 0.0
28 2 6.858577043695427 2.394681058250514 0.0 0.0 0.0 0.0
29 2 8.210702360287186 2.8157718919140815 0.0 0.0 0.0 0.0
30 2 9.5081620164795 2.757291006656261 0.0 0.0 0.0 0.0
31 1 0.3063553322961355 3.5496682416305045 0.0 0.0 0.0 0.0
32 2 1.377991890182516 3.687363687099295 0.0 0.0 0.0 0.0
33 1 2.3283737184991975 3.234219886789778 0.0 0.0 0.0 0.0
34 2 3.401493047259055 3.386596189084061 0.0 0.0 0.0 0.0
35 2 4.4935403675273236 3.838405772394854 0.0 0.0 0.0 0.0
36 1 5.445379188264614 3.3123568367783744 0.0 0.0 0.0 0.0
37 2 6.546959701386111 3.5752096766375576 0.0 0.0 0.0 0.0
38 1 7.615482880141546 3.7459916089200513 0.0 0.0 0.0 0.0
39 1 8.948483455067253 3.6752986620594243 0.0 0.0 0.0 0.0
40 1 9.605242225525084 3.862198926380398 0.0 0.0 0.0 0.0
41 2 0.5316085349139921 4.6053894773998305 0.0 0.0 0.0 0.0
42 1 1.5978220735436792 4.742083115949259 0.0 0.0 0.0 0.0
43 2 2.5778547649605876 4.2896739880902945 0.0 0.0 0.0 0.0
44 1 3.6351906597867147 4.496902379567546 0.0 0.0 0.0 0.0
45 1 4.160474994877827 4.921097379290271 0.0 0.0 0.0 0.0
46 1 5.256055529980505 4.561813367229031 0.0 0.0 0.0 0.0
47 1 5.562829498937629 3.9785616598293 0.0 0.0 0.0 0.0
48 1 7.286926637672823 4.37132187013312 0.0 0.0 0.0 0.0
49 2 8.341868621312535 4.559230530477071 0.0 0.0 0.0 0.0
50 1 9.391382442542847 4.505506510388433 0.0 0.0 0.0 0.0
51 1 9.879225459136443 5.523869863828479 0.0 0.0 0.0 0.0
52 2 1.0918809371479303 5.698802204498439 0.0 0.0 0.0 0.0
53 2 2.371731568294861 5.485015563549188 0.0 0.0 0.0 0.0
54 1 3.448016989584808 5.1427801027431 0.0 0.0 0.0 0.0
55 1 3.986948534682187 5.576429386786015 0.0 0.0 0.0 0.0
56 2 5.072293434361979 5.598097233199955 0.0 0.0 0.0 0.0
57 2 6.289991145983274 4.81689493590647 0.0 0.0 0.0 0.0
58 1 7.3696790893232755 5.058173128366805 0.0 0.0 0.0 0.0
59 2 8.251203820718267 5.765776340285796 0.0 0.0 0.0 0.0
60 1 9.279144647451245 5.194109911017621 0.0 0.0 0.0 0.0
61 2 0.26343887301334673 6.576878688118435 0.0 0.0 0.0 0.0
62 2 1.9146712561887587 6.618009470718763 0.0 0.0 0.0 0.0
63 1 2.9835946390749952 6.385043797873866 0.0 0.0 0.0 0.0
64 1 3.3807791895567068 5.834044554489674 0.0 0.0 0.0 0.0
65 1 5.096782655610295 6.655589984200886 0.0 0.0 0.0 0.0
66 1 5.75772809297096 6.463447013009448 0.0 0.0 0.0 0.0
67 2 6.728137421639554 5.953793040282241 0.0 0.0 0.0 0.0
68 1 7.587916828033107 6.601681592011093 0.0 0.0 0.0 0.0
69 1 8.274207494372872 6.8838150679446155 0.0 0.0 0.0 0.0
70 1 9.322357695645222 5.8934128846726965 0.0 0.0 0.0 0.0
71 1 0.5139653734147109 7.610105187196149 0.0 0.0 0.0 0.0
72 1 1.1108829532101858 7.327781700279847 0.0 0.0 0.0 0.0
73 1 2.939440412973735 7.052903510316598 0.0 0.0 0.0 0.0
74 2 4.01565075858503 6.719153556814129 0.0 0.0 0.0 0.0
75 1 4.932335329119301 7.301460990018478 0.0 0.0 0.0 0.0
76 1 5.563619651365124 7.107741584532396 0.0 0.0 0.0 0.0
77 2 6.622096740776674 7.192959890254818 0.0 0.0 0.0 0.0
78 1 7.689654761407021 7.236551158042584 0.0 0.0 0.0 0.0
79 1 8.236640188403808 7.571183067014785 0.0 0.0 0.0 0.0
80 2 9.305388092268885 7.457160043983583 0.0 0.0 0.0 0.0
81 2 0.1604885397086785 8.604142876591803 0.0 0.0 0.0 0.0
82 1 1.0690473476070768 8.00272328451811 0.0 0.0 0.0 0.0
83 2 2.1401207120663797 7.819402873624901 0.0 0.0 0.0 0.0
84 2 3.5482849541435226 7.963115812714774 0.0 0.0 0.0 0.0
85 2 4.752214906333763 8.345544668023665 0.0 0.0 0.0 0.0
86 1 5.669408558341231 7.755354310068272 0.0 0.0 0.0 0.0
87 2 6.000959384819999 8.785641281008942 0.0 0.0 0.0 0.0
88 2 7.290771232190288 8.240513461837379 0.0 0.0 0.0 0.0
89 1 8.39862376759453 8.199757937692778 0.0 0.0 0.0 0.0
90 1 8.974577441309355 8.503163292042348 0.0 0.0 0.0 0.0
91 1 0.46336815339195336 9.647398554306074 0.0 0.0 0.0 0.0
92 2 1.400850635139985 9.068630849671113 0.0 0.0 0.0 0.0
93 2 2.670611358358031 8.912753000960386 0.0 0.0 0.0 0.0
94 2 3.92627507297693 9.272427367315515 0.0 0.0 0.0 0.0
95 1 5.066463956628793 9.366933950181844 0.0 0.0 0.0 0.0
96 1 5.582559643980505 9.801331831511252 0.0 0.0 0.0 0.0
97 1 6.24857559231721 0.0603881790474621 0.0 0.0 0.0 0.0
98 1 6.9577472715816615 9.270514282162182 0.0 0.0 0.0 0.0
99 2 8.073824948471774 9.235264896666813 0.0 0.0 0.0 0.0
100 2 9.29102163498343 9.520736117723255 0.0 0.0 0.0 0.0
ITEM: TIMESTEP
4
ITEM: NUMBER OF ATOMS
100
ITEM: BOX BOUNDS xy xz yz pp pp pp
0.0 9.920449999999999 0.0
0.0 9.88045 0.0
0.0 10.0 3.135355458e-314
ITEM: ATOMS id type x y z vx vy vz
1 1 0.9273026023768854 0.23017145147668375 0.0 0.0 0.0 0.0
2 1 1.0321558295422883 0.9001830999374935 0.0 0.0 0.0 0.0
3 2 2.004302005799115 0.3833503834903082 0.0 0.0 0.0 0.0
4 1 3.036854676697232 0.035359641849313186 0.0 0.0 0.0 0.0
5 2 4.622207138884344 0.4562783114901685 0.0 0.0 0.0 0.0
6 1 5.703620066346134 0.5806617615281384 0.0 0.0 0.0 0.0
7 1 6.338960142337006 0.751757659487386 0.0 0.0 0.0 0.0
8 2 7.345753078019439 0.3815163524377556 0.0 0.0 0.0 0.0
9 2 8.54059326292227 0.5662855105008572 0.0 0.0 0.0 0.0
10 2 9.841406231089286 0.7286570381610076 0.0 0.0 0.0 0.0
11 1 0.6946055582105699 1.4825977293006347 0.0 0.0 0.0 0.0
12 1 1.3489097562784147 1.5047622298119785 0.0 0.0 0.0 0.0
13 2 2.4119542313868436 1.582849601676433 0.0 0.0 0.0 0.0
14 2 3.514983942790992 0.9787939444639562 0.0 0.0 0.0 0.0
15 2 4.607098607746469 1.6796441585738924 0.0 0.0 0.0 0.0
16 2 5.785495130753574 1.700064408278989 0.0 0.0 0.0 0.0
17 1 6.7585913242100775 1.2834741404283898 0.0 0.0 0.0 0.0
18 2 7.784386106970954 1.5834139228553983 0.0 0.0 0.0 0.0
19 2 8.97833416964582 1.6917290442183346 0.0 0.0 0.0 0.0
20 1 0.11789402955924264 1.797469668657095 0.0 0.0 0.0 0.0
21 2 0.8676689390279745 2.5651656327622834 0.0 0.0 0.0 0.0
22 1 1.9354977967772555 2.6733425994475937 0.0 0.0 0.0 0.0
23 1 2.588414508372234 2.6446197988208016 0.0 0.0 0.0 0.0
24 2 3.530757464795881 2.1861153393569195 0.0 0.0 0.0 0.0
25 1 4.452620934011896 2.766869312600498 0.0 0.0 0.0 0.0
26 1 5.136039251702504 2.6876842724970795 0.0 0.0 0.0 0.0
27 1 5.819181121210042 2.767549791074624 0.0 0.0 0.0 0.0
28 2 6.865608982551966 2.394743144506321 0.0 0.0 0.0 0.0
29 2 8.223797312151017 2.8181450436267887 0.0 0.0 0.0 0.0
30 2 9.521321972805032 2.7566076030296514 0.0 0.0 0.0 0.0
31 1 0.31155455934801635 3.5474252501485877 0.0 0.0 0.0 0.0
32 2 1.3824960717019121 3.6874201883227897 0.0 0.0 0.0 0.0
33 1 2.3335053915928925 3.234801025041219 0.0 0.0 0.0 0.0
34 2 3.4066632313739102 3.388337530274237 0.0 0.0 0.0 0.0
35 2 4.4988538664938575 3.842289672361078 0.0 0.0 0.0 0.0
36 1 5.450417298271597 3.3122239197291137 0.0 0.0 0.0 0.0
37 2 6.553739678438807 3.5749793501923426 0.0 0.0 0.0 0.0
38 1 7.62297402884271 3.745096804607238 0.0 0.0 0.0 0.0
39 1 8.96343979320607 3.676801380690646 0.0 0.0 0.0 0.0
40 1 9.620730732172527 3.8599185839851433 0.0 0.0 0.0 0.0
41 2 0.533258150607261 4.6045084423040485 0.0 0.0 0.0 0.0
42 1 1.5999966394685352 4.743436348486761 0.0 0.0 0.0 0.0
43 2 2.5806698270057646 4.290903535182409 0.0 0.0 0.0 0.0
44 1 3.637936634668643 4.498862507016964 0.0 0.0 0.0 0.0
45 1 4.161416216084597 4.924640811304699 0.0 0.0 0.0 0.0
46 1 5.264989944025994 4.562128852259946 0.0 0.0 0.0 0.0
47 1 5.569417712746264 3.977964019641938 0.0 0.0 0.0 0.0
48 1 7.295755428656688 4.370375842917143 0.0 0.0 0.0 0.0
49 2 8.351325887579021 4.55770502722403 0.0 0.0 0.0 0.0
50 1 9.40185931111416 4.501265398634441 0.0 0.0 0.0 0.0
51 1 9.889154711895584 5.521622053640975 0.0 0.0 0.0 0.0
52 2 1.092386193706519 5.699786835330431 0.0 0.0 0.0 0.0
53 2 2.374724382220789 5.486797901984967 0.0 0.0 0.0 0.0
54 1 3.4516200994479136 5.145767783488049 0.0 0.0 0.0 0.0
55 1 3.9896940940959773 5.5808937402048455 0.0 0.0 0.0 0.0
56 2 5.074877926971509 5.597265968232969 0.0 0.0 0.0 0.0
57 2 6.298865986238289 4.816026313526087 0.0 0.0 0.0 0.0
58 1 7.378491448870678 5.057626310377707 0.0 0.0 0.0 0.0
59 2 8.259253662159784 5.7652956275645355 0.0 0.0 0.0 0.0
60 1 9.289494382630224 5.190326684444188 0.0 0.0 0.0 0.0
61 2 0.2599970991134356 6.575296547279863 0.0 0.0 0.0 0.0
62 2 1.9161060728861867 6.619523685819986 0.0 0.0 0.0 0.0
63 1 2.985817664754136 6.388569977525926 0.0 0.0 0.0 0.0
64 1 3.3834893952374254 5.838110812261704 0.0 0.0 0.0 0.0
65 1 5.099725248919215 6.654863205627425 0.0 0.0 0.0 0.0
66 1 5.762581365627755 6.460266731063714 0.0 0.0 0.0 0.0
67 2 6.735365476074173 5.953770922958428 0.0 0.0 0.0 0.0
68 1 7.595062671159904 6.601596464225699 0.0 0.0 0.0 0.0
69 1 8.279270907079235 6.883611223691625 0.0 0.0 0.0 0.0
70 1 9.330930908075608 5.889112451565026 0.0 0.0 0.0 0.0
71 1 0.5114783924161327 7.6082026727790675 0.0 0.0 0.0 0.0
72 1 1.1088867882151723 7.3259326502801585 0.0 0.0 0.0 0.0
73 1 2.9400312280207856 7.0565533196851415 0.0 0.0 0.0 0.0
74 2 4.018144315548255 6.724879392554716 0.0 0.0 0.0 0.0
75 1 4.9398108037313975 7.302489281574639 0.0 0.0 0.0 0.0
76 1 5.569384031398211 7.103871740758016 0.0 0.0 0.0 0.0
77 2 6.626745157211466 7.193841313860048 0.0 0.0 0.0 0.0
78 1 7.694640488043964 7.236961176519336 0.0 0.0 0.0 0.0
79 1 8.24240528123762 7.57079699573734 0.0 0.0 0.0 0.0
80 2 9.311644968192685 7.456515468433871 0.0 0.0 0.0 0.0
81 2 0.15713805725707336 8.602170655257979 0.0 0.0 0.0 0.0
82 1 1.066273173972814 8.000908120223539 0.0 0.0 0.0 0.0
83 2 2.138339202518217 7.822131607706496 0.0 0.0 0.0 0.0
84 2 3.5467721293756562 7.968130237130076 0.0 0.0 0.0 0.0
85 2 4.752181237003334 8.345997183269683 0.0 0.0 0.0 0.0
86 1 5.66836220855155 7.75256750554406 0.0 0.0 0.0 0.0
87 2 6.005984973617498 8.781953217642672 0.0 0.0 0.0 0.0
88 2 7.296693406881463 8.241380679932842 0.0 0.0 0.0 0.0
89 1 8.404734871927872 8.199412329981422 0.0 0.0 0.0 0.0
90 1 8.98083627176529 8.50279928857817 0.0 0.0 0.0 0.0
91 1 0.461084828703725 9.645167936650482 0.0 0.0 0.0 0.0
92 2 1.399082389914769 9.066384522660076 0.0 0.0 0.0 0.0
93 2 2.6700091121269085 8.916579512848836 0.0 0.0 0.0 0.0
94 2 3.9292137904297184 9.277926174578594 0.0 0.0 0.0 0.0
95 1 5.071826773958533 9.366127393255288 0.0 0.0 0.0 0.0
96 1 5.590118694486401 9.79856662652036 0.0 0.0 0.0 0.0
97 1 6.256171820258739 0.05990323532088443 0.0 0.0 0.0 0.0
98 1 6.961809347549373 9.271415767282475 0.0 0.0 0.0 0.0
99 2 8.080060404125904 9.235202328057511 0.0 0.0 0.0 0.0
100 2 9.2984496366469 9.52020333789012 0.0 0.0 0.0 0.0
ITEM: TIMESTEP
5
ITEM: NUMBER OF ATOMS
100
ITEM: BOX BOUNDS xy xz yz pp pp pp
0.0 9.930449999999999 0.0
0.0 9.88045 0.0
0.0 10.0 3.135355458e-314
ITEM: ATOMS id type x y z vx vy vz
1 1 0.9264447575094237 0.22677716795942515 0.0 0.0 0.0 0.0
2 1 1.0304058209314289 0.8965414868432587 0.0 0.0 0.0 0.0
3 2 2.003470838604187 0.3836484772361466 0.0 0.0 0.0 0.0
4 1 3.0374446086687046 0.03918823274608304 0.0 0.0 0.0 0.0
5 2 4.632412002574641 0.4582388960653284 0.0 0.0 0.0 0.0
6 1 5.714159188120235 0.5774488410042796 0.0 0.0 0.0 0.0
7 1 6.348300570444475 0.7518975892945472 0.0 0.0 0.0 0.0
8 2 7.3543782097953665 0.38143646516666496 0.0 0.0 0.0 0.0
9 2 8.549271628043675 0.5670544617830888 0.0 0.0 0.0 0.0
10 2 9.85117796933401 0.7279922057996846 0.0 0.0 0.0 0.0
11 1 0.6971918321554746 1.4809764567453885 0.0 0.0 0.0 0.0
12 1 1.3526661229599874 1.4978284456308073 0.0 0.0 0.0 0.0
13 2 2.4165812084756024 1.582625220455677 0.0 0.0 0.0 0.0
14 2 3.523209011417855 0.9791509023827396 0.0 0.0 0.0 0.0
15 2 4.613728934056978 1.6822602618193583 0.0 0.0 0.0 0.0
16 2 5.792839692729315 1.6986382160889493 0.0 0.0 0.0 0.0
17 1 6.767678254712727 1.284055104187218 0.0 0.0 0.0 0.0
18 2 7.7939678955496285 1.5852708442530707 0.0 0.0 0.0 0.0
19 2 8.989416401174918 1.691943605646649 0.0 0.0 0.0 0.0
20 1 0.120226524744923 1.7964605778200065 0.0 0.0 0.0 0.0
21 2 0.872597909690585 2.5628071810983095 0.0 0.0 0.0 0.0
22 1 1.940442472087351 2.6739311652608952 0.0 0.0 0.0 0.0
23 1 2.5935212200560933 2.644917314619739 0.0 0.0 0.0 0.0
24 2 3.5363699876143677 2.187158275765355 0.0 0.0 0.0 0.0
25 1 4.457877768877071 2.7699128728959423 0.0 0.0 0.0 0.0
26 1 5.1417091055170046 2.6882023160600723 0.0 0.0 0.0 0.0
27 1 5.825080975202129 2.7671424189806717 0.0 0.0 0.0 0.0
28 2 6.872533359313216 2.394742562982321 0.0 0.0 0.0 0.0
29 2 8.236931702302687 2.8206294017124445 0.0 0.0 0.0 0.0
30 2 9.534438929920299 2.7560044637666787 0.0 0.0 0.0 0.0
31 1 0.31675212196996416 3.5452643929845875 0.0 0.0 0.0 0.0
32 2 1.3870308463001202 3.6875573076158363 0.0 0.0 0.0 0.0
33 1 2.3385989760900645 3.2352850499383967 0.0 0.0 0.0 0.0
34 2 3.4117830600486743 3.38999615428907 0.0 0.0 0.0 0.0
35 2 4.504148300226088 3.8460749959973946 0.0 0.0 0.0 0.0
36 1 5.455490856574144 3.3120982739066522 0.0 0.0 0.0 0.0
37 2 6.5604976173244856 3.574730120385601 0.0 0.0 0.0 0.0
38 1 7.630447244481184 3.744226314158013 0.0 0.0 0.0 0.0
39 1 8.978417621109973 3.6784388304331257 0.0 0.0 0.0 0.0
40 1 9.636236066583225 3.857674025268281 0.0 0.0 0.0 0.0
41 2 0.5349054668883456 4.6037003560988135 0.0 0.0 0.0 0.0
42 1 1.602173021202588 4.744867875149103 0.0 0.0 0.0 0.0
43 2 2.5834552087784046 4.292085270390331 0.0 0.0 0.0 0.0
44 1 3.640680736631841 4.5007734970983115 0.0 0.0 0.0 0.0
45 1 4.162408391857354 4.928097377193016 0.0 0.0 0.0 0.0
46 1 5.273838842237334 4.56242355509707 0.0 0.0 0.0 0.0
47 1 5.5759776307778255 3.9773803566198116 0.0 0.0 0.0 0.0
48 1 7.304534165807824 4.369442020172017 0.0 0.0 0.0 0.0
49 2 8.360755266222203 4.556223031720075 0.0 0.0 0.0 0.0
50 1 9.412310490502943 4.496962551000845 0.0 0.0 0.0 0.0
51 1 9.89908526125038 5.519429743104928 0.0 0.0 0.0 0.0
52 2 1.092873814856484 5.700854098027982 0.0 0.0 0.0 0.0
53 2 2.3777723743754553 5.488590411794624 0.0 0.0 0.0 0.0
54 1 3.4551985723755583 5.148724396394241 0.0 0.0 0.0 0.0
55 1 3.9924500857330822 5.585286737638338 0.0 0.0 0.0 0.0
56 2 5.077442793660443 5.596396294133605 0.0 0.0 0.0 0.0
57 2 6.307678932258418 4.815221017830793 0.0 0.0 0.0 0.0
58 1 7.387271841121667 5.057056944861411 0.0 0.0 0.0 0.0
59 2 8.267255624045792 5.764865782400016 0.0 0.0 0.0 0.0
60 1 9.29993539406292 5.186474573405891 0.0 0.0 0.0 0.0
61 2 0.25648340763297 6.573754323240539 0.0 0.0 0.0 0.0
62 2 1.9175792303556938 6.621059150943984 0.0 0.0 0.0 0.0
63 1 2.988092685565257 6.39211186027642 0.0 0.0 0.0 0.0
64 1 3.3862558613338822 5.842206431782403 0.0 0.0 0.0 0.0
65 1 5.10262233376 6.654115971097728 0.0 0.0 0.0 0.0
66 1 5.76753422112112 6.456891362657283 0.0 0.0 0.0 0.0
67 2 6.742725905955453 5.953791217111523 0.0 0.0 0.0 0.0
68 1 7.602266568365487 6.601620630855306 0.0 0.0 0.0 0.0
69 1 8.284378987291591 6.883492774353588 0.0 0.0 0.0 0.0
70 1 9.33946364965162 5.884777619248931 0.0 0.0 0.0 0.0
71 1 0.5090007377890401 7.606337625010263 0.0 0.0 0.0 0.0
72 1 1.106879666124846 7.324047951915533 0.0 0.0 0.0 0.0
73 1 2.9406513064849293 7.060197481287297 0.0 0.0 0.0 0.0
74 2 4.020696622318005 6.7306767588222325 0.0 0.0 0.0 0.0
75 1 4.947487826474533 7.303558669055057 0.0 0.0 0.0 0.0
76 1 5.575232309676759 7.09977573782178 0.0 0.0 0.0 0.0
77 2 6.631402963061037 7.194835554195515 0.0 0.0 0.0 0.0
78 1 7.6996442923710555 7.237471309696167 0.0 0.0 0.0 0.0
79 1 8.24818671678047 7.570500251667835 0.0 0.0 0.0 0.0
80 2 9.317914199708508 7.455964534853426 0.0 0.0 0.0 0.0
81 2 0.15385828083942185 8.600278894717771 0.0 0.0 0.0 0.0
82 1 1.0635403623527995 7.999068790947849 0.0 0.0 0.0 0.0
83 2 2.1365984726098644 7.824864080370877 0.0 0.0 0.0 0.0
84 2 3.5450790265908205 7.973242800997228 0.0 0.0 0.0 0.0
85 2 4.751966594511972 8.346384392771665 0.0 0.0 0.0 0.0
86 1 5.666940842098417 7.749537915465961 0.0 0.0 0.0 0.0
87 2 6.0110116498058055 8.777926062047863 0.0 0.0 0.0 0.0
88 2 7.302649527817418 8.242353126143609 0.0 0.0 0.0 0.0
89 1 8.410898625472923 8.199144638277753 0.0 0.0 0.0 0.0
90 1 8.987146060570733 8.502525976889505 0.0 0.0 0.0 0.0
91 1 0.45885128473619446 9.643076439942803 0.0 0.0 0.0 0.0
92 2 1.3972158564106012 9.064140559135756 0.0 0.0 0.0 0.0
93 2 2.669187317650273 8.920562870708059 0.0 0.0 0.0 0.0
94 2 3.932174043943035 9.283396571397372 0.0 0.0 0.0 0.0
95 1 5.077299202174778 9.365169723838125 0.0 0.0 0.0 0.0
96 1 5.597832553577786 9.795622181160894 0.0 0.0 0.0 0.0
97 1 6.263969155854642 0.05916189102258258 0.0 0.0 0.0 0.0
98 1 6.965708306272233 9.272380253375426 0.0 0.0 0.0 0.0
99 2 8.086312109061605 9.235190121715503 0.0 0.0 0.0 0.0
100 2 9.305929808892925 9.51975270600121 0.0 0.0 0.0 0.0
ITEM: TIMESTEP
6
ITEM: NUMBER OF ATOMS
100
ITEM: BOX BOUNDS xy xz yz pp pp pp
0.0 9.940449999999998 0.0
0.0 9.88045 0.0
0.0 10.0 3.135355458e-314
ITEM: ATOMS id type x y z vx vy vz
1 1 0.9255711521493862 0.22357806668022906 0.0 0.0 0.0 0.0
2 1 1.028868962077778 0.8931206451500032 0.0 0.0 0.0 0.0
3 2 2.0026714237657104 0.38368458207239 0.0 0.0 0.0 0.0