ITEM: TIMESTEP
1
ITEM: NUMBER OF ATOMS
36
ITEM: BOX BOUNDS xy xz yz pp pp pp
0.0 4.162318181622114 0.01
0.0 3.604673283918601 0.0
0.0 10.0 0.0
ITEM: ATOMS id type x y z vx vy vz
1 1 1.8344063053679847e-5 -0.00010914040480696668 0.0 0.0 0.0 0.0
2 1 0.69375879681605 -0.00014098436810692683 0.0 0.0 0.0 0.0
3 1 1.387469743794745 -5.797614496804163e-5 0.0 0.0 0.0 0.0
4 1 2.0811451171377238 2.0284830288573715e-5 0.0 0.0 0.0 0.0
5 1 2.774844677158688 9.930790438116835e-5 0.0 0.0 0.0 0.0
6 1 3.468573496072238 0.0001434993630081189 0.0 0.0 0.0 0.0
7 1 0.34855053566267846 0.6006365452172354 0.0 0.0 0.0 0.0
8 1 1.042286192710602 0.6006804537694647 0.0 0.0 0.0 0.0
9 1 1.7359913957880955 0.6007631182873734 0.0 0.0 0.0 0.0
10 1 2.4296672085426207 0.60083568947346 0.0 0.0 0.0 0.0
11 1 3.1233713305005977 0.6009189824100386 0.0 0.0 0.0 0.0
12 1 3.8171061328817664 0.6008834731862375 0.0 0.0 0.0 0.0
13 1 0.0033180103467658423 1.201448369686756 0.0 0.0 0.0 0.0
14 1 0.6970832894833102 1.2014134409491266 0.0 0.0 0.0 0.0
15 1 1.3908119817058175 1.2014966942409877 0.0 0.0 0.0 0.0
16 1 2.0845121915432308 1.2015783411139267 0.0 0.0 0.0 0.0
17 1 2.778186970203687 1.2016604123613481 0.0 0.0 0.0 0.0
18 1 3.4718980463324 1.2017043681243906 0.0 0.0 0.0 0.0
19 1 0.3518838184350946 1.8021854393110672 0.0 0.0 0.0 0.0
20 1 1.0456194000452086 1.8022300216478941 0.0 0.0 0.0 0.0
21 1 1.7393246696428437 1.8023120250466518 0.0 0.0 0.0 0.0
22 1 2.433000716681498 1.8024023081376528 0.0 0.0 0.0 0.0
23 1 3.1267049104556293 1.80248494012842 0.0 0.0 0.0 0.0
24 1 3.820439651504421 1.8024501046738135 0.0 0.0 0.0 0.0
25 1 0.006685067936324179 2.403006383483835 0.0 0.0 0.0 0.0
26 1 0.700425466920354 2.4029681023099867 0.0 0.0 0.0 0.0
27 1 1.3941364137347505 2.4030511165024744 0.0 0.0 0.0 0.0
28 1 2.087811840992655 2.403135808664377 0.0 0.0 0.0 0.0
29 1 2.7815114569831376 2.403221263531016 0.0 0.0 0.0 0.0
30 1 3.475240282813785 2.403265460587987 0.0 0.0 0.0 0.0
31 1 0.35522467020358645 3.0037476293054497 0.0 0.0 0.0 0.0
32 1 1.048952769214247 3.0037918778528105 0.0 0.0 0.0 0.0
33 1 1.7426504956249658 3.0038742140670562 0.0 0.0 0.0 0.0
34 1 2.436326425413157 3.0039556401672014 0.0 0.0 0.0 0.0
35 1 3.1300380935790515 3.0040385982757547 0.0 0.0 0.0 0.0
36 1 3.823780385840101 3.004003445085434 0.0 0.0 0.0 0.0
ITEM: TIMESTEP
2
ITEM: NUMBER OF ATOMS
36
ITEM: BOX BOUNDS xy xz yz pp pp pp
0.0 4.162318181622114 0.02
0.0 3.604673283918601 0.0
0.0 10.0 0.0
ITEM: ATOMS id type x y z vx vy vz
1 1 1.891593576195017e-5 -0.00010937599800595238 0.0 0.0 0.0 0.0
2 1 0.6937599827931892 -0.0001418010818162634 0.0 0.0 0.0 0.0
3 1 1.3874713748311225 -5.8393471328941494e-5 0.0 0.0 0.0 0.0
4 1 2.081146948807945 2.0552944978363252e-5 0.0 0.0 0.0 0.0
5 1 2.7748467150358036 0.00010000603761784759 0.0 0.0 0.0 0.0
6 1 3.4685754697295477 0.00014395817671947713 0.0 0.0 0.0 0.0
7 1 0.3502199689120745 0.6006359629521265 0.0 0.0 0.0 0.0
8 1 1.043956040205523 0.600679830318401 0.0 0.0 0.0 0.0
9 1 1.7376619057217366 0.6007633128880235 0.0 0.0 0.0 0.0
10 1 2.4313378725387564 0.6008363647316952 0.0 0.0 0.0 0.0
11 1 3.1250418975106946 0.60091975355297 0.0 0.0 0.0 0.0
12 1 3.818776845938464 0.6008835309069268 0.0 0.0 0.0 0.0
13 1 0.006653536159328827 1.2014478989019282 0.0 0.0 0.0 0.0
14 1 0.7004197510689443 1.2014122593962377 0.0 0.0 0.0 0.0
15 1 1.3941497891417822 1.2014960507986507 0.0 0.0 0.0 0.0
16 1 2.0878508160952682 1.2015789807657604 0.0 0.0 0.0 0.0
17 1 2.78152525630741 1.2016617741424533 0.0 0.0 0.0 0.0
18 1 3.4752353750551532 1.2017051113621309 0.0 0.0 0.0 0.0
19 1 0.356886655365073 1.802184446503321 0.0 0.0 0.0 0.0
20 1 1.0506225632076753 1.8022284395272803 0.0 0.0 0.0 0.0
21 1 1.7443285868930278 1.8023115633189495 0.0 0.0 0.0 0.0
22 1 2.438005056411425 1.8024035167918746 0.0 0.0 0.0 0.0
23 1 3.131709248408678 1.802486541727664 0.0 0.0 0.0 0.0
24 1 3.8254440494142723 1.8024504396221077 0.0 0.0 0.0 0.0
25 1 0.013352607826761531 2.403006066649573 0.0 0.0 0.0 0.0
26 1 0.7070935286260713 2.402966560297611 0.0 0.0 0.0 0.0
27 1 1.400804926519966 2.403049737946156 0.0 0.0 0.0 0.0
28 1 2.0944806364418196 2.4031360007530957 0.0 0.0 0.0 0.0
29 1 2.7881805426290422 2.4032227680899183 0.0 0.0 0.0 0.0
30 1 3.4819093137903754 2.4032664845537286 0.0 0.0 0.0 0.0
31 1 0.3635595927663022 3.0037467295098255 0.0 0.0 0.0 0.0
32 1 1.0572874402082195 3.0037906319422834 0.0 0.0 0.0 0.0
33 1 1.7509850546669343 3.003873945895507 0.0 0.0 0.0 0.0
34 1 2.4446612773880223 3.0039564444549622 0.0 0.0 0.0 0.0
35 1 3.138373720638949 3.0040396363916084 0.0 0.0 0.0 0.0
36 1 3.832116733773762 3.0040035274780847 0.0 0.0 0.0 0.0
ITEM: TIMESTEP
3
ITEM: NUMBER OF ATOMS
36
ITEM: BOX BOUNDS xy xz yz pp pp pp
0.0 4.162318181622114 0.03
0.0 3.604673283918601 0.0
0.0 10.0 0.0
ITEM: ATOMS id type x y z vx vy vz
1 1 2.0145498378431468e-5 -0.00010931049805676069 0.0 0.0 0.0 0.0
2 1 0.6937617731570466 -0.00014181451423667848 0.0 0.0 0.0 0.0
3 1 1.387473607783922 -5.8463893050410985e-5 0.0 0.0 0.0 0.0
4 1 2.08114944884378 2.0537445623106514e-5 0.0 0.0 0.0 0.0
5 1 2.7748493771998377 0.00010007991946952668 0.0 0.0 0.0 0.0
6 1 3.4685780738860212 0.0001438862453536168 0.0 0.0 0.0 0.0
7 1 0.351889268198004 0.6006360485525921 0.0 0.0 0.0 0.0
8 1 1.0456252346311496 0.600679847865546 0.0 0.0 0.0 0.0
9 1 1.7393311791627384 0.6007634770442454 0.0 0.0 0.0 0.0
10 1 2.4330073172427533 0.6008365698028095 0.0 0.0 0.0 0.0
11 1 3.1267118519765975 0.6009198561277752 0.0 0.0 0.0 0.0
12 1 3.820447443962847 0.6008834274266592 0.0 0.0 0.0 0.0
13 1 0.009988533210408174 1.2014477134055375 0.0 0.0 0.0 0.0
14 1 0.7037552518006616 1.2014122023710585 0.0 0.0 0.0 0.0
15 1 1.3974856520894647 1.2014962243467269 0.0 0.0 0.0 0.0
16 1 2.0911869040811797 1.2015793200274951 0.0 0.0 0.0 0.0
17 1 2.784861627478652 1.2016619705878864 0.0 0.0 0.0 0.0
18 1 3.4785717707927057 1.2017049409241802 0.0 0.0 0.0 0.0
19 1 0.36188950863969616 1.802184499397314 0.0 0.0 0.0 0.0
20 1 1.0556252303498648 1.8022284981368784 0.0 0.0 0.0 0.0
21 1 1.749331416912536 1.8023117697861804 0.0 0.0 0.0 0.0
22 1 2.443008318425818 1.8024035606441413 0.0 0.0 0.0 0.0
23 1 3.1367131044150693 1.8024864830016825 0.0 0.0 0.0 0.0
24 1 3.830448467770378 1.8024502472356767 0.0 0.0 0.0 0.0
25 1 0.020020955930365552 2.4030060577802947 0.0 0.0 0.0 0.0
26 1 0.7137623547311889 2.402966527538193 0.0 0.0 0.0 0.0
27 1 1.407474197313014 2.403049716082027 0.0 0.0 0.0 0.0
28 1 2.101150254467352 2.4031359125333305 0.0 0.0 0.0 0.0
29 1 2.7948504032713846 2.403222647294711 0.0 0.0 0.0 0.0
30 1 3.4885791190613658 2.40326628384052 0.0 0.0 0.0 0.0
31 1 0.3718955222282321 3.0037467047483273 0.0 0.0 0.0 0.0
32 1 1.06562327756563 3.0037905568346037 0.0 0.0 0.0 0.0
33 1 1.7593211249703364 3.0038740062396085 0.0 0.0 0.0 0.0
34 1 2.45299764992231 3.0039564437613557 0.0 0.0 0.0 0.0
35 1 3.1467105337981276 3.004039544927583 0.0 0.0 0.0 0.0
36 1 3.8404540959960634 3.0040032858089765 0.0 0.0 0.0 0.0
ITEM: TIMESTEP
4
ITEM: NUMBER OF ATOMS
36
ITEM: BOX BOUNDS xy xz yz pp pp pp
0.0 4.162318181622114 0.04
0.0 3.604673283918601 0.0
0.0 10.0 0.0
ITEM: ATOMS id type x y z vx vy vz
1 1 2.1462890434631382e-5 -0.00010911293161940732 0.0 0.0 0.0 0.0
2 1 0.6937636661925992 -0.000141369959802044 0.0 0.0 0.0 0.0
3 1 1.387475956500993 -5.8193184068969644e-5 0.0 0.0 0.0 0.0
4 1 2.081152057009669 2.040445353857441e-5 0.0 0.0 0.0 0.0
5 1 2.7748521447742114 9.968188724599631e-5 0.0 0.0 0.0 0.0
6 1 3.468580768365839 0.0001434448109645921 0.0 0.0 0.0 0.0
7 1 0.35355840168856434 0.6006364870685318 0.0 0.0 0.0 0.0
8 1 1.0472942805376884 0.6006803160226667 0.0 0.0 0.0 0.0
9 1 1.7410003290190783 0.6007637652173481 0.0 0.0 0.0 0.0
10 1 2.43467662975043 0.6008364181842456 0.0 0.0 0.0 0.0
11 1 3.128381643179121 0.6009194713426909 0.0 0.0 0.0 0.0
12 1 3.822117864973317 0.6008831787332684 0.0 0.0 0.0 0.0
13 1 0.013323257398399888 1.2014476467456296 0.0 0.0 0.0 0.0
14 1 0.7070905004650923 1.201412596885829 0.0 0.0 0.0 0.0
15 1 1.4008213080045038 1.2014967110000814 0.0 0.0 0.0 0.0
16 1 2.0945228182612565 1.2015795251279153 0.0 0.0 0.0 0.0
17 1 2.7881977763614008 1.2016616912513898 0.0 0.0 0.0 0.0
18 1 3.481907896625818 1.2017043781532362 0.0 0.0 0.0 0.0
19 1 0.36689223257301 1.8021849307891957 0.0 0.0 0.0 0.0
20 1 1.0606277875970194 1.8022290109732562 0.0 0.0 0.0 0.0
21 1 1.7543341591315205 1.8023120795431409 0.0 0.0 0.0 0.0
22 1 2.448011479310271 1.8024032919573725 0.0 0.0 0.0 0.0
23 1 3.1417168251458234 1.8024859575493177 0.0 0.0 0.0 0.0
24 1 3.8354527394244733 1.8024499089120438 0.0 0.0 0.0 0.0
25 1 0.026689424536455127 2.403006195943613 0.0 0.0 0.0 0.0
26 1 0.7204313226034825 2.402966984140426 0.0 0.0 0.0 0.0
27 1 1.4141436227034017 2.403050025370794 0.0 0.0 0.0 0.0
28 1 2.1078200139415024 2.4031357209826805 0.0 0.0 0.0 0.0
29 1 2.8015203968246127 2.403222093426211 0.0 0.0 0.0 0.0
30 1 3.495249041301209 2.403265711973983 0.0 0.0 0.0 0.0
31 1 0.38023170512365717 3.003747070720075 0.0 0.0 0.0 0.0
32 1 1.0739593993549448 3.0037909614120197 0.0 0.0 0.0 0.0
33 1 1.767657480993747 3.0038742093670736 0.0 0.0 0.0 0.0
34 1 2.461334296772507 3.0039561377898805 0.0 0.0 0.0 0.0
35 1 3.1550476104885457 3.0040390039070095 0.0 0.0 0.0 0.0
36 1 3.848791696940281 3.0040029232118357 0.0 0.0 0.0 0.0
ITEM: TIMESTEP
5
ITEM: NUMBER OF ATOMS
36
ITEM: BOX BOUNDS xy xz yz pp pp pp
0.0 4.162318181622114 0.05
0.0 3.604673283918601 0.0
0.0 10.0 0.0
ITEM: ATOMS id type x y z vx vy vz
1 1 2.2754534149119114e-5 -0.00010886362053561335 0.0 0.0 0.0 0.0
2 1 0.6937655430268235 -0.00014073117000845228 0.0 0.0 0.0 0.0
3 1 1.3874782852616632 -5.7776769409554397e-5 0.0 0.0 0.0 0.0
4 1 2.0811546297724455 2.0222255764519376e-5 0.0 0.0 0.0 0.0
5 1 2.774854875170087 9.906717374293067e-5 0.0 0.0 0.0 0.0
6 1 3.468583425179166 0.00014280914590109452 0.0 0.0 0.0 0.0
7 1 0.35522751782848416 0.6006370926983122 0.0 0.0 0.0 0.0
8 1 1.0489633507369034 0.6006809856429769 0.0 0.0 0.0 0.0
9 1 1.742669544204711 0.6007641163744225 0.0 0.0 0.0 0.0
10 1 2.43634599478001 0.6008361173015093 0.0 0.0 0.0 0.0
11 1 3.130051433607737 0.6009188646524909 0.0 0.0 0.0 0.0
12 1 3.823788250645663 0.6008828527596521 0.0 0.0 0.0 0.0
13 1 0.016657953025076316 1.2014476344310119 0.0 0.0 0.0 0.0
14 1 0.7104257641287938 1.2014131675898616 0.0 0.0 0.0 0.0
15 1 1.404157064657917 1.2014973133488505 0.0 0.0 0.0 0.0
16 1 2.0978588796983613 1.2015796871082893 0.0 0.0 0.0 0.0
17 1 2.791534010431423 1.201661242014437 0.0 0.0 0.0 0.0
18 1 3.4852440185138005 1.2017036514688297 0.0 0.0 0.0 0.0
19 1 0.37189493831138437 1.802185516003053 0.0 0.0 0.0 0.0
20 1 1.0656303659894044 1.8022296609024753 0.0 0.0 0.0 0.0
21 1 1.759336966463399 1.80231240861122 0.0 0.0 0.0 0.0
22 1 2.453014696519285 1.8024029392417815 0.0 0.0 0.0 0.0
23 1 3.1467205518017134 1.8024852962835696 0.0 0.0 0.0 0.0
24 1 3.8404569800883723 1.802449528449552 0.0 0.0 0.0 0.0
25 1 0.03335786944791188 2.4030063993388198 0.0 0.0 0.0 0.0
26 1 0.727100273945171 2.402967600053919 0.0 0.0 0.0 0.0
27 1 1.420813028687598 2.403050416968359 0.0 0.0 0.0 0.0
28 1 2.11448974008736 2.4031354935765203 0.0 0.0 0.0 0.0
29 1 2.8081903567711555 2.4032214130742466 0.0 0.0 0.0 0.0
30 1 3.501918930277974 2.4032650077527995 0.0 0.0 0.0 0.0
31 1 0.3885678817778322 3.003747605037402 0.0 0.0 0.0 0.0
32 1 1.0822955075324134 3.003791539944248 0.0 0.0 0.0 0.0
33 1 1.7759937943424395 3.003874461091926 0.0 0.0 0.0 0.0
34 1 2.4696708900701956 3.0039557226363454 0.0 0.0 0.0 0.0
35 1 3.1633846532722623 3.0040382886904706 0.0 0.0 0.0 0.0
36 1 3.857129276175795 3.0040025087162117 0.0 0.0 0.0 0.0
ITEM: TIMESTEP
6
ITEM: NUMBER OF ATOMS
36
ITEM: BOX BOUNDS xy xz yz pp pp pp
0.0 4.162318181622114 0.060000000000000005
0.0 3.604673283918601 0.0
0.0 10.0 0.0
ITEM: ATOMS id type x y z vx vy vz
1 1 2.4042176184345e-5 -0.00010858663251103574 0.0 0.0 0.0 0.0
2 1 0.6937674186144008 -0.00014000985292770375 0.0 0.0 0.0 0.0
3 1 1.3874806068269196 -5.7316296197631666e-5 0.0 0.0 0.0 0.0
4 1 2.0811571857666493 2.0013727771313824e-5 0.0 0.0 0.0 0.0
5 1 2.7748575845665284 9.836288483179185e-5 0.0 0.0 0.0 0.0
6 1 3.46858606269238 0.0001420690692916146 0.0 0.0 0.0 0.0
7 1 0.3568966498049385 0.6006377887845346 0.0 0.0 0.0 0.0
8 1 1.050632437300473 0.6006817320479916 0.0 0.0 0.0 0.0
9 1 1.744338771780516 0.6007644797104681 0.0 0.0 0.0 0.0
10 1 2.4380153624243235 0.6008357591737777 0.0 0.0 0.0 0.0
11 1 3.131721221752708 0.6009181608451659 0.0 0.0 0.0 0.0
12 1 3.825458636565688 0.6008824866306195 0.0 0.0 0.0 0.0
13 1 0.019992650303830295 1.2014476529609726 0.0 0.0 0.0 0.0
14 1 0.713761040368207 1.2014138247714463 0.0 0.0 0.0 0.0
15 1 1.4074928434137683 1.2014979640321157 0.0 0.0 0.0 0.0
16 1 2.101194962166794 1.2015798284509638 0.0 0.0 0.0 0.0
17 1 2.794870252848051 1.2016607089480318 0.0 0.0 0.0 0.0
18 1 3.488580134997823 1.201702824970964 0.0 0.0 0.0 0.0
19 1 0.3768976621352906 1.8021862030133375 0.0 0.0 0.0 0.0
20 1 1.0706329626424067 1.802230395402439 0.0 0.0 0.0 0.0
21 1 1.7643397884797212 1.802312760360402 0.0 0.0 0.0 0.0
22 1 2.4580179192247114 1.8024025402924957 0.0 0.0 0.0 0.0
23 1 3.1517242794429774 1.8024845516524346 0.0 0.0 0.0 0.0
24 1 3.8454612238895676 1.8024491180554036 0.0 0.0 0.0 0.0
25 1 0.04002631378092106 2.4030066438108455 0.0 0.0 0.0 0.0
26 1 0.7337692274020541 2.4029683112303704 0.0 0.0 0.0 0.0
27 1 1.4274824308790153 2.4030508645441775 0.0 0.0 0.0 0.0
28 1 2.1211594529074738 2.403135253229626 0.0 0.0 0.0 0.0
29 1 2.8148602991922917 2.4032206580217093 0.0 0.0 0.0 0.0
30 1 3.508588803440347 2.4032642132017505 0.0 0.0 0.0 0.0
31 1 0.3969040600989174 3.0037482422995487 0.0 0.0 0.0 0.0
32 1 1.0906316163662588 3.0037922054747495 0.0 0.0 0.0 0.0
33 1 1.7843301028977692 3.0038747364575715 0.0 0.0 0.0 0.0
34 1 2.4780074690851013 3.003955261960006 0.0 0.0 0.0 0.0
35 1 3.1717216787322697 3.004037489554063 0.0 0.0 0.0 0.0
36 1 3.8654668417976055 3.0040020659907807 0.0 0.0 0.0 0.0
ITEM: TIMESTEP
7
ITEM: NUMBER OF ATOMS
36
ITEM: BOX BOUNDS xy xz yz pp pp pp
0.0 4.162318181622114 0.07
0.0 3.604673283918601 0.0
0.0 10.0 0.0
ITEM: ATOMS id type x y z vx vy vz
1 1 2.5327190204779732e-5 -0.0001082892834090788 0.0 0.0 0.0 0.0
2 1 0.6937692942090947 -0.0001392360250914885 0.0 0.0 0.0 0.0
3 1 1.3874829232099224 -5.683460888274499e-5 0.0 0.0 0.0 0.0
4 1 2.0811597279057183 1.9785748181859845e-5 0.0 0.0 0.0 0.0
5 1 2.7748602755676504 9.759884457639143e-5 0.0 0.0 0.0 0.0
6 1 3.468588681999442 0.0001412476922024892 0.0 0.0 0.0 0.0
7 1 0.35856579684256407 0.600638553591518 0.0 0.0 0.0 0.0
8 1 1.0523015363347228 0.6006825247263881 0.0 0.0 0.0 0.0
9 1 1.7460080055483556 0.6007648458164059 0.0 0.0 0.0 0.0
10 1 2.4396847269835735 0.6008353648288086 0.0 0.0 0.0 0.0
11 1 3.1333910043308633 0.6009173902837223 0.0 0.0 0.0 0.0
12 1 3.827129021379876 0.6008820895578921 0.0 0.0 0.0 0.0
13 1 0.023327345780910072 1.2014476946861188 0.0 0.0 0.0 0.0
14 1 0.7170963236953751 1.201414540198519 0.0 0.0 0.0 0.0
15 1 1.4108286347959715 1.2014986420646963 0.0 0.0 0.0 0.0
16 1 2.104531054333752 1.201579955767081 0.0 0.0 0.0 0.0
17 1 2.798206494135098 1.2016601191822738 0.0 0.0 0.0 0.0
18 1 3.4919162397810557 1.2017019192819345 0.0 0.0 0.0 0.0
19 1 0.38190040495117045 1.8021869726525923 0.0 0.0 0.0 0.0
20 1 1.0756355755864822 1.802231189197281 0.0 0.0 0.0 0.0
21 1 1.7693426205956009 1.8023131282260934 0.0 0.0 0.0 0.0
22 1 2.4630211428149913 1.8024021136286288 0.0 0.0 0.0 0.0
23 1 3.1567280055693225 1.8024837491114967 0.0 0.0 0.0 0.0
24 1 3.8504654705144814 1.802448684690354 0.0 0.0 0.0 0.0
25 1 0.046694760629094216 2.4030069222534647 0.0 0.0 0.0 0.0
26 1 0.7404381865879038 2.4029690921528206 0.0 0.0 0.0 0.0
27 1 1.4341518335941612 2.4030513500275372 0.0 0.0 0.0 0.0
28 1 2.1278291570388026 2.4031350070417443 0.0 0.0 0.0 0.0
29 1 2.821530227835663 2.403219853757725 0.0 0.0 0.0 0.0
30 1 3.5152586629673555 2.4032633473618823 0.0 0.0 0.0 0.0
31 1 0.4052402466907133 3.003748962503574 0.0 0.0 0.0 0.0
32 1 1.0989677335281993 3.0037929307669375 0.0 0.0 0.0 0.0
33 1 1.79266641616596 3.0038750281871343 0.0 0.0 0.0 0.0
34 1 2.486344043564613 3.003954776243744 0.0 0.0 0.0 0.0
35 1 3.18005869459066 3.004036635061962 0.0 0.0 0.0 0.0
36 1 3.8738043995155578 3.004001603561116 0.0 0.0 0.0 0.0
ITEM: TIMESTEP
8
ITEM: NUMBER OF ATOMS
36
ITEM: BOX BOUNDS xy xz yz pp pp pp
0.0 4.162318181622114 0.08
0.0 3.604673283918601 0.0
0.0 10.0 0.0
ITEM: ATOMS id type x y z vx vy vz
1 1 2.6608937342192464e-5 -0.0001079743324565433 0.0 0.0 0.0 0.0
2 1 0.6937711692374221 -0.0001384195956688865 0.0 0.0 0.0 0.0
3 1 1.3874852338631676 -5.633903050112933e-5 0.0 0.0 0.0 0.0
4 1 2.081162255677194 1.9540236685112128e-5 0.0 0.0 0.0 0.0
5 1 2.7748629472785202 9.678416433256116e-5 0.0 0.0 0.0 0.0
6 1 3.468591281398036 0.00014035239332205743 0.0 0.0 0.0 0.0
7 1 0.3602349589061877 0.6006393798372163 0.0 0.0 0.0 0.0
8 1 1.0539706468911867 0.6006833541456735 0.0 0.0 0.0 0.0
9 1 1.7476772439624768 0.6007652118308413 0.0 0.0 0.0 0.0
10 1 2.4413540868799437 0.6008349408546885 0.0 0.0 0.0 0.0
11 1 3.1350607798969485 0.6009165626767162 0.0 0.0 0.0 0.0
12 1 3.8287994039249535 0.6008816646143127 0.0 0.0 0.0 0.0
13 1 0.026662037376926705 1.2014477567736872 0.0 0.0 0.0 0.0
14 1 0.7204316120834988 1.201415304195965 0.0 0.0 0.0 0.0
15 1 1.414164436580752 1.20149934043617 0.0 0.0 0.0 0.0
16 1 2.107867153825365 1.2015800712634477 0.0 0.0 0.0 0.0
17 1 2.80154273155606 1.201659481837616 0.0 0.0 0.0 0.0
18 1 3.495252329537111 1.2017009417122972 0.0 0.0 0.0 0.0
19 1 0.3869031682594197 1.8021878180252977 0.0 0.0 0.0 0.0
20 1 1.0806382054224135 1.8022320332876878 0.0 0.0 0.0 0.0
21 1 1.7743454627921107 1.8023135097306924 0.0 0.0 0.0 0.0
22 1 2.4680243671797686 1.8024016658937196 0.0 0.0 0.0 0.0
23 1 3.161731730182475 1.8024828982756467 0.0 0.0 0.0 0.0
24 1 3.8554697202655044 1.8024482314785908 0.0 0.0 0.0 0.0
25 1 0.053363211234988536 2.403007232190722 0.0 0.0 0.0 0.0
26 1 0.7471071529802316 2.4029699335032872 0.0 0.0 0.0 0.0
27 1 1.4408212383317947 2.403051866684306 0.0 0.0 0.0 0.0
28 1 2.1344988538518495 2.4031347572176798 0.0 0.0 0.0 0.0
29 1 2.828200143525815 2.403219009375412 0.0 0.0 0.0 0.0
30 1 3.5219285088705465 2.403262417591332 0.0 0.0 0.0 0.0
31 1 0.4135764452957224 3.003749758771893 0.0 0.0 0.0 0.0
32 1 1.1073038621547882 3.003793706758165 0.0 0.0 0.0 0.0
33 1 1.8010027369790316 3.0038753338381285 0.0 0.0 0.0 0.0
34 1 2.4946806162794064 3.003954272330518 0.0 0.0 0.0 0.0
35 1 3.18839570343663 3.0040357350783236 0.0 0.0 0.0 0.0
36 1 3.8821419519093032 3.004001124733273 0.0 0.0 0.0 0.0
ITEM: TIMESTEP
9
ITEM: NUMBER OF ATOMS
36
ITEM: BOX BOUNDS xy xz yz pp pp pp
0.0 4.162318181622114 0.09
0.0 3.604673283918601 0.0
0.0 10.0 0.0
ITEM: ATOMS id type x y z vx vy vz
1 1 2.7886205193111597e-5 -0.00010764325906098099 0.0 0.0 0.0 0.0
2 1 0.693773042625795 -0.0001375649474971402 0.0 0.0 0.0 0.0
3 1 1.3874875376389988 -5.583272651513937e-5 0.0 0.0 0.0 0.0
4 1 2.081164767790946 1.9277590222607227e-5 0.0 0.0 0.0 0.0
5 1 2.7748655979593466 9.592219226524862e-5 0.0 0.0 0.0 0.0
6 1 3.4685938584644522 0.0001393862737414828 0.0 0.0 0.0 0.0
7 1 0.3619041365033414 0.6006402642850909 0.0 0.0 0.0 0.0
8 1 1.0556397687293362 0.6006842165274432 0.0 0.0 0.0 0.0
9 1 1.749346486189154 0.6007655765689036 0.0 0.0 0.0 0.0
10 1 2.4430234411049057 0.6008344897780333 0.0 0.0 0.0 0.0
11 1 3.1367305474342837 0.6009156820799834 0.0 0.0 0.0 0.0
12 1 3.830469783467266 0.6008812133026558 0.0 0.0 0.0 0.0
13 1 0.029996723926957142 1.2014478378048543 0.0 0.0 0.0 0.0
14 1 0.7237669046291678 1.2014161126280052 0.0 0.0 0.0 0.0
15 1 1.417500247886694 1.2015000563318774 0.0 0.0 0.0 0.0
16 1 2.111203259616675 1.20158017581102 0.0 0.0 0.0 0.0
17 1 2.8048789635230067 1.2016588005847133 0.0 0.0 0.0 0.0
18 1 3.4985884018937266 1.2016998955825895 0.0 0.0 0.0 0.0
19 1 0.39190595414890067 1.8021887361731561 0.0 0.0 0.0 0.0
20 1 1.085640853474676 1.8022329241560506 0.0 0.0 0.0 0.0
21 1 1.7793483158110477 1.802313903965574 0.0 0.0 0.0 0.0
22 1 2.4730275928885512 1.8024011998817508 0.0 0.0 0.0 0.0
23 1 3.1667354538553703 1.80248200348448 0.0 0.0 0.0 0.0
24 1 3.860473973984669 1.8024477601883686 0.0 0.0 0.0 0.0
25 1 0.06003166636512996 2.403007572492632 0.0 0.0 0.0 0.0
26 1 0.7537761276025562 2.4029708312789393 0.0 0.0 0.0 0.0
27 1 1.4474906460377344 2.4030524117276455 0.0 0.0 0.0 0.0
28 1 2.1411685440366544 2.4031345045047816 0.0 0.0 0.0 0.0
29 1 2.834870046389669 2.4032181285457836 0.0 0.0 0.0 0.0
30 1 3.528598340588457 2.403261427313266 0.0 0.0 0.0 0.0
31 1 0.42191265877110584 3.003750628135242 0.0 0.0 0.0 0.0
32 1 1.1156400043879349 3.003794529899604 0.0 0.0 0.0 0.0
33 1 1.809339066937249 3.0038756524684844 0.0 0.0 0.0 0.0
34 1 2.5030171886562056 3.003953752985663 0.0 0.0 0.0 0.0
35 1 3.1967327066479854 3.0040347939000633 0.0 0.0 0.0 0.0
36 1 3.8904795005917543 3.004000631269202 0.0 0.0 0.0 0.0
ITEM: TIMESTEP
10
ITEM: NUMBER OF ATOMS
36
ITEM: BOX BOUNDS xy xz yz pp pp pp
0.0 4.162318181622114 0.09999999999999999
0.0 3.604673283918601 0.0
0.0 10.0 0.0
ITEM: ATOMS id type x y z vx vy vz
1 1 2.9157555223278133e-5 -0.0001072972424669366 0.0 0.0 0.0 0.0
2 1 0.6937749130961838 -0.00013667494001004833 0.0 0.0 0.0 0.0
3 1 1.3874898331785792 -5.531769990052225e-5 0.0 0.0 0.0 0.0
4 1 2.0811672627090148 1.8997721540721487e-5 0.0 0.0 0.0 0.0
5 1 2.774868225605598 9.501457647804666e-5 0.0 0.0 0.0 0.0
6 1 3.468596410544539 0.00013835120839686868 0.0 0.0 0.0 0.0
7 1 0.3635733302744575 0.6006412048161863 0.0 0.0 0.0 0.0
8 1 1.0573089017698314 0.6006851097394428 0.0 0.0 0.0 0.0
9 1 1.7510157315312844 0.600765939314301 0.0 0.0 0.0 0.0
10 1 2.444692788752901 0.6008340129301688 0.0 0.0 0.0 0.0
11 1 3.138400306028808 0.6009147509376447 0.0 0.0 0.0 0.0
12 1 3.83214015940501 0.6008807366994015 0.0 0.0 0.0 0.0
13 1 0.03333140448078786 1.2014479367249136 0.0 0.0 0.0 0.0
14 1 0.7271022006842428 1.201416962939001 0.0 0.0 0.0 0.0
15 1 1.4208360681178198 1.201500788160118 0.0 0.0 0.0 0.0
16 1 2.1145393709523628 1.2015802698677143 0.0 0.0 0.0 0.0
17 1 2.808215188683169 1.2016580774718106 0.0 0.0 0.0 0.0
18 1 3.5019244547110917 1.2016987830612433 0.0 0.0 0.0 0.0
19 1 0.3969087649092868 1.8021897252973358 0.0 0.0 0.0 0.0
20 1 1.0906435212918237 1.8022338599584034 0.0 0.0 0.0 0.0
21 1 1.7843511805990648 1.802314310532983 0.0 0.0 0.0 0.0
22 1 2.4780308206918327 1.802400717256968 0.0 0.0 0.0 0.0
23 1 3.1717391773467334 1.8024810675464367 0.0 0.0 0.0 0.0
24 1 3.865478232723409 1.8024472722278635 0.0 0.0 0.0 0.0
25 1 0.06670012665366322 2.4030079423972674 0.0 0.0 0.0 0.0
26 1 0.7604451113646273 2.4029717830503246 0.0 0.0 0.0 0.0
27 1 1.454160057537233 2.403052983583656 0.0 0.0 0.0 0.0
28 1 2.1478382281291992 2.4031342492339975 0.0 0.0 0.0 0.0
29 1 2.841539936386312 2.403217213324998 0.0 0.0 0.0 0.0
30 1 3.535268157425986 2.403260378810434 0.0 0.0 0.0 0.0
31 1 0.4302488897798958 3.0037515687587315 0.0 0.0 0.0 0.0
32 1 1.1239761621874234 3.0037953982991232 0.0 0.0 0.0 0.0
33 1 1.8176754074240942 3.0038759836222884 0.0 0.0 0.0 0.0
34 1 2.511353761876144 3.0039532198085372 0.0 0.0 0.0 0.0
35 1 3.2050697053718795 3.0040338142497305 0.0 0.0 0.0 0.0
36 1 3.898817046985386 3.004000124533951 0.0 0.0 0.0 0.0
ITEM: TIMESTEP
11
ITEM: NUMBER OF ATOMS
36
ITEM: BOX BOUNDS xy xz yz pp pp pp
0.0 4.162318181622114 0.10999999999999999
0.0 3.604673283918601 0.0
0.0 10.0 0.0
ITEM: ATOMS id type x y z vx vy vz
1 1 3.0421396526928794e-5 -0.0001069374595285631 0.0 0.0 0.0 0.0
2 1 0.693776779214477 -0.00013575209266560763 0.0 0.0 0.0 0.0
3 1 1.3874921189769456 -5.479567230671623e-5 0.0 0.0 0.0 0.0
4 1 2.0811697387512775 1.8700369281591234e-5 0.0 0.0 0.0 0.0
5 1 2.774870828079137 9.406246064764773e-5 0.0 0.0 0.0 0.0
6 1 3.4685989348709176 0.000137248733968206 0.0 0.0 0.0 0.0
7 1 0.3652425408670278 0.6006421995615114 0.0 0.0 0.0 0.0
8 1 1.0589780459527618 0.6006860320868297 0.0 0.0 0.0 0.0
9 1 1.7526849793072503 0.6007662994718387 0.0 0.0 0.0 0.0
10 1 2.44636212893789 0.6008335112988263 0.0 0.0 0.0 0.0
11 1 3.140070054804213 0.6009137712692291 0.0 0.0 0.0 0.0
12 1 3.8338105311828548 0.6008802357810334 0.0 0.0 0.0 0.0
13 1 0.03666607809235215 1.201448052523109 0.0 0.0 0.0 0.0
14 1 0.7304374996131411 1.2014178529540234 0.0 0.0 0.0 0.0
15 1 1.4241718967190444 1.2015015346522937 0.0 0.0 0.0 0.0
16 1 2.117875487131219 1.2015803537601757 0.0 0.0 0.0 0.0
17 1 2.8115514057351523 1.2016573140848745 0.0 0.0 0.0 0.0
18 1 3.505260485902639 1.2016976060197506 0.0 0.0 0.0 0.0
19 1 0.4019116029169158 1.8021907839035685 0.0 0.0 0.0 0.0
20 1 1.0956462105186169 1.8022348393382126 0.0 0.0 0.0 0.0
21 1 1.7893540581978309 1.8023147292110449 0.0 0.0 0.0 0.0
22 1 2.48303405144397 1.802400219399102 0.0 0.0 0.0 0.0
23 1 3.176742901540141 1.8024800929093843 0.0 0.0 0.0 0.0
24 1 3.8704824976638066 1.8024467689646149 0.0 0.0 0.0 0.0
25 1 0.07336859268846924 2.4030083412168928 0.0 0.0 0.0 0.0
26 1 0.7671141051284364 2.4029727867991455 0.0 0.0 0.0 0.0
27 1 1.4608294736176484 2.4030535810311613 0.0 0.0 0.0 0.0
28 1 2.1545079066294934 2.4031339916340113 0.0 0.0 0.0 0.0
29 1 2.8482098134453584 2.403216265337154 0.0 0.0 0.0 0.0
30 1 3.541937958678795 2.403259274099894 0.0 0.0 0.0 0.0
31 1 0.43858514097176726 3.0037525791085096 0.0 0.0 0.0 0.0
32 1 1.1323123375138873 3.003796310554889 0.0 0.0 0.0 0.0
33 1 1.8260117598252004 3.003876327022397 0.0 0.0 0.0 0.0
34 1 2.519690337128949 3.0039526741147946 0.0 0.0 0.0 0.0
35 1 3.213406700779798 3.0040327984852584 0.0 0.0 0.0 0.0
36 1 3.907154592540985 3.0039996058460887 0.0 0.0 0.0 0.0
ITEM: TIMESTEP
12
ITEM: NUMBER OF ATOMS
36
ITEM: BOX BOUNDS xy xz yz pp pp pp
0.0 4.162318181622114 0.11999999999999998
0.0 3.604673283918601 0.0
0.0 10.0 0.0
ITEM: ATOMS id type x y z vx vy vz
1 1 3.172654999657405e-5 -0.00010654910252238689 0.0 0.0 0.0 0.0
2 1 0.6937786810668014 -0.0001347864668746096 0.0 0.0 0.0 0.0
3 1 1.3874944359334993 -5.427639539938564e-5 0.0 0.0 0.0 0.0
4 1 2.0811722450552312 1.8384291619241466e-5 0.0 0.0 0.0 0.0
5 1 2.7748734551209284 9.309129056422414e-5 0.0 0.0 0.0 0.0
6 1 3.4686014825042903 0.0001360991527009138 0.0 0.0 0.0 0.0
7 1 0.3669117563631728 0.6006432478856518 0.0 0.0 0.0 0.0
8 1 1.060647148974575 0.6006869584474085 0.0 0.0 0.0 0.0
9 1 1.7543541410842256 0.6007666221049797 0.0 0.0 0.0 0.0
10 1 2.4480313819609028 0.6008329807034102 0.0 0.0 0.0 0.0
11 1 3.141739761248903 0.6009127468096374 0.0 0.0 0.0 0.0
12 1 3.835480896633432 0.6008797146288224 0.0 0.0 0.0 0.0
13 1 0.04000069877242545 1.2014481796461167 0.0 0.0 0.0 0.0
14 1 0.7337727268007176 1.2014187813378752 0.0 0.0 0.0 0.0
15 1 1.4275075881518375 1.201502276607869 0.0 0.0 0.0 0.0
16 1 2.1212114175210384 1.201580390240037 0.0 0.0 0.0 0.0
17 1 2.814887466240356 1.2016564592269205 0.0 0.0 0.0 0.0
18 1 3.508596417177849 1.2016963316523446 0.0 0.0 0.0 0.0
19 1 0.40691447893423854 1.8021919362261851 0.0 0.0 0.0 0.0
20 1 1.1006489023288188 1.8022359052919696 0.0 0.0 0.0 0.0
21 1 1.7943568806881751 1.8023151765448224 0.0 0.0 0.0 0.0
22 1 2.488037205714973 1.8023996553817891 0.0 0.0 0.0 0.0
23 1 3.181746581270517 1.8024790199196077 0.0 0.0 0.0 0.0
24 1 3.8754867649105256 1.8024462342799075 0.0 0.0 0.0 0.0
25 1 0.08003712434614249 2.4030087862098766 0.0 0.0 0.0 0.0
26 1 0.7737831746774952 2.4029738968986805 0.0 0.0 0.0 0.0
27 1 1.4674989579788948 2.403054264034535 0.0 0.0 0.0 0.0
28 1 2.1611776398021445 2.403133733006873 0.0 0.0 0.0 0.0
29 1 2.854879726743579 2.4032152453840014 0.0 0.0 0.0 0.0
30 1 3.5486077919148564 2.4032580940601607 0.0 0.0 0.0 0.0
31 1 0.4469214890350775 3.003753690674504 0.0 0.0 0.0 0.0
32 1 1.1406486160599356 3.003797309362457 0.0 0.0 0.0 0.0
33 1 1.8343482297004385 3.003876701651914 0.0 0.0 0.0 0.0
34 1 2.528027018620205 3.0039521165453 0.0 0.0 0.0 0.0
35 1 3.221743775356669 3.004031752410781 0.0 0.0 0.0 0.0
36 1 3.9154922115220314 3.003999088834492 0.0 0.0 0.0 0.0
ITEM: TIMESTEP
13
ITEM: NUMBER OF ATOMS
36
ITEM: BOX BOUNDS xy xz yz pp pp pp
0.0 4.162318181622114 0.12999999999999998
0.0 3.604673283918601 0.0
0.0 10.0 0.0
ITEM: ATOMS id type x y z vx vy vz
1 1 3.298156933301961e-5 -0.00010615847408858299 0.0 0.0 0.0 0.0
2 1 0.6937805445027755 -0.0001337958202441402 0.0 0.0 0.0 0.0
3 1 1.3874967087870518 -5.373987268239896e-5 0.0 0.0 0.0 0.0
4 1 2.081174690344843 1.805044737955099e-5 0.0 0.0 0.0 0.0
5 1 2.7748760134080657 9.205131488936445e-5 0.0 0.0 0.0 0.0
6 1 3.4686039553173993 0.00013486776359969616 0.0 0.0 0.0 0.0
7 1 0.3685809896906583 0.6006443479645563 0.0 0.0 0.0 0.0
8 1 1.0623163000287652 0.6006879342854599 0.0 0.0 0.0 0.0
9 1 1.7560233753267678 0.6007669690937502 0.0 0.0 0.0 0.0
10 1 2.449700689452128 0.6008324220329929 0.0 0.0 0.0 0.0
11 1 3.1434094753517456 0.6009116673309299 0.0 0.0 0.0 0.0
12 1 3.8371512472264198 0.6008791659084968 0.0 0.0 0.0 0.0
13 1 0.04333533176121424 1.2014483235743527 0.0 0.0 0.0 0.0
14 1 0.7371080044178806 1.2014197438542886 0.0 0.0 0.0 0.0
15 1 1.4308434028650425 1.201503042585921 0.0 0.0 0.0 0.0
16 1 2.1245475097878583 1.2015804409639013 0.0 0.0 0.0 0.0
17 1 2.8182236330500543 1.2016556028023926 0.0 0.0 0.0 0.0
18 1 3.511932372661966 1.2016950199622987 0.0 0.0 0.0 0.0
19 1 0.41191737101435993 1.8021931343743443 0.0 0.0 0.0 0.0
20 1 1.105651631299663 1.8022369727764662 0.0 0.0 0.0 0.0
21 1 1.7993597756802076 1.8023156158852496 0.0 0.0 0.0 0.0
22 1 2.49304043100109 1.802399119538289 0.0 0.0 0.0 0.0
23 1 3.1867502960902203 1.80247796381337 0.0 0.0 0.0 0.0
24 1 3.8804910355513784 1.8024457019689097 0.0 0.0 0.0 0.0
25 1 0.08670561780974374 2.4030092487310677 0.0 0.0 0.0 0.0
26 1 0.78045220759189 2.402975011841137 0.0 0.0 0.0 0.0
27 1 1.474168402543597 2.403054919043378 0.0 0.0 0.0 0.0
28 1 2.1678473238815905 2.403133471808398 0.0 0.0 0.0 0.0
29 1 2.861549590822844 2.4032142323028522 0.0 0.0 0.0 0.0
30 1 3.5552775723743273 2.4032568829056924 0.0 0.0 0.0 0.0
31 1 0.4552578134152902 3.003754849479053 0.0 0.0 0.0 0.0
32 1 1.1489848589455862 3.003798319930756 0.0 0.0 0.0 0.0
33 1 1.8426846376788024 3.0038770764676435 0.0 0.0 0.0 0.0
34 1 2.5363636284348408 3.003951551029327 0.0 0.0 0.0 0.0
35 1 3.230080792975196 3.004030673512642 0.0 0.0 0.0 0.0
36 1 3.9238297841042984 3.003998557652247 0.0 0.0 0.0 0.0
ITEM: TIMESTEP
14