ITEM: TIMESTEP
1
ITEM: NUMBER OF ATOMS
100
ITEM: BOX BOUNDS xy xz yz pp pp pp
0.0 9.88045 0.01
0.0 9.88045 0.0
0.0 10.0 1.5e-323
ITEM: ATOMS id type x y z vx vy vz
1 1 0.9318131587754976 0.2435491170085158 0.0 0.0 0.0 0.0
2 1 1.040580886882058 0.9146074639128012 0.0 0.0 0.0 0.0
3 2 2.0088006393106688 0.3816927438071333 0.0 0.0 0.0 0.0
4 1 3.034557786828597 0.017517777564377827 0.0 0.0 0.0 0.0
5 2 4.580688186177831 0.4474112886271432 0.0 0.0 0.0 0.0
6 1 5.660057327920979 0.5967721498215725 0.0 0.0 0.0 0.0
7 1 6.3012232063318425 0.7520371530859508 0.0 0.0 0.0 0.0
8 2 7.311893110108305 0.3829116327287084 0.0 0.0 0.0 0.0
9 2 8.506658668002505 0.5639483960912002 0.0 0.0 0.0 0.0
10 2 9.803258422885905 0.7313408568451475 0.0 0.0 0.0 0.0
11 1 0.6856522954009957 1.4885936196588039 0.0 0.0 0.0 0.0
12 1 1.334870390791122 1.5319727992665821 0.0 0.0 0.0 0.0
13 2 2.393795245238599 1.583637476852505 0.0 0.0 0.0 0.0
14 2 3.481244800989502 0.9747874116684716 0.0 0.0 0.0 0.0
15 2 4.582574615761148 1.66736093591966 0.0 0.0 0.0 0.0
16 2 5.7577812034964735 1.7081039307859602 0.0 0.0 0.0 0.0
17 1 6.723022551940994 1.2818158924541472 0.0 0.0 0.0 0.0
18 2 7.747219040013095 1.5768582035265162 0.0 0.0 0.0 0.0
19 2 8.935436486867811 1.691473977647363 0.0 0.0 0.0 0.0
20 1 0.11024400858186359 1.8014860668730739 0.0 0.0 0.0 0.0
21 2 0.850259134117867 2.574216161566592 0.0 0.0 0.0 0.0
22 1 1.918269855311704 2.6713912429326867 0.0 0.0 0.0 0.0
23 1 2.570578052747617 2.6429964005229087 0.0 0.0 0.0 0.0
24 2 3.509863468456221 2.17937096898361 0.0 0.0 0.0 0.0
25 1 4.4331056229764485 2.7522158969099135 0.0 0.0 0.0 0.0
26 1 5.11561062571608 2.689057674592962 0.0 0.0 0.0 0.0
27 1 5.798691874183201 2.770912463175432 0.0 0.0 0.0 0.0
28 2 6.839897965573333 2.3958104996526357 0.0 0.0 0.0 0.0
29 2 8.174337688049993 2.8095909317646326 0.0 0.0 0.0 0.0
30 2 9.471226771279174 2.7592617821735597 0.0 0.0 0.0 0.0
31 1 0.29402335108616 3.5558125108117746 0.0 0.0 0.0 0.0
32 2 1.3677651284877896 3.6861138952341577 0.0 0.0 0.0 0.0
33 1 2.316972726476457 3.232923129653429 0.0 0.0 0.0 0.0
34 2 3.3904779835312007 3.3797786503420255 0.0 0.0 0.0 0.0
35 2 4.482644282338834 3.8243214428850085 0.0 0.0 0.0 0.0
36 1 5.436151235512935 3.3155945921526855 0.0 0.0 0.0 0.0
37 2 6.530446501763759 3.5777918389764487 0.0 0.0 0.0 0.0
38 1 7.596738550948072 3.749908243031794 0.0 0.0 0.0 0.0
39 1 8.907000247370252 3.6713658922899004 0.0 0.0 0.0 0.0
40 1 9.562335375821272 3.8687546349729844 0.0 0.0 0.0 0.0
41 2 0.5308217983962471 4.607444146375424 0.0 0.0 0.0 0.0
42 1 1.5957906199854368 4.7363726643118325 0.0 0.0 0.0 0.0
43 2 2.5750034022888406 4.285707247477445 0.0 0.0 0.0 0.0
44 1 3.6331799896571795 4.489349605071371 0.0 0.0 0.0 0.0
45 1 4.165989665471565 4.906895966628855 0.0 0.0 0.0 0.0
46 1 5.230612983800278 4.563327693732019 0.0 0.0 0.0 0.0
47 1 5.546820497395592 3.9835527985734602 0.0 0.0 0.0 0.0
48 1 7.263958270544871 4.376055140488037 0.0 0.0 0.0 0.0
49 2 8.317434070891226 4.564493169961013 0.0 0.0 0.0 0.0
50 1 9.363905093007684 4.517643510969213 0.0 0.0 0.0 0.0
51 1 9.854793188576188 5.530614025206503 0.0 0.0 0.0 0.0
52 2 1.0957010233049405 5.694915858644684 0.0 0.0 0.0 0.0
53 2 2.366403008440767 5.478667051671871 0.0 0.0 0.0 0.0
54 1 3.439512255850917 5.130557825055001 0.0 0.0 0.0 0.0
55 1 3.9824525502525723 5.557518728307252 0.0 0.0 0.0 0.0
56 2 5.068438103025147 5.60392144123251 0.0 0.0 0.0 0.0
57 2 6.266248768543462 4.821357378288382 0.0 0.0 0.0 0.0
58 1 7.347174159448078 5.061264087315105 0.0 0.0 0.0 0.0
59 2 8.232694770274755 5.767632412863711 0.0 0.0 0.0 0.0
60 1 9.253704382159748 5.205036925135841 0.0 0.0 0.0 0.0
61 2 0.2800003795541854 6.581240356064043 0.0 0.0 0.0 0.0
62 2 1.9168229121045859 6.61259894634903 0.0 0.0 0.0 0.0
63 1 2.9827845870138017 6.37217026437906 0.0 0.0 0.0 0.0
64 1 3.376883490060066 5.818104266078322 0.0 0.0 0.0 0.0
65 1 5.094534443389616 6.661149957853643 0.0 0.0 0.0 0.0
66 1 5.748645653453369 6.477133157731353 0.0 0.0 0.0 0.0
67 2 6.7102019279342 5.954966878100117 0.0 0.0 0.0 0.0
68 1 7.571548258006547 6.601539882205288 0.0 0.0 0.0 0.0
69 1 8.266590096718016 6.88457664110502 0.0 0.0 0.0 0.0
70 1 9.302256960243325 5.906426201879364 0.0 0.0 0.0 0.0
71 1 0.5288049602005711 7.615206837977679 0.0 0.0 0.0 0.0
72 1 1.1238913673560558 7.332380912701787 0.0 0.0 0.0 0.0
73 1 2.9456234530153216 7.04000104284928 0.0 0.0 0.0 0.0
74 2 4.015264656732818 6.695105554203077 0.0 0.0 0.0 0.0
75 1 4.911422951963917 7.299472965223598 0.0 0.0 0.0 0.0
76 1 5.550501100778876 7.1251792839622645 0.0 0.0 0.0 0.0
77 2 6.6147678876323175 7.190908572231762 0.0 0.0 0.0 0.0
78 1 7.681801693518853 7.234579670781839 0.0 0.0 0.0 0.0
79 1 8.226161247051781 7.572408356457815 0.0 0.0 0.0 0.0
80 2 9.293684747836348 7.459064653587123 0.0 0.0 0.0 0.0
81 2 0.1797887365560993 8.609920676645629 0.0 0.0 0.0 0.0
82 1 1.0856257612291336 8.00713620662491 0.0 0.0 0.0 0.0
83 2 2.153486500440172 7.809550111017704 0.0 0.0 0.0 0.0
84 2 3.5674608451395704 7.9423951219446955 0.0 0.0 0.0 0.0
85 2 4.764414996366543 8.346354980104586 0.0 0.0 0.0 0.0
86 1 5.68412112472161 7.767727555992421 0.0 0.0 0.0 0.0
87 2 5.997208083946185 8.799904781777784 0.0 0.0 0.0 0.0
88 2 7.281780363416796 8.237985965497458 0.0 0.0 0.0 0.0
89 1 8.389468678716757 8.200407922057794 0.0 0.0 0.0 0.0
90 1 8.964792290801753 8.504724423708899 0.0 0.0 0.0 0.0
91 1 0.48105143088135854 9.653343211750874 0.0 0.0 0.0 0.0
92 2 1.417376543538353 9.073994052049345 0.0 0.0 0.0 0.0
93 2 2.6850613593221895 8.897172628952005 0.0 0.0 0.0 0.0
94 2 3.9284221078552255 9.255402013396393 0.0 0.0 0.0 0.0
95 1 5.061972143255604 9.371311640117662 0.0 0.0 0.0 0.0
96 1 5.570628066049316 9.812936673583145 0.0 0.0 0.0 0.0
97 1 6.226943236768488 0.06324232545679433 0.0 0.0 0.0 0.0
98 1 6.957297331426123 9.268771362620999 0.0 0.0 0.0 0.0
99 2 8.065853598851312 9.235593791607926 0.0 0.0 0.0 0.0
100 2 9.279146950783066 9.522564729290968 0.0 0.0 0.0 0.0
ITEM: TIMESTEP
2
ITEM: NUMBER OF ATOMS
100
ITEM: BOX BOUNDS xy xz yz pp pp pp
0.0 9.88045 0.02
0.0 9.88045 0.0
0.0 10.0 1.5e-323
ITEM: ATOMS id type x y z vx vy vz
1 1 0.9328164004707691 0.24102363466259868 0.0 0.0 0.0 0.0
2 1 1.03938698707947 0.911871473275958 0.0 0.0 0.0 0.0
3 2 2.009358219354904 0.3839454794906294 0.0 0.0 0.0 0.0
4 1 3.0330978177761576 0.014216399742193575 0.0 0.0 0.0 0.0
5 2 4.579139180762141 0.4483050320226641 0.0 0.0 0.0 0.0
6 1 5.6586581030232415 0.6016257650373643 0.0 0.0 0.0 0.0
7 1 6.301017772069927 0.7545228460423297 0.0 0.0 0.0 0.0
8 2 7.311987213245227 0.38431159421435757 0.0 0.0 0.0 0.0
9 2 8.507101808404018 0.5639451622653014 0.0 0.0 0.0 0.0
10 2 9.80394101559912 0.7302480347228297 0.0 0.0 0.0 0.0
11 1 0.6868406653731128 1.4870432586528455 0.0 0.0 0.0 0.0
12 1 1.336220382608803 1.5271387788962767 0.0 0.0 0.0 0.0
13 2 2.394455269739726 1.5856751507708406 0.0 0.0 0.0 0.0
14 2 3.4788512064419694 0.9725451351663734 0.0 0.0 0.0 0.0
15 2 4.584989157971589 1.6668285159185383 0.0 0.0 0.0 0.0
16 2 5.759866365725944 1.7116514106947174 0.0 0.0 0.0 0.0
17 1 6.724178931216754 1.2836550704149092 0.0 0.0 0.0 0.0
18 2 7.748817885253792 1.577505237389376 0.0 0.0 0.0 0.0
19 2 8.937112136890528 1.6912099633623805 0.0 0.0 0.0 0.0
20 1 0.11196745486543391 1.8005563055410725 0.0 0.0 0.0 0.0
21 2 0.8538211803254754 2.5719319072177806 0.0 0.0 0.0 0.0
22 1 1.9218643908848625 2.672505775244637 0.0 0.0 0.0 0.0
23 1 2.5742058092025295 2.6440101485359304 0.0 0.0 0.0 0.0
24 2 3.5119199636307896 2.177370818214368 0.0 0.0 0.0 0.0
25 1 4.435012967647545 2.75073919464701 0.0 0.0 0.0 0.0
26 1 5.118324826718481 2.692578486037699 0.0 0.0 0.0 0.0
27 1 5.802364874297041 2.7734671483014743 0.0 0.0 0.0 0.0
28 2 6.843033619978836 2.3978072379340207 0.0 0.0 0.0 0.0
29 2 8.177131912286752 2.81016583468057 0.0 0.0 0.0 0.0
30 2 9.473988745431141 2.758645383081661 0.0 0.0 0.0 0.0
31 1 0.2974654868450006 3.55446439907523 0.0 0.0 0.0 0.0
32 2 1.3709084828395208 3.6843626663552715 0.0 0.0 0.0 0.0
33 1 2.321318712688417 3.2339754466764106 0.0 0.0 0.0 0.0
34 2 3.3954168033005185 3.3785384729265093 0.0 0.0 0.0 0.0
35 2 4.48793111209591 3.8222718970859426 0.0 0.0 0.0 0.0
36 1 5.442083035308275 3.31872811654396 0.0 0.0 0.0 0.0
37 2 6.534330238445207 3.5801276166062412 0.0 0.0 0.0 0.0
38 1 7.600483035611592 3.7511691285195647 0.0 0.0 0.0 0.0
39 1 8.910526479071985 3.671403658100466 0.0 0.0 0.0 0.0
40 1 9.566093353589517 3.868048200450644 0.0 0.0 0.0 0.0
41 2 0.53496093325568 4.606221841465478 0.0 0.0 0.0 0.0
42 1 1.6002564425012271 4.734032004150931 0.0 0.0 0.0 0.0
43 2 2.580961826543857 4.285701605507365 0.0 0.0 0.0 0.0
44 1 3.639690621978331 4.487930001247272 0.0 0.0 0.0 0.0
45 1 4.1746401937986795 4.903470893184179 0.0 0.0 0.0 0.0
46 1 5.232140724252969 4.5663206465733985 0.0 0.0 0.0 0.0
47 1 5.550658278988392 3.987103805009614 0.0 0.0 0.0 0.0
48 1 7.267658543469041 4.3781916913316135 0.0 0.0 0.0 0.0
49 2 8.321459588520948 4.565032753960646 0.0 0.0 0.0 0.0
50 1 9.367925640364968 4.517031731887398 0.0 0.0 0.0 0.0
51 1 9.860151069105957 5.530090215106533 0.0 0.0 0.0 0.0
52 2 1.1010317648077852 5.693306239786915 0.0 0.0 0.0 0.0
53 2 2.3694890983488004 5.477514269631998 0.0 0.0 0.0 0.0
54 1 3.4414332616397987 5.127159055325674 0.0 0.0 0.0 0.0
55 1 3.9858164129645233 5.55172225780576 0.0 0.0 0.0 0.0
56 2 5.072120305792463 5.608019887881888 0.0 0.0 0.0 0.0
57 2 6.269309960309823 4.823131709696474 0.0 0.0 0.0 0.0
58 1 7.351212318623294 5.063115473137294 0.0 0.0 0.0 0.0
59 2 8.238578827328501 5.76787649983487 0.0 0.0 0.0 0.0
60 1 9.25888265024166 5.204704340439309 0.0 0.0 0.0 0.0
61 2 0.28654323670898824 6.5804609431596175 0.0 0.0 0.0 0.0
62 2 1.922986380607109 6.611443577666339 0.0 0.0 0.0 0.0
63 1 2.9882797619941965 6.3695868723783144 0.0 0.0 0.0 0.0
64 1 3.3805876046647754 5.813859218187779 0.0 0.0 0.0 0.0
65 1 5.101209712291379 6.665269253663002 0.0 0.0 0.0 0.0
66 1 5.753483607708532 6.482853021202468 0.0 0.0 0.0 0.0
67 2 6.71295503464208 5.956008737414146 0.0 0.0 0.0 0.0
68 1 7.576129018746069 6.60054132893907 0.0 0.0 0.0 0.0
69 1 8.27394889974725 6.884333798341793 0.0 0.0 0.0 0.0
70 1 9.308100276708737 5.906429877546968 0.0 0.0 0.0 0.0
71 1 0.5360608090088576 7.6142218168946645 0.0 0.0 0.0 0.0
72 1 1.1308800028379726 7.331457851734107 0.0 0.0 0.0 0.0
73 1 2.953519170480419 7.037905687201135 0.0 0.0 0.0 0.0
74 2 4.022094239756231 6.6871427346615775 0.0 0.0 0.0 0.0
75 1 4.9111522622847 7.300743350276152 0.0 0.0 0.0 0.0
76 1 5.553819206559592 7.133035880807255 0.0 0.0 0.0 0.0
77 2 6.621252871862589 7.190967471040343 0.0 0.0 0.0 0.0
78 1 7.6887624323343955 7.2332832063737404 0.0 0.0 0.0 0.0
79 1 8.232826963250877 7.572001775876616 0.0 0.0 0.0 0.0
80 2 9.300634066217361 7.458399889172189 0.0 0.0 0.0 0.0
81 2 0.18865059732661682 8.609181018707423 0.0 0.0 0.0 0.0
82 1 1.0936188234363076 8.006104274115676 0.0 0.0 0.0 0.0
83 2 2.1611810992804648 7.807552425608152 0.0 0.0 0.0 0.0
84 2 3.584170309177844 7.935324175059319 0.0 0.0 0.0 0.0
85 2 4.777890516632623 8.34921684920603 0.0 0.0 0.0 0.0
86 1 5.698014951235236 7.773499992760621 0.0 0.0 0.0 0.0
87 2 6.008582487784919 8.80541579092929 0.0 0.0 0.0 0.0
88 2 7.2903186491105805 8.237519842258353 0.0 0.0 0.0 0.0
89 1 8.398313062885032 8.199602157365701 0.0 0.0 0.0 0.0
90 1 8.973520201795198 8.504580150077633 0.0 0.0 0.0 0.0
91 1 0.49166903031484116 9.6515712483775 0.0 0.0 0.0 0.0
92 2 1.4294539862946434 9.07252066213669 0.0 0.0 0.0 0.0
93 2 2.699615642407284 8.89131134212052 0.0 0.0 0.0 0.0
94 2 3.939456910233717 9.255178305959227 0.0 0.0 0.0 0.0
95 1 5.073034304759836 9.374442237080892 0.0 0.0 0.0 0.0
96 1 5.58049130287404 9.817599294127104 0.0 0.0 0.0 0.0
97 1 6.22691719086306 0.06647137317148598 0.0 0.0 0.0 0.0
98 1 6.970060806847504 9.26948030592638 0.0 0.0 0.0 0.0
99 2 8.076605940654998 9.235489112509152 0.0 0.0 0.0 0.0
100 2 9.289301160764282 9.522230442481781 0.0 0.0 0.0 0.0
ITEM: TIMESTEP
3
ITEM: NUMBER OF ATOMS
100
ITEM: BOX BOUNDS xy xz yz pp pp pp
0.0 9.88045 0.03
0.0 9.88045 0.0
0.0 10.0 1.5e-323
ITEM: ATOMS id type x y z vx vy vz
1 1 0.9344617847236655 0.23839069212272856 0.0 0.0 0.0 0.0
2 1 1.038426949276034 0.9090762884706879 0.0 0.0 0.0 0.0
3 2 2.01054503802266 0.38657741445144445 0.0 0.0 0.0 0.0
4 1 3.031655364783149 0.00926226570783594 0.0 0.0 0.0 0.0
5 2 4.576138285308731 0.4493169515235127 0.0 0.0 0.0 0.0
6 1 5.655870833951298 0.6084252613472606 0.0 0.0 0.0 0.0
7 1 6.299961052808719 0.757940557239496 0.0 0.0 0.0 0.0
8 2 7.311446602637907 0.3861001121651351 0.0 0.0 0.0 0.0
9 2 8.507268981671237 0.5635141701364397 0.0 0.0 0.0 0.0
10 2 9.804853608817355 0.7288350346367393 0.0 0.0 0.0 0.0
11 1 0.6878296582742113 1.485303069140126 0.0 0.0 0.0 0.0
12 1 1.3372475459215079 1.5223881232788852 0.0 0.0 0.0 0.0
13 2 2.3945215904311485 1.5882503993384693 0.0 0.0 0.0 0.0
14 2 3.4747213414667093 0.969644601490567 0.0 0.0 0.0 0.0
15 2 4.587342997738744 1.6659854788393753 0.0 0.0 0.0 0.0
16 2 5.761835382004793 1.716469204031659 0.0 0.0 0.0 0.0
17 1 6.724947893858194 1.2861218774717345 0.0 0.0 0.0 0.0
18 2 7.750204467369414 1.5782170970882168 0.0 0.0 0.0 0.0
19 2 8.938631644448362 1.6904794941370607 0.0 0.0 0.0 0.0
20 1 0.11347830589803318 1.7994454923409569 0.0 0.0 0.0 0.0
21 2 0.8572105899812593 2.5693940304193945 0.0 0.0 0.0 0.0
22 1 1.9254038003799996 2.6736939447849832 0.0 0.0 0.0 0.0
23 1 2.5778511073923127 2.645273236225893 0.0 0.0 0.0 0.0
24 2 3.5137115994311965 2.174849692043417 0.0 0.0 0.0 0.0
25 1 4.43672230640984 2.748651431322751 0.0 0.0 0.0 0.0
26 1 5.1210000588937765 2.697134862791614 0.0 0.0 0.0 0.0
27 1 5.806216147573534 2.776933735205136 0.0 0.0 0.0 0.0
28 2 6.846378067492019 2.400564776034372 0.0 0.0 0.0 0.0
29 2 8.179577760532052 2.8108310009166853 0.0 0.0 0.0 0.0
30 2 9.476265707395259 2.757787224337049 0.0 0.0 0.0 0.0
31 1 0.3005706133781989 3.552737514155938 0.0 0.0 0.0 0.0
32 2 1.373705094995188 3.6821598742073265 0.0 0.0 0.0 0.0
33 1 2.3256070348223368 3.2352193358661525 0.0 0.0 0.0 0.0
34 2 3.4004435238740465 3.377033357712693 0.0 0.0 0.0 0.0
35 2 4.493475010656255 3.81940639423569 0.0 0.0 0.0 0.0
36 1 5.448618045714295 3.322836132571346 0.0 0.0 0.0 0.0
37 2 6.538092332405553 3.5833326051983327 0.0 0.0 0.0 0.0
38 1 7.604071321402477 3.7527262360503624 0.0 0.0 0.0 0.0
39 1 8.913725021646606 3.6714663836443955 0.0 0.0 0.0 0.0
40 1 9.569585011554489 3.8670383528592316 0.0 0.0 0.0 0.0
41 2 0.5387998134574855 4.604610634205195 0.0 0.0 0.0 0.0
42 1 1.6044649455935456 4.730984939226111 0.0 0.0 0.0 0.0
43 2 2.5872550570041075 4.285718641165864 0.0 0.0 0.0 0.0
44 1 3.6469187908263234 4.486206865577013 0.0 0.0 0.0 0.0
45 1 4.185136985080194 4.898653990934059 0.0 0.0 0.0 0.0
46 1 5.23250999322899 4.570367926321635 0.0 0.0 0.0 0.0
47 1 5.554173131252345 3.9917997567535846 0.0 0.0 0.0 0.0
48 1 7.271075861812821 4.381110608632675 0.0 0.0 0.0 0.0
49 2 8.325226261233375 4.56578679001321 0.0 0.0 0.0 0.0
50 1 9.371645345991825 4.51609261315386 0.0 0.0 0.0 0.0
51 1 9.86553336093488 5.5293811317417845 0.0 0.0 0.0 0.0
52 2 1.106142186864693 5.69118294369351 0.0 0.0 0.0 0.0
53 2 2.371566864072821 5.476053711235489 0.0 0.0 0.0 0.0
54 1 3.4415619378974527 5.1224759315772515 0.0 0.0 0.0 0.0
55 1 3.9881510502224766 5.543394422433363 0.0 0.0 0.0 0.0
56 2 5.07485116947536 5.613609688026523 0.0 0.0 0.0 0.0
57 2 6.271794096821265 4.8253529586923625 0.0 0.0 0.0 0.0
58 1 7.354941510821798 5.065698317009545 0.0 0.0 0.0 0.0
59 2 8.244687097527807 5.768249446815438 0.0 0.0 0.0 0.0
60 1 9.264112948015047 5.20416881249365 0.0 0.0 0.0 0.0
61 2 0.29328954750498815 6.579526220406967 0.0 0.0 0.0 0.0
62 2 1.9290537245198334 6.609882867124672 0.0 0.0 0.0 0.0
63 1 2.9935868913511894 6.366095818460145 0.0 0.0 0.0 0.0
64 1 3.383508145987838 5.80804489360696 0.0 0.0 0.0 0.0
65 1 5.107921326709611 6.671017628984722 0.0 0.0 0.0 0.0
66 1 5.757827115162336 6.490523358389643 0.0 0.0 0.0 0.0
67 2 6.714463206237189 5.9572736379468925 0.0 0.0 0.0 0.0
68 1 7.58011233332335 6.598961487452013 0.0 0.0 0.0 0.0
69 1 8.281882312672138 6.884022254304216 0.0 0.0 0.0 0.0
70 1 9.314116608058821 5.906345193387188 0.0 0.0 0.0 0.0
71 1 0.5435111201657581 7.6131150688432685 0.0 0.0 0.0 0.0
72 1 1.1379954889677109 7.33037180585855 0.0 0.0 0.0 0.0
73 1 2.962010325598141 7.035032368540224 0.0 0.0 0.0 0.0
74 2 4.029256480753373 6.676121072731771 0.0 0.0 0.0 0.0
75 1 4.90825629082316 7.302543387134227 0.0 0.0 0.0 0.0
76 1 5.555878561638725 7.143875373566052 0.0 0.0 0.0 0.0
77 2 6.627786539273219 7.190794200422527 0.0 0.0 0.0 0.0
78 1 7.6959767250971725 7.231285793562225 0.0 0.0 0.0 0.0
79 1 8.239539974551178 7.571416827872768 0.0 0.0 0.0 0.0
80 2 9.307747848918922 7.457537403515013 0.0 0.0 0.0 0.0
81 2 0.19801175898428897 8.608391224971129 0.0 0.0 0.0 0.0
82 1 1.101980730285753 8.004960892763071 0.0 0.0 0.0 0.0
83 2 2.169076871224385 7.804628440215605 0.0 0.0 0.0 0.0
84 2 3.6048150980817764 7.925308123829607 0.0 0.0 0.0 0.0
85 2 4.793690210019044 8.352847362371296 0.0 0.0 0.0 0.0
86 1 5.714543974080879 7.7812611707697545 0.0 0.0 0.0 0.0
87 2 6.020523846760116 8.813297585626524 0.0 0.0 0.0 0.0
88 2 7.299279306807716 8.236537963896756 0.0 0.0 0.0 0.0
89 1 8.407643290472775 8.198542024655854 0.0 0.0 0.0 0.0
90 1 8.982725947122475 8.504310936811574 0.0 0.0 0.0 0.0
91 1 0.5030485291640263 9.64958481481789 0.0 0.0 0.0 0.0
92 2 1.4428065478529428 9.07093675480231 0.0 0.0 0.0 0.0
93 2 2.716483194055509 8.882950228889756 0.0 0.0 0.0 0.0
94 2 3.9512059838775486 9.254074477944716 0.0 0.0 0.0 0.0
95 1 5.084283622167939 9.378772676919384 0.0 0.0 0.0 0.0
96 1 5.589761858330708 9.824165199082445 0.0 0.0 0.0 0.0
97 1 6.226275626505239 0.07104242697552042 0.0 0.0 0.0 0.0
98 1 6.984343754967951 9.269868512614977 0.0 0.0 0.0 0.0
99 2 8.088128017243875 9.235260439945387 0.0 0.0 0.0 0.0
100 2 9.299983371203211 9.52180824474284 0.0 0.0 0.0 0.0
ITEM: TIMESTEP
4
ITEM: NUMBER OF ATOMS
100
ITEM: BOX BOUNDS xy xz yz pp pp pp
0.0 9.88045 0.04
0.0 9.88045 0.0
0.0 10.0 1.5e-323
ITEM: ATOMS id type x y z vx vy vz
1 1 0.9520703190807204 0.23583980644750022 0.0 0.0 0.0 0.0
2 1 1.0473752444929365 0.9076775323832991 0.0 0.0 0.0 0.0
3 2 2.029452635480302 0.38973057780155496 0.0 0.0 0.0 0.0
4 1 3.077110487557892 9.84304245143333 0.0 0.0 0.0 0.0
5 2 4.53133772042586 0.4459770455224989 0.0 0.0 0.0 0.0
6 1 5.612260603854855 0.6644173699504479 0.0 0.0 0.0 0.0
7 1 6.2723173513488995 0.7894460450832445 0.0 0.0 0.0 0.0
8 2 7.289285033173478 0.39700238315121156 0.0 0.0 0.0 0.0
9 2 8.49683701284598 0.5512204754852593 0.0 0.0 0.0 0.0
10 2 9.812055412802987 0.7203467270859983 0.0 0.0 0.0 0.0
11 1 0.6824524442883235 1.4800656718192728 0.0 0.0 0.0 0.0
12 1 1.328194511279746 1.5265301221311123 0.0 0.0 0.0 0.0
13 2 2.3792530981211373 1.5982314092885992 0.0 0.0 0.0 0.0
14 2 3.427000852586976 0.9499833897779767 0.0 0.0 0.0 0.0
15 2 4.587505341426219 1.6511655606315867 0.0 0.0 0.0 0.0
16 2 5.758750682277083 1.7559648711751559 0.0 0.0 0.0 0.0
17 1 6.713610051876296 1.306261826508758 0.0 0.0 0.0 0.0
18 2 7.744229781756234 1.5805369328406 0.0 0.0 0.0 0.0
19 2 8.93472091460896 1.6770375212528774 0.0 0.0 0.0 0.0
20 1 0.1080215515454501 1.794590098464042 0.0 0.0 0.0 0.0
21 2 0.8531173022869456 2.5626871862817815 0.0 0.0 0.0 0.0
22 1 1.9251376855509357 2.6732560047770053 0.0 0.0 0.0 0.0
23 1 2.5798754989720747 2.647362541777911 0.0 0.0 0.0 0.0
24 2 3.5092497595918677 2.1578470780855525 0.0 0.0 0.0 0.0
25 1 4.435064598083765 2.727773133171993 0.0 0.0 0.0 0.0
26 1 5.122879714560888 2.727849943976243 0.0 0.0 0.0 0.0
27 1 5.814234182829999 2.805960727452813 0.0 0.0 0.0 0.0
28 2 6.854028384173874 2.424432048389471 0.0 0.0 0.0 0.0
29 2 8.172706835580989 2.8136278773662933 0.0 0.0 0.0 0.0
30 2 9.4647379778028 2.7511971575656813 0.0 0.0 0.0 0.0
31 1 0.29421020609118564 3.5423668207371533 0.0 0.0 0.0 0.0
32 2 1.367891078262634 3.669044299574506 0.0 0.0 0.0 0.0
33 1 2.3262314403015028 3.235918976229132 0.0 0.0 0.0 0.0
34 2 3.404992387840166 3.3666899991292563 0.0 0.0 0.0 0.0
35 2 4.5013964608141155 3.7946708898488875 0.0 0.0 0.0 0.0
36 1 5.466990947002624 3.3521129627208768 0.0 0.0 0.0 0.0
37 2 6.537082424048797 3.6111813163927584 0.0 0.0 0.0 0.0
38 1 7.602679433335644 3.7609732407309826 0.0 0.0 0.0 0.0
39 1 8.907844829569108 3.672564636177548 0.0 0.0 0.0 0.0
40 1 9.565462264984316 3.859198153039461 0.0 0.0 0.0 0.0
41 2 0.5351002997439639 4.5938945704966 0.0 0.0 0.0 0.0
42 1 1.6026778660195184 4.711460179983847 0.0 0.0 0.0 0.0
43 2 2.59886572314426 4.280986363170657 0.0 0.0 0.0 0.0
44 1 3.6719437796172025 4.480115021860146 0.0 0.0 0.0 0.0
45 1 4.2463217861013005 4.863598610385997 0.0 0.0 0.0 0.0
46 1 5.198147639473018 4.601046446679 0.0 0.0 0.0 0.0
47 1 5.544844202710296 4.02483487598287 0.0 0.0 0.0 0.0
48 1 7.26543099631076 4.406486222135921 0.0 0.0 0.0 0.0
49 2 8.321365040458085 4.571785634398572 0.0 0.0 0.0 0.0
50 1 9.367220575976786 4.507958824928693 0.0 0.0 0.0 0.0
51 1 9.871768586394925 5.524563313451672 0.0 0.0 0.0 0.0
52 2 1.1074425673670472 5.676949889040254 0.0 0.0 0.0 0.0
53 2 2.354137634330778 5.464580210008244 0.0 0.0 0.0 0.0
54 1 3.404654314233221 5.088495441058732 0.0 0.0 0.0 0.0
55 1 3.9706692966484343 5.473429139624029 0.0 0.0 0.0 0.0
56 2 5.05707488178459 5.6595838866790205 0.0 0.0 0.0 0.0
57 2 6.256061942125885 4.839290325825359 0.0 0.0 0.0 0.0
58 1 7.349603483103991 5.088178833302668 0.0 0.0 0.0 0.0
59 2 8.257191526408029 5.771611964433818 0.0 0.0 0.0 0.0
60 1 9.27039531913288 5.199321169210321 0.0 0.0 0.0 0.0
61 2 0.30664577541497506 6.574762111475066 0.0 0.0 0.0 0.0
62 2 1.9364583664495791 6.596766711263316 0.0 0.0 0.0 0.0
63 1 2.9983754103357882 6.340684815766565 0.0 0.0 0.0 0.0
64 1 3.3715976673161485 5.764250009025593 0.0 0.0 0.0 0.0
65 1 5.115831238541933 6.7255245921518565 0.0 0.0 0.0 0.0
66 1 5.749829835865454 6.545048866443307 0.0 0.0 0.0 0.0
67 2 6.682586293442128 5.963453134594366 0.0 0.0 0.0 0.0
68 1 7.567240976448627 6.579396254398182 0.0 0.0 0.0 0.0
69 1 8.311903337139235 6.88126790642948 0.0 0.0 0.0 0.0
70 1 9.325095013641253 5.905208144407462 0.0 0.0 0.0 0.0
71 1 0.5585820805151885 7.608954513060884 0.0 0.0 0.0 0.0
72 1 1.1507526055667519 7.323510935448952 0.0 0.0 0.0 0.0
73 1 2.989795372603948 7.014025262428496 0.0 0.0 0.0 0.0
74 2 4.0489169885393945 6.5894911055644565 0.0 0.0 0.0 0.0
75 1 4.832712863284562 7.320070955823288 0.0 0.0 0.0 0.0
76 1 5.521803796133355 7.241981075504994 0.0 0.0 0.0 0.0
77 2 6.638172720850009 7.184525581092558 0.0 0.0 0.0 0.0
78 1 7.713894671348885 7.207081880927044 0.0 0.0 0.0 0.0
79 1 8.250382570490936 7.563687925850834 0.0 0.0 0.0 0.0
80 2 9.32288990050667 7.452787797573115 0.0 0.0 0.0 0.0
81 2 0.22212420629601864 8.606933708009615 0.0 0.0 0.0 0.0
82 1 1.121399176091307 7.999655416392377 0.0 0.0 0.0 0.0
83 2 2.1838107635244137 7.77866502519696 0.0 0.0 0.0 0.0
84 2 3.7256442247979016 7.84252306638822 0.0 0.0 0.0 0.0
85 2 4.870979475150445 8.371362568580661 0.0 0.0 0.0 0.0
86 1 5.80343388389986 7.841060719759919 0.0 0.0 0.0 0.0
87 2 6.0484170836635185 8.882779934154776 0.0 0.0 0.0 0.0
88 2 7.322597589410885 8.219687298290907 0.0 0.0 0.0 0.0
89 1 8.433230852778241 8.188144956940492 0.0 0.0 0.0 0.0
90 1 9.006402326544094 8.500972677845041 0.0 0.0 0.0 0.0
91 1 0.5334146859235174 9.644385957366952 0.0 0.0 0.0 0.0
92 2 1.4836644342463543 9.065976843849521 0.0 0.0 0.0 0.0
93 2 2.784602981705726 8.8171555340044 0.0 0.0 0.0 0.0
94 2 3.9816789175169274 9.221445941367707 0.0 0.0 0.0 0.0
95 1 5.098884622045996 9.409057869055834 0.0 0.0 0.0 0.0
96 1 5.579397584012547 9.87799751825705 0.0 0.0 0.0 0.0
97 1 6.2039740377598225 0.11466520706295265 0.0 0.0 0.0 0.0
98 1 7.038362803737411 9.259755913908092 0.0 0.0 0.0 0.0
99 2 8.121954078458968 9.227976622359707 0.0 0.0 0.0 0.0
100 2 9.324486864401644 9.519863907662428 0.0 0.0 0.0 0.0
ITEM: TIMESTEP
5
ITEM: NUMBER OF ATOMS
100
ITEM: BOX BOUNDS xy xz yz pp pp pp
0.0 9.88045 0.05
0.0 9.88045 0.0
0.0 10.0 1.5e-323
ITEM: ATOMS id type x y z vx vy vz
1 1 0.9513847491106822 0.23244505607921978 0.0 0.0 0.0 0.0
2 1 1.04408852130799 0.9038081929321342 0.0 0.0 0.0 0.0
3 2 2.0279253190855426 0.3930329236513459 0.0 0.0 0.0 0.0
4 1 3.083099078246282 9.841469333084609 0.0 0.0 0.0 0.0
5 2 4.531143336906229 0.4468655745359321 0.0 0.0 0.0 0.0
6 1 5.612098660504174 0.6663370205753884 0.0 0.0 0.0 0.0
7 1 6.272745780309428 0.7902371376444229 0.0 0.0 0.0 0.0
8 2 7.289732755130723 0.39733088562626456 0.0 0.0 0.0 0.0
9 2 8.49712642257671 0.5519143354397795 0.0 0.0 0.0 0.0
10 2 9.811447569656927 0.7196096691413393 0.0 0.0 0.0 0.0
11 1 0.6837695570438995 1.4782726055356372 0.0 0.0 0.0 0.0
12 1 1.33010786415232 1.519285236075692 0.0 0.0 0.0 0.0
13 2 2.380525597379115 1.6006183668854435 0.0 0.0 0.0 0.0
14 2 3.4254756028987488 0.9478781974086289 0.0 0.0 0.0 0.0
15 2 4.590703178151929 1.650966952351066 0.0 0.0 0.0 0.0
16 2 5.761349633877129 1.7578075407333982 0.0 0.0 0.0 0.0
17 1 6.715212381501143 1.306760458419311 0.0 0.0 0.0 0.0
18 2 7.746021311648642 1.5807024576024353 0.0 0.0 0.0 0.0
19 2 8.936542009239869 1.6775324099008055 0.0 0.0 0.0 0.0
20 1 0.11014181234768843 1.7937926802419422 0.0 0.0 0.0 0.0
21 2 0.8580448003313154 2.559922235066928 0.0 0.0 0.0 0.0
22 1 1.9298198429013722 2.674649636694333 0.0 0.0 0.0 0.0
23 1 2.584555951296606 2.6486164604464295 0.0 0.0 0.0 0.0
24 2 3.512276535898574 2.156155272683101 0.0 0.0 0.0 0.0
25 1 4.4379670791602095 2.7273042333709805 0.0 0.0 0.0 0.0
26 1 5.126343849480954 2.7302664065635507 0.0 0.0 0.0 0.0
27 1 5.818417651542676 2.8074348729823977 0.0 0.0 0.0 0.0
28 2 6.857280726860402 2.425192824413652 0.0 0.0 0.0 0.0
29 2 8.176462121882281 2.813847841413887 0.0 0.0 0.0 0.0
30 2 9.46866197569506 2.7508025260862783 0.0 0.0 0.0 0.0
31 1 0.29882346770709484 3.5411275641846967 0.0 0.0 0.0 0.0
32 2 1.3720152905927654 3.667839928198414 0.0 0.0 0.0 0.0
33 1 2.331362246328534 3.2371408947843885 0.0 0.0 0.0 0.0
34 2 3.4106462421297805 3.3659086432353535 0.0 0.0 0.0 0.0
35 2 4.506762541369802 3.794144286678362 0.0 0.0 0.0 0.0
36 1 5.472607333101678 3.3540147427161027 0.0 0.0 0.0 0.0
37 2 6.542023887858441 3.6124281050214435 0.0 0.0 0.0 0.0
38 1 7.60757526539338 3.7618621033528004 0.0 0.0 0.0 0.0
39 1 8.912368345003996 3.67252431593429 0.0 0.0 0.0 0.0
40 1 9.570294271930697 3.8586860992985845 0.0 0.0 0.0 0.0
41 2 0.5404889715628268 4.592903065432259 0.0 0.0 0.0 0.0
42 1 1.6085203687190015 4.710151937968006 0.0 0.0 0.0 0.0
43 2 2.605464298610964 4.281146271293914 0.0 0.0 0.0 0.0
44 1 3.678607900226745 4.480529451882454 0.0 0.0 0.0 0.0
45 1 4.254182691232236 4.863324664119344 0.0 0.0 0.0 0.0
46 1 5.202044809169438 4.602293413382691 0.0 0.0 0.0 0.0
47 1 5.549684452160914 4.0265737899361 0.0 0.0 0.0 0.0
48 1 7.270332095727504 4.407716060805042 0.0 0.0 0.0 0.0
49 2 8.326538037788525 4.5722358750917484 0.0 0.0 0.0 0.0
50 1 9.372448312488684 4.507585193349708 0.0 0.0 0.0 0.0
51 1 9.877662496365852 5.52386194692192 0.0 0.0 0.0 0.0
52 2 1.1134885103939312 5.67588052333798 0.0 0.0 0.0 0.0
53 2 2.359784243723221 5.464100646773219 0.0 0.0 0.0 0.0
54 1 3.410141880154745 5.088229861822934 0.0 0.0 0.0 0.0
55 1 3.9765825390389336 5.472282722891766 0.0 0.0 0.0 0.0
56 2 5.0629659111008465 5.66125947640749 0.0 0.0 0.0 0.0
57 2 6.260682764428246 4.840627663810209 0.0 0.0 0.0 0.0
58 1 7.35484348954835 5.089181233909735 0.0 0.0 0.0 0.0
59 2 8.263128642500128 5.772002296138299 0.0 0.0 0.0 0.0
60 1 9.276051019272368 5.199000172785248 0.0 0.0 0.0 0.0
61 2 0.31296761300344594 6.5739079499888575 0.0 0.0 0.0 0.0
62 2 1.942888799402308 6.596170150029815 0.0 0.0 0.0 0.0
63 1 3.0046717333246264 6.340192715756515 0.0 0.0 0.0 0.0
64 1 3.3774640923653907 5.763619113897679 0.0 0.0 0.0 0.0
65 1 5.121891947058602 6.727448845699096 0.0 0.0 0.0 0.0
66 1 5.755728132769329 6.54683072231529 0.0 0.0 0.0 0.0
67 2 6.6879417009755855 5.964406313918488 0.0 0.0 0.0 0.0
68 1 7.573091440921426 6.579693373760382 0.0 0.0 0.0 0.0
69 1 8.318488542408014 6.8814953544717 0.0 0.0 0.0 0.0
70 1 9.33113964809873 5.904756473153878 0.0 0.0 0.0 0.0
71 1 0.565258664358736 7.60790435482255 0.0 0.0 0.0 0.0
72 1 1.157336367677868 7.322670077077828 0.0 0.0 0.0 0.0
73 1 2.9967156786480955 7.013697824479799 0.0 0.0 0.0 0.0
74 2 4.055567350847716 6.588052340966628 0.0 0.0 0.0 0.0
75 1 4.837173590395157 7.3212965818420415 0.0 0.0 0.0 0.0
76 1 5.527104783755002 7.244488228472227 0.0 0.0 0.0 0.0
77 2 6.644607618168596 7.18533908754445 0.0 0.0 0.0 0.0
78 1 7.720440254115633 7.207269035946599 0.0 0.0 0.0 0.0
79 1 8.257018369215933 7.563824454081474 0.0 0.0 0.0 0.0
80 2 9.32953618786836 7.452361366182597 0.0 0.0 0.0 0.0
81 2 0.2292752591529359 8.60582280341535 0.0 0.0 0.0 0.0
82 1 1.1281941277178171 7.998751750392109 0.0 0.0 0.0 0.0
83 2 2.19038856132263 7.778079090306941 0.0 0.0 0.0 0.0
84 2 3.734761810065616 7.8408013675463035 0.0 0.0 0.0 0.0
85 2 4.878802576593163 8.37269134257885 0.0 0.0 0.0 0.0
86 1 5.810885149328096 7.842461084811964 0.0 0.0 0.0 0.0
87 2 6.057296321759028 8.883572800299032 0.0 0.0 0.0 0.0
88 2 7.329782519617951 8.220253638794235 0.0 0.0 0.0 0.0
89 1 8.4403737178297 8.188148333373055 0.0 0.0 0.0 0.0
90 1 9.013665028354495 8.500771419997966 0.0 0.0 0.0 0.0
91 1 0.541722886141952 9.642493649881855 0.0 0.0 0.0 0.0
92 2 1.4931962975927748 9.064628276039887 0.0 0.0 0.0 0.0
93 2 2.7957333133608597 8.813937166278842 0.0 0.0 0.0 0.0
94 2 3.9905318027294503 9.223682798997837 0.0 0.0 0.0 0.0
95 1 5.108523760854743 9.410165737522886 0.0 0.0 0.0 0.0
96 1 5.589302342134873 9.87951006732901 0.0 0.0 0.0 0.0
97 1 6.204181274799464 0.1153351208017002 0.0 0.0 0.0 0.0
98 1 7.046967518366511 9.260732139693303 0.0 0.0 0.0 0.0
99 2 8.130400223126044 9.228395567263792 0.0 0.0 0.0 0.0
100 2 9.332888992019038 9.519419185215863 0.0 0.0 0.0 0.0
ITEM: TIMESTEP
6
ITEM: NUMBER OF ATOMS
100
ITEM: BOX BOUNDS xy xz yz pp pp pp
0.0 9.88045 0.060000000000000005
0.0 9.88045 0.0
0.0 10.0 1.5e-323
ITEM: ATOMS id type x y z vx vy vz
1 1 0.9506005755417896 0.22859954498780158 0.0 0.0 0.0 0.0
2 1 1.040487256881473 0.899469833938938 0.0 0.0 0.0 0.0
3 2 2.0261613421941145 0.3965546474899628 0.0 0.0 0.0 0.0
4 1 3.088585588185366 9.839880365672176 0.0 0.0 0.0 0.0
5 2 4.5314152596856765 0.448217197061257 0.0 0.0 0.0 0.0