# input file

2232 atoms
1 atom types

0.0 82.68810555352132 xlo xhi
0.0 83.16 ylo yhi
-10.0 10.0 zlo zhi
0.0 0.0 0.0 xy xz yz

Masses

1 12.0100 #C

Atoms

1 1 1.5954400000000002 0.11240081311475411 9.576492497987954e-05
2 1 4.179953836065574 0.6933281967213116 2.3952535525115593e-05
3 1 6.688447213114755 1.2755390819672132 5.580440439453353e-05
4 1 9.243736393442624 1.3962245901639345 4.436864504114102e-06
5 1 11.91157180327869 1.7098897704918035 6.306770516909004e-05
6 1 14.777436065573772 1.7163880655737707 2.0517982633136525e-05
7 1 17.505710163934427 1.226531737704918 1.0974945595401132e-06
8 1 21.232560655737707 0.963121049180328 7.2712500124036075e-06
9 1 23.845158032786888 0.2095945049180328 2.3818329977435605e-05
10 1 25.407677377049183 0.36964039344262295 5.370763771162279e-05
11 1 28.33463672131148 0.714368131147541 4.9199134835549174e-05
12 1 30.694926557377052 1.2672634754098362 8.756383915716448e-05
13 1 33.376293770491806 1.396749704918033 7.333086659949375e-05
14 1 35.985356721311476 0.8980977049180329 2.4073708700283247e-05
15 1 39.636620983606555 0.528528 2.642405337829478e-05
16 1 41.1727331147541 0.635828131147541 4.0559667972166324e-05
17 1 43.79224786885246 0.5519107540983607 3.251137423399077e-05
18 1 46.677046557377054 0.8486460327868853 5.685058567737095e-05
19 1 49.2470793442623 0.8819756721311476 3.8539389080168256e-05
20 1 51.898 1.9445504262295084 9.452843952648285e-05
21 1 54.91084590163935 1.5017120655737706 3.576295184351918e-05
22 1 57.414229508196726 1.4114377704918035 5.93549397860371e-05
23 1 60.03121967213115 0.8257177049180329 6.682181433101132e-05
24 1 62.67900983606558 0.08809153442622952 4.5049274979505415e-05
25 1 66.48710163934427 82.54299016393443 1.1326571138326303e-05
26 1 67.94782950819673 83.1145573770492 6.666011249476812e-06
27 1 70.50069508196721 0.660240918032787 8.453600579979865e-05
28 1 73.2388655737705 0.4786713836065574 5.272540749149362e-05
29 1 76.00783606557377 0.23555840000000003 1.3967512121353088e-05
30 1 78.85708852459017 0.012160395409836065 1.1545484216896497e-06
31 1 81.6048524590164 83.11152786885248 1.5561690723923193e-05
32 1 0.04013452065573771 2.3220725901639345 2.1678914386719707e-05
33 1 2.6959593442622953 2.7094558032786886 9.634663413822155e-05
34 1 5.2008072131147545 3.3368518032786887 4.172627064296011e-05
35 1 7.785684590163935 3.7048158688524593 7.497282053039593e-05
36 1 10.454731803278689 3.7943125901639347 9.960137585989015e-05
37 1 12.61724524590164 3.0835091803278694 6.82648071366409e-05
38 1 16.32748393442623 3.6044533114754103 6.364191933942e-05
39 1 18.507265573770496 4.9591685901639355 1.798014007386698e-05
40 1 20.882349508196725 3.3745136393442627 2.710201018246733e-05
41 1 23.605826885245904 2.5961976393442625 3.91220014703243e-05
42 1 26.501481311475413 2.6881886557377053 2.031594142823912e-06
43 1 29.068888524590168 3.4730685901639347 3.183895409025256e-05
44 1 31.85421836065574 3.563423672131148 7.248275773876582e-05
45 1 34.66014885245902 3.453578754098361 6.219546948684119e-06
46 1 37.11460590163935 3.3049965245901642 2.36023278445446e-05
47 1 39.563559344262295 4.374362426229509 6.851017163254655e-05
48 1 42.22518426229508 3.008028983606558 6.211982353615531e-07
49 1 45.01541180327869 2.813246754098361 8.907131434160806e-05
50 1 48.2474931147541 3.249253573770492 4.0414940478484264e-05
51 1 51.09619016393443 3.256090163934427 2.4766218764141215e-05
52 1 53.50010491803279 3.5686293770491804 3.552934142261124e-05
53 1 56.0716524590164 3.893948065573771 3.1265452305811694e-05
54 1 58.97139672131148 3.4204359344262296 6.408546610705316e-05
55 1 61.57626885245902 2.70002393442623 6.514184260400101e-05
56 1 64.13418360655739 2.2516264262295085 4.65037725864899e-05
57 1 66.46185573770492 1.9138312131147541 1.0559425343700746e-05
58 1 69.08894426229509 2.632753704918033 5.101043214327019e-05
59 1 72.13864918032789 2.7751910819672134 6.174387772845744e-05
60 1 74.9404393442623 2.5179 2.7966875058676388e-05
61 1 77.61600000000001 2.1938335081967213 4.7187311887460615e-05
62 1 80.20320000000001 2.193772918032787 4.57217632393078e-05
63 1 1.1221803278688527 4.762311147540984 4.561865999062804e-05
64 1 3.5664430819672135 5.363340327868853 8.877921117876074e-05
65 1 6.276030163934427 5.873004590163935 4.388003547758745e-05
66 1 9.239495081967213 6.022914754098361 7.525230370227549e-05
67 1 12.00392131147541 5.960456393442624 7.462436869794451e-05
68 1 14.823989508196723 5.933089836065575 2.218919157485988e-05
69 1 17.785535737704922 6.312232786885247 2.9203677644221994e-05
70 1 21.175353442622953 5.568387540983607 1.400970130166569e-05
71 1 22.603463606557376 5.0417378360655745 7.808586760445265e-05
72 1 25.19278426229508 4.754222360655738 7.02872707970757e-05
73 1 26.65108852459017 6.776302950819673 5.1140668865476347e-05
74 1 31.31486491803279 5.5390518032786895 8.065514922321663e-05
75 1 32.88420065573771 5.617364590163935 4.348963114852787e-05
76 1 36.85124065573771 5.528398032786885 6.144891954402599e-06
77 1 38.41901114754099 5.41736655737705 5.349968071480149e-05
78 1 40.95369967213115 5.646801311475411 5.209663805160564e-05
79 1 44.44879278688525 4.860800459016394 5.272360544555728e-05
80 1 45.8043462295082 4.134289049180329 1.0484604735879455e-05
81 1 49.66631278688525 5.3645521311475415 9.092676259375207e-05
82 1 52.206 5.848415081967214 3.081673160485866e-05
83 1 54.706859016393445 6.04836262295082 6.749663823934678e-05
84 1 56.79368524590164 5.252763278688525 9.126169742452451e-05
85 1 60.27055081967214 5.287754098360656 5.642333607358088e-05
86 1 63.93878032786886 4.456154098360656 5.771757198658162e-05
87 1 66.16092459016393 4.372029704918033 9.40949128248241e-05
88 1 67.67214426229509 4.460870032786886 9.47686050283617e-05
89 1 69.65596721311476 4.076273967213115 6.190947912777445e-06
90 1 73.49435409836066 4.758685836065575 2.1656774587207808e-05
91 1 77.18631475409836 4.365152721311476 9.031910911536818e-05
92 1 78.7096524590164 4.516915934426231 1.6467823791776694e-06
93 1 81.04641311475412 4.6145670819672135 2.5354481652096785e-05
94 1 82.52481311475411 6.833611147540984 7.275992399767597e-05
95 1 1.3280253114754101 8.760529836065574 6.529033761759933e-05
96 1 5.240392786885247 8.574820983606559 8.607221309060419e-05
97 1 8.106004590163934 7.925041967213116 4.5772897336915475e-06
98 1 10.726731147540985 8.27479868852459 1.114079811372023e-05
99 1 13.234053114754099 8.179924590163935 6.736182302513754e-05
100 1 16.098251147540985 8.1150931147541 8.350902329472016e-05
101 1 19.05176918032787 8.633038032786885 8.431856661926914e-05
102 1 22.022454426229512 7.661878688524591 8.586642161315921e-05
103 1 23.472074098360658 7.1594852459016405 5.2335675447344804e-05
104 1 25.802472786885247 8.076466885245901 7.226617089992827e-05
105 1 27.702327868852464 7.892626229508198 9.588482380933048e-05
106 1 31.203126557377054 8.215521311475412 2.7955363949939006e-05
107 1 33.8382937704918 8.005475409836066 2.9286632524850233e-05
108 1 36.42226229508197 7.973817049180329 8.528862111576409e-05
109 1 39.13695409836066 7.8738432786885255 5.126227266811902e-05
110 1 41.78302754098361 7.876620327868853 3.610157129746539e-05
111 1 45.648326557377054 8.430515409836067 7.740226003532509e-05
112 1 48.3299462295082 7.310556721311476 3.950622909526008e-05
113 1 50.93512131147541 7.939684590163935 2.702219221245661e-06
114 1 53.38094426229508 8.35063737704918 1.706469377520056e-05
115 1 56.1792 8.215420327868854 3.2055869924416496e-05
116 1 58.6588524590164 7.665716065573771 5.720365590130406e-05
117 1 62.341724590163935 7.315252459016394 3.400160108506951e-05
118 1 63.81305573770492 7.0060406557377055 3.955838454424422e-05
119 1 66.32956721311476 8.129281311475411 9.386012009601713e-05
120 1 69.0000786885246 7.009120655737706 7.86856382068458e-05
121 1 71.60697049180328 6.695112131147542 3.651936841831115e-05
122 1 74.38957377049182 7.030276721311476 2.2396437787781955e-05
123 1 76.94748852459017 6.9810472131147545 9.40399062132567e-05
124 1 79.9719475409836 7.124494426229509 1.7216699620303144e-05
125 1 2.868913967213115 8.75649049180328 6.961030659487725e-05
126 1 4.6997820983606555 9.988591475409835 5.763020074106268e-05
127 1 7.227093770491804 10.056149508196722 6.193646091159091e-05
128 1 8.58168786885246 11.844417704918035 8.91202282302903e-05
129 1 11.995741639344264 10.75697573770492 5.3259318518304024e-05
130 1 14.55037442622951 10.262761967213116 3.112208526343252e-05
131 1 17.341460327868855 10.249735081967215 7.954307634960813e-05
132 1 20.110430819672132 10.888759344262297 7.958472935745991e-05
133 1 24.032482622950823 11.12809049180328 8.610852219048768e-05
134 1 23.414664918032788 9.699828852459017 3.40137451456478e-05
135 1 26.932226885245903 10.756369836065575 4.5065398282196004e-05
136 1 29.65620918032787 10.514716065573772 2.5813683900522024e-05
137 1 32.37928262295082 10.383487868852459 8.57241411096753e-05
138 1 35.0136924590164 10.315222950819674 2.065473927582092e-05
139 1 37.8179062295082 10.207826885245902 7.533486196765426e-05
140 1 40.85685639344263 10.107701639344263 6.190299009087737e-05
141 1 43.09404721311476 8.643590819672132 3.6998996834336986e-05
142 1 47.97064655737705 9.614598688524591 6.360801102449869e-05
143 1 49.46227540983607 9.89912 2.333861828681442e-05
144 1 51.697042622950825 10.578133770491803 7.074553419372723e-05
145 1 54.326655737704925 10.443017704918034 1.0035861343937037e-05
146 1 58.257947540983615 10.26715475409836 5.7012528444149695e-05
147 1 60.44878688524591 10.006263606557377 2.9485505766395415e-06
148 1 63.22785573770493 10.64458098360656 7.716179541798552e-05
149 1 66.03772459016393 9.641409836065574 9.75167226954969e-05
150 1 68.51283278688526 10.865179672131148 1.0125863662416646e-05
151 1 71.27776393442623 8.969060983606559 6.338951625020762e-05
152 1 72.80918032786886 8.950278032786885 8.932279677547785e-05
153 1 76.56122622950821 9.04323344262295 3.1830718757254962e-06
154 1 77.8356393442623 8.217944918032789 9.659991343122474e-05
155 1 81.41449836065574 9.32048393442623 4.577175906114329e-05
156 1 82.64498360655739 11.369390819672132 6.525047589479364e-05
157 1 2.8626327868852464 11.750351475409836 4.9725857755482055e-05
158 1 5.711834754098361 12.338934426229509 7.118042340623704e-05
159 1 7.567509508196722 14.090040655737706 5.9233243282191884e-05
160 1 9.858423606557377 12.699950819672132 9.296589371118884e-05
161 1 13.612994098360657 12.837187540983606 5.247333333504749e-05
162 1 16.16474885245902 12.36428131147541 7.31873766959285e-05
163 1 18.524483278688525 13.597392131147542 7.65979885641126e-06
164 1 20.636 14.43757573770492 8.521591282376692e-05
165 1 23.260866885245907 13.411329836065574 6.007683513970142e-05
166 1 25.912645901639348 13.09343344262295 4.452249454116908e-06
167 1 29.294132459016396 12.653902295081968 3.474278648553022e-05
168 1 30.85857049180328 12.664707540983608 1.8827973789728925e-05
169 1 33.64299147540984 12.651882622950822 2.1153101288173614e-05
170 1 36.4174655737705 12.3808931147541 5.685480296709742e-05
171 1 38.7175186885246 11.462851147540984 6.439995414072984e-05
172 1 42.58488786885246 11.48658229508197 4.649044093410978e-05
173 1 45.077365245901646 11.381054426229511 7.640746584730033e-05
174 1 46.814889180327874 13.565582295081969 3.468971617923803e-05
175 1 49.71180590163935 12.71317967213115 8.151880263813491e-05
176 1 53.007304918032794 12.898888524590166 2.9804737606112932e-05
177 1 55.668222950819676 12.691165245901642 1.0086882868992909e-05
178 1 57.178432786885246 11.342276721311476 9.486203996470426e-05
179 1 62.17409180327869 11.769740327868853 9.338753290925941e-05
180 1 64.65424918032788 12.132725901639345 7.150980443873467e-06
181 1 68.11697704918033 12.342216393442623 5.638856464638885e-05
182 1 70.62641967213116 12.632241311475411 6.680725624660167e-05
183 1 72.48350819672132 11.561714098360657 9.514775567096789e-05
184 1 74.00533114754099 11.388072786885248 9.45376616349396e-05
185 1 76.75208524590164 12.611085245901641 5.689010153091825e-05
186 1 79.70989508196722 11.48032131147541 2.9430827819883366e-05
187 1 1.2672634754098362 13.624708196721313 5.9481845382786013e-05
188 1 4.107336524590164 14.111196721311478 5.806522715079493e-05
189 1 6.716470163934426 15.367180327868853 8.376692267900865e-05
190 1 9.211017704918033 15.57253049180328 8.33791484080176e-05
191 1 12.000437377049181 15.032419672131148 9.287383128462951e-05
192 1 15.851346229508197 14.717754754098364 4.768905844912727e-05
193 1 17.4067462295082 14.671049836065576 9.338914275275582e-05
194 1 19.752241967213116 15.674321967213116 5.846623875588202e-05
195 1 22.25274754098361 15.967477377049182 9.99831600709067e-07
196 1 24.767390819672134 15.533954754098362 1.8825217944509797e-05
197 1 28.24647803278689 16.649268196721316 5.945440023031349e-05
198 1 30.49169704918033 16.267247213114754 4.1463594572496414e-05
199 1 32.808361967213116 14.794502295081967 5.1553510116323076e-05
200 1 35.514419672131154 14.626465573770494 1.6293163404952883e-05
201 1 38.10737573770492 14.284484590163936 1.0613601036452526e-05
202 1 42.27431278688525 13.801076065573772 2.8812025672049214e-07
203 1 43.85197967213115 13.806175737704919 9.033528171150252e-05
204 1 45.71578360655738 15.699517377049181 8.273981295592939e-05
205 1 48.84375081967214 15.041053770491805 2.355207629600693e-05
206 1 50.74476721311476 13.87045180327869 5.21558230468675e-05
207 1 54.942150819672136 14.92613442622951 8.848611649106719e-05
208 1 57.596000000000004 14.336945573770494 8.724674230054607e-05
209 1 61.09104262295083 13.731700327868854 5.086019206133911e-05
210 1 62.57196721311476 14.151640655737706 3.6485110195859064e-05
211 1 65.0228393442623 14.86180786885246 3.815720299927231e-05
212 1 67.48280000000001 14.843075409836066 4.700679564240508e-05
213 1 70.21137704918034 15.758441311475412 6.181192676532622e-05
214 1 72.93641967213115 14.352244590163936 9.788942023247772e-06
215 1 75.94775081967214 13.95977180327869 4.65204588566448e-07
216 1 78.59705573770493 13.857273442622953 4.706094209958488e-05
217 1 81.23676721311476 13.565935737704919 8.740991994050529e-05
218 1 82.63185573770492 15.860081311475412 6.984602145212074e-05
219 1 2.6494866885245902 15.917187540983608 9.153933815593425e-05
220 1 4.24907206557377 17.88540852459017 6.085101685779785e-05
221 1 7.825371147540984 17.94594819672131 1.7851547308325656e-05
222 1 10.489167213114756 17.451380983606562 7.407955839008607e-06
223 1 13.042436721311477 17.402151475409838 7.027851864000153e-05
224 1 15.384852459016395 17.32328327868853 3.0178876229932773e-05
225 1 17.968114098360658 17.440727213114755 4.513443915904446e-05
226 1 20.683664262295082 18.153015081967215 2.0608919076702537e-05
227 1 23.99759278688525 18.027492459016397 2.650967782518151e-05
228 1 25.83736262295082 16.624577704918035 6.489212577107732e-05
229 1 30.058881311475414 17.732973770491807 9.415885966199278e-05
230 1 33.020377049180325 17.246636721311475 1.6376911163540009e-06
231 1 34.50731016393443 16.924196065573774 5.113465015978101e-05
232 1 36.93177508196722 16.808165901639345 6.75925079212489e-05
233 1 39.469745573770496 16.39685967213115 9.896257910899442e-05
234 1 41.99413377049181 17.414118032786885 1.5374044306303247e-05
235 1 44.96638426229509 17.021140327868856 9.37801188074956e-05
236 1 46.93682688524591 16.608016393442625 3.4772850223225054e-05
237 1 50.794249180327874 16.810135081967214 1.2859228599283536e-05
238 1 52.578124590163945 15.779041967213116 5.693145660250231e-05
239 1 56.133757377049186 16.797411147540988 8.672735695120942e-05
240 1 58.4508262295082 16.73677049180328 1.6333967999150567e-05
241 1 60.78708196721312 16.534752786885246 6.94294936523755e-05
242 1 63.32278032786886 16.84234885245902 6.530758724329408e-05
243 1 66.16546885245903 17.28465704918033 7.54696037435097e-05
244 1 69.6044655737705 17.181098360655742 2.5563017286691016e-05
245 1 72.21590163934427 16.749443934426232 3.768516886418084e-05
246 1 74.65061639344263 16.18964131147541 8.00235500064259e-05
247 1 77.45392131147541 16.218977049180328 3.683710141964239e-05
248 1 80.01587540983608 16.03988262295082 9.286939164612782e-05
249 1 1.4012283278688527 18.13196 9.707143140458174e-05
250 1 3.1252255081967215 20.05352655737705 6.857595165211372e-05
251 1 5.4268590163934425 18.86727213114754 4.9453852371158683e-05
252 1 9.350577049180329 19.944615737704922 4.69620660562636e-05
253 1 11.918640655737706 19.77794229508197 5.67343818492593e-05
254 1 14.334017049180328 19.859183606557377 4.762450909465206e-05
255 1 16.751615081967216 19.731237377049183 6.667274208437564e-05
256 1 19.226319344262297 19.880440655737708 4.794237258873058e-06
257 1 21.67714098360656 19.304581639344264 6.0738087911778375e-05
258 1 25.710476721311476 19.659438032786884 3.8924864049144674e-05
259 1 28.26521049180328 19.692510163934426 4.889484018685774e-05
260 1 30.853470819672133 20.307803278688525 5.122158802560991e-05
261 1 33.33266885245902 20.075540983606558 7.632541818061255e-05
262 1 35.84185901639345 19.370372459016394 9.486533350410854e-06
263 1 38.43799606557378 18.96482229508197 3.824639564417837e-05
264 1 41.265234098360665 18.7557862295082 1.2988167063563128e-05
265 1 43.967151475409835 18.941141639344266 3.34896666106743e-05
266 1 46.705826885245905 19.3755731147541 3.682496238085411e-05
267 1 49.53740721311476 19.167445901639347 3.860096169026043e-05
268 1 52.92550819672131 18.75381704918033 1.4568300433635596e-05
269 1 54.467527868852464 18.984110163934428 8.789376071485539e-05
270 1 57.107744262295085 19.257775737704918 2.884091123086582e-05
271 1 59.739377049180334 19.122912131147544 3.0209118810084836e-05
272 1 62.14430163934427 20.170869508196724 8.101174691763868e-06
273 1 64.77492459016395 19.096757377049183 9.553045812557964e-05
274 1 67.1520786885246 18.466215737704918 2.053388537605555e-05
275 1 70.89958032786886 19.195064918032788 3.60795585585269e-05
276 1 73.37872786885247 18.86893836065574 4.410871908216496e-05
277 1 76.08811803278688 18.353568524590166 5.516896925060426e-05
278 1 78.92525245901639 18.529885901639346 1.8855603263525758e-05
279 1 81.51851147540985 18.282425573770492 3.2697395673993084e-05
280 1 0.03665735213114755 20.575965245901642 4.0420340523172054e-05
281 1 2.4333363278688527 21.40801967213115 4.605076410170881e-05
282 1 4.963904721311477 21.647653770491807 3.4455525525942554e-06
283 1 7.068499016393443 20.779043278688526 1.810770085631337e-05
284 1 10.586363934426231 22.18226098360656 9.828230537388459e-05
285 1 13.084294426229508 22.274055081967212 7.197938091963012e-05
286 1 15.611257704918033 22.25274754098361 7.429468549322386e-05
287 1 18.162608524590166 22.200539016393446 3.1680487669409897e-06
288 1 20.822567213114755 21.92788327868853 3.824601229835193e-05
289 1 23.79199016393443 21.772116065573773 1.2261158138405482e-05
290 1 26.911878688524595 22.098596065573773 1.9257379520487762e-05
291 1 29.617128524590168 22.262088524590165 7.57370546926738e-05
292 1 32.25502229508197 22.590184262295082 2.193869251905234e-06
293 1 34.78072327868853 22.06628131147541 1.9644416294138413e-05
294 1 37.38852393442623 21.504862950819675 2.003865167455381e-05
295 1 40.04414032786885 20.965660983606558 7.001382935114925e-05
296 1 42.780291147540986 21.034430819672135 7.926296413003343e-06
297 1 44.95562950819672 22.39286229508197 2.9603164193607415e-05
298 1 48.86864327868853 21.264622950819675 1.9579616196983396e-05
299 1 50.36850229508197 21.61513704918033 6.009314475938898e-06
300 1 52.64679344262296 21.709304262295085 6.940698541646783e-05
301 1 56.303914754098365 21.379239344262295 9.913681270928046e-05
302 1 58.91636065573771 22.566655081967216 3.897488693006802e-05
303 1 61.7964131147541 21.657651147540985 6.342068209820798e-05
304 1 64.46086557377049 21.435840655737707 8.697338924616125e-05
305 1 67.06977704918033 22.28036655737705 6.402303202877807e-05
306 1 69.85440000000001 21.275074754098362 8.977781159739144e-05
307 1 72.65467540983607 22.215535081967214 4.133374901589981e-05
308 1 75.14594098360656 20.757180327868856 8.604680291084588e-05
309 1 77.32819672131149 21.653106885245904 3.558069717109257e-05
310 1 81.18678032786886 20.54057049180328 4.395032548353523e-05
311 1 1.16663331147541 23.371342950819674 6.498129749630777e-05
312 1 3.7817047868852462 23.872221639344264 6.0003518448718053e-05
313 1 6.399331147540984 23.742811147540987 1.106415566837633e-05
314 1 8.960780327868854 24.178050491803283 1.8762409511253444e-05
315 1 11.617860983606558 24.619045901639346 9.074140242916915e-05
316 1 14.26741836065574 24.65403672131148 3.199697306809435e-05
317 1 16.922630819672133 24.59895016393443 3.760167746288982e-05
318 1 19.595818360655738 24.34214885245902 3.7927493051509164e-05
319 1 22.25350491803279 23.717868196721316 2.8860937513434193e-05
320 1 24.618288524590167 23.057940327868852 4.189334334871756e-05
321 1 27.998310819672135 24.379714754098362 7.315380410734447e-05
322 1 30.67654754098361 24.714475409836066 2.3551548577961647e-05
323 1 33.69217049180328 24.71599016393443 9.532164094738358e-05
324 1 36.228626229508194 24.078177704918037 5.376612408787244e-05
325 1 39.62425049180329 23.261927213114756 7.587923395222403e-05
326 1 41.14945639344263 23.176848524590167 7.963413641769835e-06
327 1 43.82259344262295 23.429105573770496 8.019430781015285e-05
328 1 46.298459016393444 24.066615081967214 4.459885626098224e-05
329 1 48.89373770491803 23.786739016393447 4.383876158071099e-05
330 1 51.4824524590164 24.291000655737708 6.339348024590018e-05
331 1 53.98583606557378 24.19168327868853 2.4262991473046027e-05
332 1 55.417783606557386 22.65900459016394 8.278967248300754e-05
333 1 60.59571803278689 23.902264262295084 7.438645553897461e-05
334 1 63.25663606557378 23.82879868852459 4.1667486165602695e-05
335 1 66.15335081967214 23.53397704918033 5.6753207187893554e-05
336 1 68.92232131147541 23.821830819672133 2.8957280503309515e-05
337 1 72.55975081967213 23.74659803278689 3.594001897115692e-05
338 1 75.02779016393443 23.259604590163935 2.0214409045759277e-05
339 1 76.49104262295083 22.909342950819674 6.762358856054022e-05
340 1 78.4632524590164 22.63502098360656 2.8543287434296028e-05
341 1 81.67907540983607 23.49625967213115 4.835455775161767e-05
342 1 82.52329836065574 26.015245245901642 6.841529885196018e-06
343 1 2.2762209836065574 25.884723934426233 4.1702221591918766e-05
344 1 4.848884393442623 26.132739672131148 1.2855115652551187e-05
345 1 7.420022950819672 26.327385573770496 2.3794787951516585e-05
346 1 10.107247213114755 26.675930491803282 8.491265999988931e-05
347 1 12.88485180327869 26.95020196721312 2.380176290087355e-07
348 1 15.543750163934428 26.931469508196724 5.039038170100677e-05
349 1 18.284394754098365 26.74692196721312 5.2124095439938183e-05
350 1 22.05219409836066 25.86982885245902 9.196664428938335e-05
351 1 23.588659672131147 25.76470491803279 8.331607529283989e-05
352 1 26.347733770491807 26.450636065573775 5.13923568754603e-05
353 1 29.07176655737705 26.750860327868857 9.316749404948365e-05
354 1 31.44720393442623 26.036603278688528 3.735467527468874e-05
355 1 35.00647213114755 26.693754098360657 5.767062339033313e-05
356 1 37.209732459016394 26.48315278688525 4.553522876159511e-06
357 1 39.68216459016394 25.945112131147543 3.747820808982879e-05
358 1 42.294055081967215 25.567130491803283 5.4164501523619304e-05
359 1 44.78809770491804 26.030039344262295 8.711479973612325e-06
360 1 47.623060983606564 26.178333770491804 9.326728244358142e-05
361 1 50.18188459016394 26.336575081967215 4.2687960993692676e-05
362 1 52.07371147540984 25.747537704918035 3.3225264475181374e-05
363 1 55.80354098360656 25.732945573770493 3.967989758227952e-06
364 1 58.54272131147541 25.555567868852464 8.476704687816313e-05
365 1 61.6772524590164 26.152936393442626 4.974882797743384e-05
366 1 64.29424262295082 25.71926229508197 5.691586729396937e-05
367 1 66.92940983606559 25.74612393442623 8.4994590857853e-05
368 1 70.11342295081967 24.830657049180328 8.476807286705303e-05
369 1 72.87179016393443 25.956674754098362 3.716461076151144e-05
370 1 76.31028196721311 25.912090491803283 8.507536835067783e-05
371 1 77.73617049180328 25.403385573770496 1.0948733762916974e-05
372 1 80.2153180327869 25.92163344262295 4.758672324813196e-05
373 1 1.2561350819672132 28.379927868852462 1.753744912513171e-05
374 1 4.199635540983607 28.982749508196726 9.467340065575455e-05
375 1 5.712289180327869 28.571493770491806 9.331895971779195e-05
376 1 8.494791475409837 28.767099016393445 3.627281314713068e-05
377 1 11.378731803278688 29.00900524590164 7.394303468189715e-05
378 1 14.28397967213115 29.27464262295082 4.071420644495593e-05
379 1 16.969689180327872 29.064192786885247 1.1271989452923982e-05
380 1 19.65746885245902 28.97951803278689 6.488916846469928e-05
381 1 22.209223606557376 28.150543606557378 6.145517572875483e-05
382 1 24.170173770491807 29.285043934426234 7.960047191062853e-05
383 1 28.31454098360656 28.77952 7.717811097420748e-05
384 1 30.856247868852464 28.754021639344263 3.183604445041715e-05
385 1 33.69570491803279 29.033190819672132 7.20449816363333e-05
386 1 36.130419672131154 29.16492393442623 4.939558716219339e-05
387 1 38.62840065573771 28.541501639344265 5.521261640625829e-05
388 1 41.23433311475411 28.027192131147544 8.778867619665866e-05
389 1 43.74932983606558 28.098688524590166 5.566858058751768e-05
390 1 46.41191409836066 28.10818098360656 8.006482226564867e-05
391 1 48.00644524590164 29.75663737704918 3.354529817949509e-05
392 1 51.63291803278689 28.779116065573774 9.197997675414772e-05
393 1 54.53771147540984 28.356701639344266 5.639930690237912e-05
394 1 57.82624262295082 27.743024262295084 8.131906652450639e-05
395 1 59.150642622950826 26.96317836065574 3.644594165246334e-05
396 1 62.627508196721315 28.171901639344266 3.71667182915089e-05
397 1 65.24702295081968 27.972206557377053 2.720514113622992e-05
398 1 67.6797180327869 28.09237704918033 7.354849482953486e-05
399 1 70.12604590163934 27.720959344262297 8.035869499017648e-05
400 1 72.84805901639345 28.207902295081972 4.916118546464843e-06
401 1 75.31508852459018 27.82068065573771 4.1545516582763365e-05
402 1 78.29309508196722 27.92454229508197 9.191204600496402e-05
403 1 81.06913442622951 28.50428918032787 4.249731309980087e-05
404 1 82.51774426229508 30.675032786885247 4.075737661577256e-05
405 1 2.596949967213115 31.391259016393445 9.508046659118004e-05
406 1 4.656263213114754 31.73414885245902 3.688969110353625e-05
407 1 7.05436131147541 30.908506885245906 5.833628376345148e-05
408 1 9.708059016393443 30.981013114754102 8.193464027360886e-06
409 1 12.468142950819674 31.197622950819675 9.132323281294018e-05
410 1 16.562068852459017 31.25159868852459 2.6062487048432003e-05
411 1 18.11943803278689 31.277955409836068 5.07365775678334e-05
412 1 21.712182295081966 30.68457573770492 4.980433713558902e-05
413 1 23.22395737704918 30.486900327868856 9.522636950922004e-05
414 1 25.55051868852459 31.078260327868854 6.540847183220908e-05
415 1 27.1634793442623 29.77254229508197 7.789112618406967e-05
416 1 31.703853770491808 30.9156262295082 8.882918892234703e-05
417 1 35.243076721311475 31.60943409836066 3.992095341417985e-05
418 1 38.48217639344262 30.876848524590166 9.487369946948369e-05
419 1 39.96840262295082 30.520123934426234 6.234786652990361e-05
420 1 42.71232918032788 30.41661573770492 4.3560186803326066e-05
421 1 45.432019672131155 30.31346098360656 5.470030446112084e-06
422 1 48.034215737704926 31.77252262295082 5.906452546589113e-05
423 1 50.881600000000006 31.54934885245902 2.1515189549644176e-05
424 1 53.49354098360656 30.63115540983607 6.94577632434213e-05
425 1 55.757088524590166 30.88593704918033 7.79162373509633e-05
426 1 57.96307540983607 30.63034754098361 8.690727911115373e-05
427 1 60.60480655737705 30.217930491803283 8.554195728366427e-05
428 1 64.55780983606559 30.253173770491806 1.7033375174465084e-05
429 1 66.07660327868854 30.41515147540984 7.880732793065798e-05
430 1 68.60472786885246 30.232068196721315 9.920465746251017e-05
431 1 71.0248 30.070342950819676 6.895927794892184e-05
432 1 73.35449180327869 30.76354491803279 9.707389969291794e-05
433 1 75.78870163934427 30.83054754098361 5.7009673454886823e-05
434 1 79.19588852459016 30.467612459016397 3.2589767186821574e-05
435 1 0.600413180327869 33.00427016393443 4.989700623764698e-05
436 1 3.074738754098361 34.130136393442626 8.132882419969788e-05
437 1 6.467596065573772 33.63637704918033 5.117181150317074e-05
438 1 8.949369180327869 34.303121311475415 3.118605929154039e-06
439 1 11.547222950819673 33.16124918032787 5.0646850483028617e-05
440 1 14.52689573770492 34.64692 9.109675328460416e-05
441 1 16.933688524590167 33.83324459016394 1.327852573231556e-05
442 1 19.583902295081966 33.715598688524594 8.218225568018531e-05
443 1 21.881077377049184 33.186495081967216 4.966977706448095e-06
444 1 24.53305836065574 33.14423344262295 3.661485104854148e-05
445 1 27.229825573770494 32.793971803278694 7.357837549005523e-05
446 1 29.986476065573775 32.6667324590164 1.8943009381314102e-06
447 1 32.14555606557378 33.641173770491804 3.7357529060613083e-05
448 1 34.04061442622951 32.57281770491804 7.348631713565536e-05
449 1 39.12120065573771 33.357157377049184 3.159314261024698e-05
450 1 41.685729836065576 32.61008065573771 1.1741978065404125e-05
451 1 44.53250819672132 32.51111672131148 2.7756657576609836e-05
452 1 47.33687344262295 33.160693770491804 9.284182244218524e-05
453 1 50.60793442622951 33.065971147540985 7.922105570065209e-05
454 1 52.12420327868853 33.151049836065575 5.592229088401696e-05
455 1 54.49176393442623 33.33802098360656 1.3525270382517886e-05
456 1 56.89416393442624 33.37599081967213 2.5174459139141593e-05
457 1 59.320800000000006 32.80916983606558 8.78806821316281e-05
458 1 61.893357377049185 32.64931278688525 9.382559862687315e-05
459 1 64.57800655737705 33.69474557377049 1.3231319035966526e-06
460 1 68.2452262295082 32.441841967213115 5.3702606904389275e-05
461 1 69.76755409836066 32.56872786885246 4.474844248936678e-05
462 1 72.16591475409837 32.76796852459017 8.765822966103476e-05