# input file

2232 atoms
1 atom types

0.0 82.68810555352132 xlo xhi
0.0 83.16 ylo yhi
-10.0 10.0 zlo zhi
0.0 0.0 0.0 xy xz yz

Masses

1 12.0100 #C

Atoms

1 1 1.5469476721311477 0.5849374426229509 2.7866491289879025e-05
2 1 4.968852918032787 83.12718032786886 8.871848393991156e-06
3 1 6.493094426229509 0.1526609573770492 5.002306911031721e-05
4 1 9.032024262295083 0.8192951475409836 7.552064177734135e-05
5 1 11.742070819672133 0.7212552131147542 3.2412954953517095e-05
6 1 14.350477377049181 0.7306466885245902 4.767527570252339e-06
7 1 17.035782950819673 1.4879227540983608 4.890837284413725e-05
8 1 19.91856196721312 1.4718663606557378 3.076581050151637e-05
9 1 22.52686754098361 0.9543657704918034 7.537314585036393e-05
10 1 25.092961967213117 0.7547110819672133 5.0017295737278104e-05
11 1 27.721009836065576 0.8324432131147542 3.7335335564428465e-05
12 1 30.348552786885246 0.5176167213114755 3.6637281318363746e-06
13 1 33.05198491803279 83.09234098360656 8.069138830535487e-05
14 1 35.77268524590164 83.06961967213115 5.942787332464328e-05
15 1 38.488235409836065 0.17144239344262296 6.17170005002161e-05
16 1 41.374801311475416 0.5726830819672132 6.667508008487098e-05
17 1 44.18017639344263 0.9961325901639345 7.644792891341112e-05
18 1 47.00120393442623 1.0554756065573772 8.945764328899553e-06
19 1 49.54407213114755 1.059560393442623 1.3412923833354396e-05
20 1 52.102996721311484 0.43721104918032794 1.1032425923551281e-05
21 1 55.09918032786886 0.6309102295081968 7.179527125148548e-05
22 1 57.642957377049186 0.5732233442622952 7.78073476446746e-05
23 1 60.034754098360665 1.6828110163934429 9.930390073135947e-05
24 1 62.872898360655746 0.7816080655737706 6.239219796859552e-05
25 1 65.72417049180329 0.8390121967213116 5.837134175754517e-05
26 1 69.56003278688524 0.5346829508196722 4.207657605325759e-05
27 1 71.12679344262295 0.6924900327868854 3.3550492764068294e-05
28 1 73.38327213114755 1.2655114098360656 5.863726599330994e-05
29 1 76.04772459016394 1.8366140983606558 5.7289996656334475e-05
30 1 78.93181639344263 1.6888397377049182 4.938436530336912e-05
31 1 81.61545573770492 0.8041980983606558 8.225329648173345e-05
32 1 0.3271318491803279 3.0777531147540986 7.253577068959061e-06
33 1 2.7894701639344266 3.0844836721311477 3.621720897583827e-05
34 1 5.143801967213116 2.6197975081967213 4.542433234952648e-06
35 1 7.475614426229509 3.8838396065573777 8.15250283414053e-05
36 1 10.283413114754099 3.0475792131147545 4.594842347858257e-05
37 1 12.916964590163936 3.0614644590163937 8.297898387440991e-05
38 1 15.37046229508197 3.218448524590164 7.804313268072498e-05
39 1 17.618306885245904 2.9144777704918035 3.510610483036224e-05
40 1 21.26285573770492 3.4782389508196725 2.3645066855005925e-05
41 1 23.86853573770492 3.213636655737705 4.7827780816697785e-05
42 1 26.530211147540985 3.078232786885246 5.931845566169299e-05
43 1 29.33048655737705 2.9214456393442627 6.574828630187933e-05
44 1 32.15171606557377 2.3947555409836068 3.059321095080666e-05
45 1 34.75285180327869 2.1294918032786887 1.7348330849267903e-06
46 1 37.06174098360656 3.4714225573770494 1.1541126318039508e-05
47 1 39.7377055737705 2.4705487868852463 7.652515988125315e-05
48 1 42.48703475409837 2.884106950819673 6.337485640766632e-05
49 1 45.22177180327869 3.223618885245902 5.182910016899416e-05
50 1 49.209765901639344 3.1117845901639347 5.773127766303888e-05
51 1 50.735678688524594 2.976774557377049 2.3525288359076803e-05
52 1 53.43951475409836 2.564695803278689 8.229557732362384e-05
53 1 56.514465573770494 3.0595104262295085 7.449900658587229e-05
54 1 59.24809180327869 3.0128307540983608 1.0938278379415301e-06
55 1 61.67977704918034 3.1799030819672134 9.843681676843974e-06
56 1 64.17104262295082 2.9800161311475413 1.792998515373845e-05
57 1 66.6284786885246 3.1262858360655743 4.635630996116517e-05
58 1 69.14902950819672 3.2286630163934427 7.700729417849466e-05
59 1 72.18813114754099 3.5240097704918036 9.283584144148242e-05
60 1 74.80209180327869 3.7044270819672134 5.3033563740604374e-05
61 1 76.86316721311476 3.1297798688524594 6.297890698696565e-05
62 1 80.55159344262296 3.367379147540984 7.519400056643572e-05
63 1 1.593051737704918 5.546676065573771 3.561346870877057e-05
64 1 4.150653442622951 5.347132459016394 4.395690185884169e-05
65 1 6.831137049180328 5.2822000000000005 4.387876389431391e-05
66 1 9.352596721311476 5.4052990163934425 9.296299611889335e-05
67 1 11.887588196721314 5.343244590163935 7.926123091721704e-05
68 1 14.46332655737705 5.525065573770493 7.409880956983953e-05
69 1 16.91435016393443 6.796752131147541 3.2578598930795664e-05
70 1 19.728712786885247 5.735212459016394 5.087365176141559e-05
71 1 22.567967868852463 5.6597272131147545 7.459482927699e-05
72 1 25.35971016393443 5.416154754098361 8.337946248727445e-05
73 1 28.061021639344265 5.123554754098361 5.0775308135465495e-05
74 1 30.83796983606558 4.7091331803278695 9.219398682665523e-05
75 1 33.480003934426236 4.6368491147540984 3.2157302629829186e-05
76 1 36.286136393442625 4.805148393442623 8.684335811995681e-07
77 1 39.388100327868855 4.83543337704918 7.144705011977212e-05
78 1 40.91643672131148 4.82993986885246 3.057277409269068e-05
79 1 43.541404590163935 5.21868131147541 9.782725664190588e-05
80 1 45.727093770491805 4.684700196721312 1.3717068734815374e-07
81 1 49.33963081967214 5.815898360655738 7.826805711134264e-05
82 1 52.94015081967214 4.755767409836066 8.249238452135521e-05
83 1 54.20396065573771 3.89774 2.2234952283607114e-05
84 1 57.601554098360666 5.261144918032787 8.269359839703069e-05
85 1 60.23773114754099 5.531124590163935 1.8270221350295623e-05
86 1 62.90874754098361 5.4885600000000005 2.1265627827605006e-05
87 1 65.3384131147541 5.487499672131148 9.39188029756901e-05
88 1 67.90440655737704 5.536577704918033 5.81969866006216e-05
89 1 70.0240524590164 4.5152699016393445 8.972041807670199e-05
90 1 73.74630819672133 5.879720000000001 8.234498231778298e-05
91 1 76.33401311475411 5.976512786885247 2.5273033841506532e-05
92 1 79.07319344262295 5.814232131147541 3.497560162657537e-05
93 1 81.75329836065573 5.661040000000001 4.133110246262748e-05
94 1 0.3253939213114755 8.031428196721311 5.772941371352709e-05
95 1 2.9013852459016394 7.85940262295082 4.2413468974070903e-05
96 1 5.497648524590164 7.6135580327868855 5.617058330333697e-05
97 1 8.196233442622953 7.7081291803278695 8.674069709866299e-05
98 1 10.829784918032788 7.73736393442623 4.834795458260804e-05
99 1 13.244151475409836 8.91851868852459 2.316704850737509e-05
100 1 16.202163278688527 8.190224918032788 7.309024154817276e-05
101 1 18.802743606557378 8.201838032786887 4.987548522732999e-06
102 1 21.48799868852459 7.834459672131148 9.280736602244593e-05
103 1 24.32523409836066 7.664554754098361 4.686196996906639e-05
104 1 27.13676918032787 7.460820327868854 4.2215950579599764e-05
105 1 29.862064262295085 6.995336393442623 6.019143358685525e-05
106 1 32.174740327868854 8.103732459016395 3.14557153114727e-05
107 1 34.784106229508204 6.896170491803279 4.000690161705242e-05
108 1 37.11576721311476 8.49620524590164 7.442634569417571e-05
109 1 39.59001704918033 7.492630163934427 9.27850512073366e-06
110 1 42.24573442622951 7.311162622950821 2.4878077080557094e-05
111 1 44.927960000000006 7.518734426229509 5.999079611317335e-05
112 1 47.59680524590165 7.898079344262296 2.225905487664154e-05
113 1 50.40369508196722 7.873691803278689 7.444592658128184e-05
114 1 52.948734426229514 7.497275409836066 8.635798711844823e-06
115 1 55.725783606557385 7.374883278688525 3.263007848803915e-05
116 1 58.834563934426235 7.694041967213116 1.4091628192021133e-05
117 1 61.65756065573771 7.784422295081968 9.579274025408764e-05
118 1 64.2104262295082 7.955488524590165 4.7144014149149654e-05
119 1 66.80772459016394 7.844810491803279 4.062951955216715e-05
120 1 69.64687868852461 7.419972459016394 7.532625942078205e-05
121 1 72.40171147540984 7.833449836065575 8.744692663568442e-05
122 1 74.91822295081968 8.29565180327869 2.2935967145513825e-06
123 1 77.60135737704918 8.136350163934427 7.945462578398141e-05
124 1 80.45313442622951 8.035568524590165 1.870547043602844e-06
125 1 1.6064825573770494 10.35268786885246 2.759922866925019e-05
126 1 4.47933993442623 10.08901967213115 9.477220319111577e-05
127 1 7.162868196721312 9.872864262295083 1.4330005193688023e-05
128 1 9.510434098360657 11.186105573770492 2.661547577838125e-05
129 1 12.347063606557379 10.189296393442623 9.855995625299705e-05
130 1 14.808640000000002 10.472252459016396 3.943573707518614e-05
131 1 17.47289049180328 10.563794098360658 2.4580834604410774e-05
132 1 20.631506229508197 10.233072786885247 6.054327399343618e-05
133 1 23.328475409836066 9.828229508196722 7.76461928803891e-05
134 1 26.041248524590166 9.693264918032789 9.551172541436237e-05
135 1 28.737712786885247 9.44252262295082 3.353574468195182e-05
136 1 31.410900327868855 9.435100327868852 6.645163950059165e-05
137 1 33.91312262295082 9.51305967213115 7.105901654817834e-05
138 1 36.63609508196721 9.9353731147541 9.583217048403211e-05
139 1 39.20274491803279 10.07977967213115 6.700758309614476e-05
140 1 41.45074098360656 9.620102295081969 2.0517161325260158e-05
141 1 43.67217836065574 10.96793049180328 3.334007146291032e-05
142 1 46.35642360655738 9.97884655737705 8.73468239937654e-05
143 1 49.092877377049184 10.01696786885246 1.5003600809720819e-05
144 1 51.87628852459017 10.01742229508197 8.799268367342807e-05
145 1 54.295855737704926 9.635906229508198 5.5754813729596646e-05
146 1 56.32057704918033 8.818292459016394 6.94859739360487e-05
147 1 59.98880655737705 9.815303606557377 7.179400448261496e-05
148 1 62.65275409836066 10.238273442622953 6.272966218453807e-05
149 1 65.85999344262297 10.22221704918033 6.515673018720987e-05
150 1 68.49970491803279 9.679581639344264 6.737636199325281e-06
151 1 70.91018360655738 9.79748 7.097452702333571e-05
152 1 73.43780327868853 10.520017704918034 2.187746185103241e-05
153 1 76.34461639344264 10.536932459016395 3.463052555978783e-05
154 1 79.13125901639346 10.188791475409836 1.6874283757536556e-05
155 1 81.71542950819673 10.457660327868854 1.84354007294278e-05
156 1 0.08925991475409836 12.846124590163935 2.537770425017838e-06
157 1 3.3268594754098366 12.303388196721313 9.474671523679328e-05
158 1 6.108548852459017 12.29238098360656 4.187401760549373e-05
159 1 8.857827540983607 12.594422950819673 4.085200530282319e-05
160 1 11.311779672131149 12.562158688524592 3.495326368150755e-05
161 1 13.704939672131148 13.878227540983609 5.7477031778052404e-05
162 1 16.357122622950822 12.770285901639344 1.230829394998494e-05
163 1 18.407342295081968 11.782312786885248 8.991672167067023e-05
164 1 22.304451147540984 12.216744262295082 4.1927593868208624e-05
165 1 24.888924590163935 11.991348852459017 3.195315381363277e-05
166 1 27.623914098360657 11.81765704918033 5.487879058639911e-05
167 1 30.046005901639347 11.737728524590166 8.149167393082645e-05
168 1 32.404326557377054 11.849870819672134 6.163131797767344e-05
169 1 35.11068721311476 11.879560000000001 6.339952708412111e-05
170 1 37.96211081967214 12.330653770491804 3.757134047673883e-05
171 1 40.475491803278686 12.39588918032787 5.9678984889445236e-06
172 1 43.0591068852459 12.379933770491805 4.375822612813708e-05
173 1 45.62171737704918 12.460670163934427 9.749573236779502e-05
174 1 48.08687868852459 12.182460327868855 3.481217324589811e-05
175 1 50.683672131147546 12.156911475409839 5.64575610226439e-05
176 1 53.344085245901645 12.276678032786887 3.6846550553529326e-05
177 1 55.7404262295082 11.81876786885246 5.054527694915113e-05
178 1 58.24532459016394 11.743434098360657 5.4473870120724535e-05
179 1 60.80424918032788 12.19341704918033 3.214429908213764e-05
180 1 63.27683278688525 11.63669442622951 1.766080046120939e-05
181 1 67.21620327868852 12.140148196721313 5.035002842531277e-05
182 1 69.63173114754099 12.187459016393444 6.401055007960557e-05
183 1 72.00585573770493 13.486461639344263 1.1684237291861433e-05
184 1 74.16539016393443 11.908592786885247 4.463033104739255e-05
185 1 77.98105573770493 12.45365180327869 9.948125035584958e-05
186 1 79.99264918032787 13.915137049180329 2.4987684048758107e-05
187 1 1.0671644590163936 14.048586885245903 4.7343563596509635e-05
188 1 4.419855540983607 15.714664918032788 1.550423045385857e-05
189 1 7.2011409836065585 14.700991475409838 3.967819289297759e-06
190 1 9.953247213114754 15.056605245901642 1.7561552670237937e-05
191 1 13.236981639344265 15.333653770491805 9.348442758490608e-05
192 1 15.909967213114756 15.169555409836068 4.533100645331706e-05
193 1 18.346752131147543 14.663274098360658 8.181913870564038e-05
194 1 20.858820327868855 14.3028131147541 7.948442533980571e-05
195 1 23.7638662295082 14.441665573770493 8.009779908000048e-06
196 1 26.49779540983607 14.089838688524592 5.122331431344498e-05
197 1 29.091609836065576 14.24434360655738 4.3620538591627635e-05
198 1 31.097194754098364 14.30124786885246 2.506903615875519e-05
199 1 33.45930229508197 14.049697704918035 1.6696452334616697e-05
200 1 36.317744262295086 14.088121967213118 6.383962493563533e-06
201 1 39.3041324590164 16.176059016393445 9.997177118573419e-05
202 1 41.783330491803284 14.772790819672132 4.979979638549434e-05
203 1 44.44147147540984 14.758097704918034 4.0554157787651494e-05
204 1 47.31485901639345 14.68932786885246 2.7972785069354512e-05
205 1 49.797238032786886 14.443432786885246 9.505725699263221e-05
206 1 52.24992786885247 15.582578360655738 8.30393267389995e-05
207 1 54.963357377049185 14.533156721311478 6.08368290922282e-05
208 1 57.33243278688525 14.179512131147542 2.0104186505290035e-05
209 1 60.05848524590164 15.172281967213117 8.003885900208856e-05
210 1 62.81786229508198 14.133110163934427 6.60690547596583e-06
211 1 65.38638032786886 15.27033704918033 2.691786095423273e-05
212 1 68.24674098360656 14.659638688524591 6.066509009216451e-05
213 1 71.21969836065574 14.805358032786886 5.168512304377473e-05
214 1 73.95382950819673 14.837723278688525 6.74522383293852e-05
215 1 76.61373770491805 14.772285901639345 2.2191783013018442e-05
216 1 79.19336393442623 15.248524590163935 8.130525091486645e-05
217 1 81.68917377049182 15.283969836065575 9.155803266787834e-05
218 1 0.7041788852459018 17.037247213114757 8.65211286223737e-06
219 1 3.550523016393443 17.002912786885247 2.020286266135365e-05
220 1 6.139500327868853 17.163577704918037 1.7587908193240742e-06
221 1 8.672017704918034 17.06471475409836 4.773175757530934e-05
222 1 10.770507540983607 16.37282557377049 2.8886450723901924e-05
223 1 14.555524590163936 17.469659016393443 5.7818894560708835e-05
224 1 17.34151081967213 17.323333770491804 5.03978344908757e-05
225 1 20.186219016393444 16.82644393442623 2.7640279024055495e-05
226 1 22.61305704918033 17.35696131147541 5.008757138210962e-06
227 1 26.302038688524593 16.04417442622951 7.204672585153753e-05
228 1 27.777611147540984 16.49264262295082 9.968684723582934e-05
229 1 30.19142229508197 17.011849836065576 8.250080634394531e-05
230 1 32.31647081967213 16.645026885245905 6.973165840494356e-05
231 1 35.05191475409837 16.041498360655737 3.8243806577609545e-05
232 1 37.32556065573771 15.219693770491805 7.696505103381169e-05
233 1 40.67599475409837 17.489249836065575 6.872661530802309e-05
234 1 43.12555409836066 17.053758032786888 1.8342776698323738e-05
235 1 45.95213573770492 16.759744262295083 2.770350637951026e-05
236 1 48.783413114754104 17.01018360655738 8.933810695114105e-05
237 1 51.49961967213115 16.92015672131148 2.4920033791416255e-05
238 1 54.060563934426234 17.04896131147541 5.507141016975953e-05
239 1 56.57657049180329 16.899556065573773 3.1197394513176514e-05
240 1 60.23924590163935 16.68794491803279 9.577996774833486e-06
241 1 61.75753442622951 16.538691147540987 1.802608224598854e-05
242 1 64.55175081967214 16.56509836065574 3.466724146077924e-05
243 1 66.9516262295082 17.067643278688525 4.1047802465985786e-05
244 1 69.53276721311477 16.718038032786886 2.5640387063294778e-05
245 1 72.35071475409836 17.05315213114754 4.407644196121933e-05
246 1 75.730131147541 17.11253049180328 3.676507483795255e-05
247 1 77.26861639344264 17.34004655737705 9.454395866608634e-06
248 1 80.54805901639344 17.690712131147542 3.305863696009921e-05
249 1 2.014097836065574 19.204203934426232 3.8029269483107966e-05
250 1 4.852080524590165 19.42096524590164 8.294052293144725e-05
251 1 7.584424262295083 19.49109836065574 8.890208980507043e-05
252 1 10.305629508196722 19.268833442622952 8.18454459984089e-05
253 1 13.080002622950822 19.398849836065576 8.054583221560553e-05
254 1 15.904160655737707 19.52109049180328 1.4362967805009809e-05
255 1 18.30792393442623 18.515041311475414 6.684471446310131e-05
256 1 22.04320655737705 18.75417049180328 2.8976049299954644e-05
257 1 24.64934098360656 19.02248393442623 6.721905279050383e-05
258 1 27.2989993442623 19.703315409836065 1.566494109271982e-05
259 1 28.79007278688525 19.26994426229508 8.034128468000466e-05
260 1 32.210640000000005 19.34103672131148 2.8266509483827163e-05
261 1 34.56658754098361 18.195680655737707 6.986321760616188e-06
262 1 36.686940327868854 19.334876721311478 6.30996728719672e-05
263 1 39.16396721311476 20.223936393442624 4.722775709377298e-05
264 1 42.141670819672136 19.679483278688526 5.1427000597579556e-05
265 1 44.83656983606558 18.961540327868853 9.593525192000554e-05
266 1 47.04184983606558 20.02201967213115 2.9561444817521633e-05
267 1 50.80737704918033 19.145532459016398 4.070655263617341e-05
268 1 52.35798032786886 19.28473836065574 9.834094022668472e-06
269 1 55.071914754098366 19.38708524590164 8.709723038843906e-05
270 1 57.66870819672132 19.434345573770493 6.733950579092176e-05
271 1 60.213495081967224 19.192893770491803 9.833282256459206e-05
272 1 63.01730491803279 18.7157462295082 3.099269615775395e-05
273 1 64.88550163934427 20.396062950819672 1.5286678793822927e-05
274 1 68.95564590163936 19.135030163934427 9.008219646605666e-05
275 1 70.50321967213117 18.925741639344263 7.726974603921337e-05
276 1 72.6885049180328 20.608936393442626 3.828207376593592e-05
277 1 75.48474098360656 19.777639344262298 5.4685370746430385e-05
278 1 77.91339672131149 18.795523278688524 1.4948533700459277e-05
279 1 81.98556065573771 19.416622950819672 1.1804746453601246e-05
280 1 0.5796055081967214 21.584589508196725 8.890976517886617e-07
281 1 3.4490950819672137 21.428519344262295 3.497986833422504e-05
282 1 6.248259672131148 21.70708262295082 5.0556814391638086e-05
283 1 9.000517377049182 21.651289180327872 7.820707198424759e-05
284 1 11.840580327868855 21.55676852459017 7.944396954190376e-05
285 1 14.731084590163936 21.59892918032787 8.203833901302206e-05
286 1 17.722168524590167 21.271792786885246 4.848165103059133e-06
287 1 21.535208524590168 20.994491803278688 4.4977471193150564e-05
288 1 23.104089836065576 21.11355147540984 5.838858458464772e-05
289 1 24.857821639344266 22.761856393442624 7.534641130111015e-05
290 1 27.426844590163938 21.727986229508197 1.0901317455844084e-05
291 1 29.81960065573771 20.475183606557376 5.763185570937786e-05
292 1 35.202986229508205 21.580903606557378 5.7864316936948345e-05
293 1 35.26635344262295 20.047417049180332 8.350610269437927e-05
294 1 38.18866754098361 21.43573967213115 6.638432606124723e-06
295 1 40.93835016393443 21.87860327868853 1.411161914052661e-07
296 1 44.472120000000004 21.297341639344264 6.866216544135823e-05
297 1 46.00939344262296 21.14546229508197 9.905462683531227e-05
298 1 48.00972721311476 23.149885901639344 3.5932962815976266e-05
299 1 50.66751475409836 21.812105573770495 7.091916651886713e-05
300 1 53.66319344262296 21.64447278688525 1.1113987175343743e-05
301 1 56.43418360655738 21.790141639344263 7.124232561681771e-05
302 1 59.212747540983614 21.692036065573774 2.890916936085808e-06
303 1 62.02665573770492 21.09769704918033 3.094578669139835e-05
304 1 64.15034098360657 22.697176393442625 9.28643689034287e-05
305 1 66.79308196721313 22.076278688524592 7.732466823535557e-05
306 1 69.32625573770493 23.01143737704918 5.656695638391085e-06
307 1 72.22448524590165 22.07249180327869 5.866599928240024e-06
308 1 74.91670819672132 23.172001311475412 6.684061681156027e-05
309 1 77.50390819672131 21.67093049180328 9.50564695589476e-05
310 1 80.42990819672133 21.543388196721313 6.604850871790176e-05
311 1 2.813054885245902 23.412392786885245 7.02069894957065e-05
312 1 4.332065442622951 23.665205245901642 2.0228285376791724e-05
313 1 7.681419016393444 23.946091147540987 9.044765402929822e-06
314 1 10.420750819672133 23.773308196721313 6.438297443590082e-05
315 1 13.092474098360658 23.720190819672133 9.075057802865683e-06
316 1 16.995339016393444 23.246123278688525 6.224359175050491e-05
317 1 18.532208524590168 23.421127868852462 1.830022225655753e-05
318 1 21.28249704918033 23.710041967213115 6.219927522758893e-05
319 1 24.093173770491806 24.08105573770492 6.304025780234524e-06
320 1 26.732683278688526 24.27403540983607 2.1203033219873704e-05
321 1 29.321095081967215 23.2902531147541 2.827184582502568e-05
322 1 31.74455016393443 23.545034754098364 4.230526565566415e-05
323 1 33.92917901639345 23.790929836065576 9.821946397997601e-05
324 1 36.54551278688525 23.522616393442625 4.667561880636926e-05
325 1 39.24475409836066 23.795676065573772 6.829909051249614e-05
326 1 41.829883934426235 24.286456393442627 7.585175270524253e-05
327 1 44.42849508196722 24.007590163934427 2.585172796263361e-05
328 1 47.12945311475411 24.40445573770492 5.7530215507082375e-06
329 1 49.606934426229515 24.365728524590164 7.766268642084471e-05
330 1 52.204485245901644 23.684745573770492 4.134503319050922e-05
331 1 55.00627540983607 23.99663344262295 8.908356357015035e-05
332 1 57.97670819672132 24.008095081967213 5.352313111186519e-05
333 1 60.76789508196722 23.55644590163935 4.512341425108816e-05
334 1 63.38488524590164 24.020112131147542 7.291034603937649e-05
335 1 66.01146885245902 24.555628196721315 9.161335724541426e-05
336 1 68.66026885245903 24.42414754098361 8.17275484026891e-05
337 1 71.11921967213117 24.425056393442624 2.74168715103982e-05
338 1 74.05127868852459 24.456563278688527 3.79499707805258e-05
339 1 76.7808655737705 24.3791593442623 2.51174955438536e-05
340 1 79.31201967213116 23.760836721311478 4.5395312530031295e-05
341 1 81.87195409836066 23.799765901639347 7.064202397365008e-05
342 1 0.445685593442623 26.33405049180328 9.381168503011767e-05
343 1 2.778271081967213 25.835292459016394 2.2435086518427295e-06
344 1 5.176924590163935 24.959512131147545 7.565001143737893e-05
345 1 8.909480655737704 26.07310885245902 3.5908186937615774e-06
346 1 11.594281311475411 26.05447737704918 1.1278284355485835e-05
347 1 14.189812459016395 26.044379016393446 7.332365988193081e-05
348 1 16.746262950819673 25.607372459016396 2.388730031477252e-05
349 1 19.620407868852464 25.759403278688527 2.7814455208921052e-05
350 1 23.284850491803283 26.013124590163937 7.828098546229345e-05
351 1 25.90062885245902 26.356822295081972 3.201719164288138e-05
352 1 28.518780327868853 25.86210360655738 7.60989993272768e-05
353 1 30.04242098360656 25.885531803278692 1.6752184363346392e-05
354 1 32.654109508196726 26.297040000000003 1.7924455144075647e-05
355 1 35.27534098360656 25.976265573770494 6.653633825051682e-05
356 1 37.927877377049185 25.867758688524592 4.407564817338693e-05
357 1 40.018843934426236 27.426844590163938 4.903490947446626e-05
358 1 43.865057049180336 26.308905573770495 8.074693587396401e-05
359 1 45.387889836065575 26.434074754098365 1.7312046385971903e-05
360 1 48.385184262295084 26.79605049180328 9.10980831419017e-06
361 1 50.96743606557377 26.232864918032792 3.86090659159741e-05
362 1 53.46880000000001 25.926884590163937 8.787433611252814e-05
363 1 55.6752918032787 25.403032131147544 6.612364615968692e-05
364 1 59.39855737704919 25.89744786885246 3.457293298348765e-05
365 1 61.76864262295083 26.081692459016395 9.092636145967311e-05
366 1 64.2028524590164 26.485172459016397 3.4429805608126033e-06
367 1 67.00615737704918 26.81064262295082 4.9051402492535207e-05
368 1 69.75695081967214 26.88052327868853 2.7543902883846675e-06
369 1 72.52087213114754 26.420542950819673 2.0010840292842035e-05
370 1 74.62991475409838 25.87285836065574 1.7323261739543383e-05
371 1 78.11182950819673 26.38636 3.5113786912233604e-05
372 1 80.63339016393444 26.206407213114755 4.396187916001841e-05
373 1 2.772272655737705 28.208710163934427 2.1322598450469246e-06
374 1 4.234520327868853 27.72732131147541 3.221766668088194e-05
375 1 6.927424918032788 27.986041311475415 9.473246621831524e-05
376 1 10.260893770491805 28.35579278688525 4.152998147973445e-05
377 1 13.087121967213116 28.38962229508197 6.129511374861862e-06
378 1 16.36560524590164 27.914393442622952 2.8310330718034726e-05
379 1 17.86753442622951 27.69010885245902 2.2660314468351183e-05
380 1 20.331988852459016 28.31060262295082 4.9519271423066915e-05
381 1 22.655773114754098 28.55094360655738 5.800856969768379e-05
382 1 25.148553442622955 28.412091147540984 5.15096346072371e-05
383 1 27.814369180327873 28.318327868852464 1.3820947778798343e-05
384 1 30.307805901639345 27.424017049180332 2.613386658051501e-05
385 1 33.918373770491804 28.440215081967217 7.70129818166641e-05
386 1 36.47805573770493 28.203610491803282 7.220744549922785e-05
387 1 39.134379016393446 28.669397377049183 5.070591074138342e-06
388 1 41.46669639344263 29.268230163934426 1.7139134582343252e-05
389 1 43.81345442622951 28.869647868852464 8.326899919355944e-05
390 1 45.98687409836066 27.86763803278689 9.275521336504212e-05
391 1 49.94881442622951 28.758616393442626 1.7696354603689458e-06
392 1 52.610944262295085 28.39780196721312 3.549562742688432e-05
393 1 54.5432655737705 29.587843278688528 8.41522458971765e-05
394 1 58.49424918032788 28.169528524590167 5.993418235142556e-06
395 1 60.03374426229509 28.40572918032787 3.372168898414092e-05
396 1 62.505318032786896 28.671720000000004 1.1087685605392528e-05
397 1 65.1500786885246 28.685100327868856 1.7051483529503187e-05
398 1 67.46361311475411 28.292173114754103 7.748181618546992e-05
399 1 71.28786229508198 28.74427672131148 2.304625298109996e-05
400 1 73.91747540983607 28.72110098360656 8.664107599103522e-06
401 1 76.41934426229508 28.69979344262295 1.7343336920669362e-05
402 1 79.17417704918034 28.679697704918034 6.227398266740794e-05
403 1 82.00121311475411 28.692926557377053 5.6100474501231006e-05
404 1 0.473021855737705 31.179546885245905 1.5301855180203207e-05
405 1 2.8083641967213118 30.929410491803285 5.842192700814646e-05
406 1 5.445339016393443 30.132750819672133 9.408429381543691e-05
407 1 7.738373770491804 29.296859016393448 8.830307380956237e-05
408 1 11.397009836065575 30.45630229508197 9.372624852669574e-05
409 1 13.995419016393443 30.839131147540986 8.385605091525573e-05
410 1 17.149339016393444 30.136689180327874 9.319785574562369e-05
411 1 18.673232131147543 30.308310819672137 5.27774915213013e-05
412 1 21.251040655737704 30.91370754098361 7.948226422298431e-05
413 1 24.029150163934432 30.88209967213115 7.515616661458995e-05
414 1 26.78721442622951 30.683161967213117 2.809167483867554e-05
415 1 29.505592131147544 30.205459016393444 2.250550669289332e-05
416 1 32.181859672131154 30.5637993442623 2.841664569609642e-05
417 1 35.72370819672131 30.60909049180328 6.198403238959897e-05
418 1 37.259113442622954 30.596164590163937 9.093607886331415e-05
419 1 39.95966754098361 31.3707593442623 9.463420084708242e-05
420 1 42.787158032786884 31.508601967213117 8.475686991303363e-05
421 1 45.43464524590164 30.792678688524592 6.468221705084891e-05
422 1 48.27930295081968 30.736733770491806 3.25653231985978e-05
423 1 51.0977049180328 30.832466229508203 3.065438952232591e-05
424 1 53.79447213114754 30.9440531147541 4.4243556470806415e-05
425 1 56.17667540983607 31.29264852459017 6.299621898931853e-05
426 1 58.776498360655744 31.9850931147541 2.3163146582342877e-05
427 1 61.50002622950821 30.99525180327869 5.366913343366372e-05
428 1 64.18114098360657 30.927188852459018 8.488376203503483e-05
429 1 66.45680655737705 32.23528 3.606643813358811e-05
430 1 70.38355409836066 30.931177704918035 1.5836177805595553e-05
431 1 71.93314754098361 30.883008524590167 4.6643949981064185e-05
432 1 74.59406557377051 31.106232786885247 3.4724133514352984e-05
433 1 77.65285901639345 30.931480655737708 7.675972838789206e-05
434 1 80.59148196721313 30.82277180327869 2.050339714610878e-05
435 1 1.7675160655737707 33.58209836065574 5.58260210322154e-05
436 1 4.742523409836066 32.679759344262294 8.69081981240217e-05
437 1 7.304447213114755 32.0860262295082 3.0073794293574598e-06
438 1 9.799802622950821 32.44391213114754 4.110583833748963e-05
439 1 12.218662950819674 32.8806662295082 5.0497210561245903e-05
440 1 15.708605901639347 33.18296065573771 9.774762750453744e-05
441 1 17.210434098360658 33.00906688524591 9.342237331547637e-05
442 1 19.714524590163936 32.9199993442623 1.0021800083363298e-05
443 1 22.5280793442623 33.08541049180329 8.271537599672823e-05
444 1 25.132850491803282 32.99301049180328 9.626275075028223e-06
445 1 28.913272786885248 32.573777049180336 8.97485758533549e-05
446 1 30.4666531147541 32.68581836065574 6.702299475024861e-05
447 1 32.90576065573771 33.25768852459017 6.749701586308288e-06
448 1 35.40833639344263 33.18190032786885 2.0318835897361333e-05
449 1 38.290610491803285 33.09116655737705 5.9235328529691805e-05
450 1 41.21363147540984 33.564224262295085 3.567112434527756e-05
451 1 44.20663409836066 33.38422098360656 5.3668166622041104e-05
452 1 46.87664065573771 32.89662163934427 3.5813288503866085e-05
453 1 49.54907081967214 32.94236721311476 6.493271887645311e-05
454 1 52.062603278688535 33.13575081967214 8.131077421017819e-05
455 1 55.34154098360656 34.49110229508197 3.533538364598807e-05
456 1 58.129193442622956 33.37422360655738 5.486236004780051e-05
457 1 60.53664262295083 33.50928918032787 3.418873891182984e-05
458 1 62.91884590163935 33.31726885245902 8.587592353164829e-05
459 1 65.57723934426231 33.50631016393443 7.845808442874787e-05
460 1 67.85240000000002 34.11226229508197 6.538829033929414e-05
461 1 70.30579672131148 33.47773180327869 3.232906106263428e-05