ITEM: TIMESTEP
0
ITEM: NUMBER OF ATOMS
2232
ITEM: BOX BOUNDS xy xz yz pp pp pp
0.0 82.68810555352132 0
0.0 83.16 0
-10.0 10.0 0
ITEM: ATOMS id type x y z vx vy vz
1 1 1.5194245901639347 0.7811081967213115 7.66593495389e-05 0.0 0.0 0.0
2 1 3.8888483934426232 0.8298024918032788 6.59845970898e-05 0.0 0.0 0.0
3 1 6.613870819672132 0.8003253770491804 1.1339878758e-05 0.0 0.0 0.0
4 1 9.36052393442623 0.4732106950819673 7.03736139157e-05 0.0 0.0 0.0
5 1 12.016695737704918 0.10456095081967214 5.89921588069e-06 0.0 0.0 0.0
6 1 14.535883278688525 0.1280906360655738 3.15321892884e-05 0.0 0.0 0.0
7 1 17.039468852459017 0.5150971803278689 7.422720269e-05 0.0 0.0 0.0
8 1 19.602836721311476 0.6265073442622952 8.20826141392e-05 0.0 0.0 0.0
9 1 22.36706098360656 0.601140262295082 4.40906618456e-05 0.0 0.0 0.0
10 1 25.05009442622951 0.808464655737705 2.38104043842e-05 0.0 0.0 0.0
11 1 27.707780983606558 0.5588382295081967 5.29807197571e-05 0.0 0.0 0.0
12 1 30.50320918032787 0.42558632131147545 7.2120243335e-05 0.0 0.0 0.0
13 1 33.14746491803279 0.9089938360655739 1.52995565611e-05 0.0 0.0 0.0
14 1 35.73910819672131 1.1271992131147541 7.67935184489e-05 0.0 0.0 0.0
15 1 38.50000000000001 1.356129049180328 1.79340549239e-05 0.0 0.0 0.0
16 1 41.80266885245902 1.5166828852459018 5.48554146989e-05 0.0 0.0 0.0
17 1 45.35875606557377 0.9706948196721312 9.85663107642e-05 0.0 0.0 0.0
18 1 46.90446163934427 0.8748310819672133 9.65907276441e-05 0.0 0.0 0.0
19 1 50.55542295081968 0.5838973114754099 1.71260644989e-05 0.0 0.0 0.0
20 1 52.09188852459017 0.5683963278688525 6.45172628952e-05 0.0 0.0 0.0
21 1 54.73866885245902 0.7729133770491804 9.88276573883e-05 0.0 0.0 0.0
22 1 57.45967213114754 0.8145539672131148 6.75364029278e-05 0.0 0.0 0.0
23 1 60.053940983606566 1.094525967213115 2.51124729939e-05 0.0 0.0 0.0
24 1 62.66335737704918 1.0929657704918034 8.60779710021e-05 0.0 0.0 0.0
25 1 65.38587540983606 0.8275758032786886 9.97585361807e-05 0.0 0.0 0.0
26 1 68.1179868852459 0.8122313442622952 2.5831764585e-05 0.0 0.0 0.0
27 1 70.88392786885247 0.8957296393442624 3.91882081617e-05 0.0 0.0 0.0
28 1 73.52969836065574 1.0304468196721313 5.02679013187e-05 0.0 0.0 0.0
29 1 76.21939672131148 1.0153295737704917 8.43137425605e-05 0.0 0.0 0.0
30 1 78.68390163934427 0.9692608524590165 4.83365680524e-05 0.0 0.0 0.0
31 1 81.39480655737707 0.8607438688524591 5.95041348356e-05 0.0 0.0 0.0
32 1 82.59903606557378 3.026382754098361 8.91220569909e-05 0.0 0.0 0.0
33 1 2.865924852459017 3.2893238688524593 2.80686786711e-05 0.0 0.0 0.0
34 1 5.399441967213115 2.972826098360656 5.97762968621e-05 0.0 0.0 0.0
35 1 7.415781639344263 2.1000601311475413 7.53816622023e-05 0.0 0.0 0.0
36 1 11.224832786885248 2.5518658360655744 8.08959533615e-05 0.0 0.0 0.0
37 1 13.524229508196722 2.533764524590164 1.41359075139e-05 0.0 0.0 0.0
38 1 15.794997377049182 4.032235016393443 3.01700445978e-05 0.0 0.0 0.0
39 1 18.586689180327873 2.971791016393443 8.17254305225e-05 0.0 0.0 0.0
40 1 21.323445901639346 2.7667993442622953 5.79829248965e-05 0.0 0.0 0.0
41 1 23.87959344262295 3.93917862295082 4.71671356085e-05 0.0 0.0 0.0
42 1 26.63674885245902 2.9796323934426234 2.60429998008e-05 0.0 0.0 0.0
43 1 29.345280655737707 2.6151522622950822 4.81602680161e-05 0.0 0.0 0.0
44 1 31.384139672131152 4.143892590163935 8.87335770081e-05 0.0 0.0 0.0
45 1 34.253184918032794 3.3990829508196727 3.71039129717e-05 0.0 0.0 0.0
46 1 36.989941639344266 3.422708065573771 7.74838828123e-05 0.0 0.0 0.0
47 1 39.22622360655738 2.712535803278689 9.80450331474e-05 0.0 0.0 0.0
48 1 42.71616655737705 3.8578716721311483 9.66863156039e-07 0.0 0.0 0.0
49 1 45.28660327868853 3.7125057704918034 3.24974112223e-05 0.0 0.0 0.0
50 1 48.0067986885246 3.3291265573770494 5.4055081501e-05 0.0 0.0 0.0
51 1 50.4852393442623 3.1562678688524595 9.50110053683e-05 0.0 0.0 0.0
52 1 53.194629508196726 2.9831213770491805 5.77139657579e-05 0.0 0.0 0.0
53 1 55.89392131147542 3.0307603934426233 8.87089800072e-05 0.0 0.0 0.0
54 1 58.608865573770494 3.272868590163935 1.85722636465e-05 0.0 0.0 0.0
55 1 61.14708852459017 3.3994464918032787 4.87175922613e-05 0.0 0.0 0.0
56 1 63.85344918032787 3.2535201311475417 3.88797377035e-05 0.0 0.0 0.0
57 1 66.97889180327869 3.1278157377049185 2.28461872381e-07 0.0 0.0 0.0
58 1 69.78775081967214 3.073234098360656 9.04677992195e-05 0.0 0.0 0.0
59 1 72.48754754098361 3.185164327868853 6.27791465815e-05 0.0 0.0 0.0
60 1 75.18582950819673 3.204790491803279 8.71017378615e-05 0.0 0.0 0.0
61 1 77.1237049180328 4.768168196721312 2.55543847917e-05 0.0 0.0 0.0
62 1 79.73261639344264 3.208314819672131 9.1497505613e-05 0.0 0.0 0.0
63 1 0.7342265573770492 4.3339083934426235 3.18019620504e-05 0.0 0.0 0.0
64 1 4.472720459016394 5.431655737704919 8.09014355147e-05 0.0 0.0 0.0
65 1 6.849415081967214 5.024656459016394 9.3853986413e-05 0.0 0.0 0.0
66 1 9.492105573770493 4.651022163934426 4.45132171406e-05 0.0 0.0 0.0
67 1 12.182056393442624 5.192779016393443 7.78693188831e-05 0.0 0.0 0.0
68 1 15.279980983606558 5.51976393442623 5.86613079084e-05 0.0 0.0 0.0
69 1 17.852285901639345 5.355312131147541 7.31544882303e-05 0.0 0.0 0.0
70 1 20.43241704918033 5.110325901639345 8.4060422338e-05 0.0 0.0 0.0
71 1 23.208052459016397 5.318705573770492 2.80956804383e-05 0.0 0.0 0.0
72 1 25.88108852459017 5.398230163934427 5.76350796915e-05 0.0 0.0 0.0
73 1 28.533422950819677 4.972624655737706 2.43116686152e-05 0.0 0.0 0.0
74 1 30.542744262295084 6.466384262295083 9.62084873001e-05 0.0 0.0 0.0
75 1 33.3189855737705 5.716984918032788 7.86101708724e-05 0.0 0.0 0.0
76 1 35.9831855737705 5.62448393442623 2.98986865533e-05 0.0 0.0 0.0
77 1 38.57730295081967 5.567428196721313 5.67481067944e-05 0.0 0.0 0.0
78 1 41.08154491803279 5.661898360655738 5.1122572567e-06 0.0 0.0 0.0
79 1 43.28515868852459 5.270586885245902 9.58564883757e-05 0.0 0.0 0.0
80 1 46.936473442622955 5.6901232786885245 6.3565868374e-05 0.0 0.0 0.0
81 1 49.45869049180329 5.64796262295082 9.06246221408e-05 0.0 0.0 0.0
82 1 52.00150819672131 5.344759344262296 2.00927403888e-05 0.0 0.0 0.0
83 1 54.543770491803286 5.276595409836066 9.0622217111e-05 0.0 0.0 0.0
84 1 57.19307540983608 5.368742950819672 4.69698871892e-05 0.0 0.0 0.0
85 1 59.76613770491804 5.727739672131148 2.29341619949e-06 0.0 0.0 0.0
86 1 62.3740393442623 5.560460327868854 7.87881453816e-05 0.0 0.0 0.0
87 1 64.63455737704918 4.5846153442622954 3.2484162077e-05 0.0 0.0 0.0
88 1 68.3032918032787 5.255035409836066 4.54164340315e-06 0.0 0.0 0.0
89 1 72.01292459016393 5.138702295081968 8.35827350533e-06 0.0 0.0 0.0
90 1 73.5428262295082 5.406308852459017 1.4875323846e-05 0.0 0.0 0.0
91 1 76.31230163934427 6.1402072131147545 1.57602763131e-05 0.0 0.0 0.0
92 1 78.91666885245903 5.822613770491804 6.99975355106e-05 0.0 0.0 0.0
93 1 81.45691147540984 5.159706885245902 1.406040767e-05 0.0 0.0 0.0
94 1 0.4994058426229509 7.255066229508198 9.55587864716e-05 0.0 0.0 0.0
95 1 3.2285014426229512 7.498739672131149 9.29735320932e-05 0.0 0.0 0.0
96 1 5.827612459016394 7.684902950819673 8.30874523445e-05 0.0 0.0 0.0
97 1 8.267881311475412 7.097430819672131 4.8262017095e-06 0.0 0.0 0.0
98 1 10.503052459016395 8.140793442622952 6.72283701396e-05 0.0 0.0 0.0
99 1 12.827341639344265 6.642903606557377 9.81105851748e-05 0.0 0.0 0.0
100 1 16.529855081967213 7.766800655737706 9.68522455338e-05 0.0 0.0 0.0
101 1 19.163204590163936 7.589069508196722 3.50156836467e-05 0.0 0.0 0.0
102 1 21.769036065573772 7.443350163934427 3.7866885174e-05 0.0 0.0 0.0
103 1 24.445909508196724 7.6311796721311485 3.1559646103e-05 0.0 0.0 0.0
104 1 27.18609967213115 7.492024262295083 4.06237456728e-06 0.0 0.0 0.0
105 1 29.782236721311477 7.793763278688526 5.09800332046e-05 0.0 0.0 0.0
106 1 32.371203934426234 8.075961967213116 1.25178853076e-05 0.0 0.0 0.0
107 1 34.96981508196721 7.928879344262296 2.80029257527e-05 0.0 0.0 0.0
108 1 37.47405704918034 7.968565901639345 7.91055511702e-05 0.0 0.0 0.0
109 1 40.06150950819673 8.03804262295082 9.54478981098e-05 0.0 0.0 0.0
110 1 42.727880655737714 7.994872131147542 2.02289540073e-05 0.0 0.0 0.0
111 1 45.48978229508197 7.98336 8.62749546481e-05 0.0 0.0 0.0
112 1 48.15145770491804 8.057078032786887 8.63174666165e-05 0.0 0.0 0.0
113 1 50.813940983606564 7.868693114754099 4.33942894776e-05 0.0 0.0 0.0
114 1 53.473344262295086 7.698131803278689 9.42019688416e-05 0.0 0.0 0.0
115 1 56.133757377049186 7.578870163934427 7.59076867667e-05 0.0 0.0 0.0
116 1 58.487685245901645 9.020764590163935 3.7061683633e-05 0.0 0.0 0.0
117 1 61.22181639344263 7.993710819672132 2.34460424047e-05 0.0 0.0 0.0
118 1 63.97917377049181 7.468848524590165 2.98116959516e-05 0.0 0.0 0.0
119 1 66.6128262295082 7.345699016393443 7.95657953211e-05 0.0 0.0 0.0
120 1 69.11974426229509 7.710552786885247 4.36756366893e-05 0.0 0.0 0.0
121 1 71.63423606557377 7.650518032786886 1.65523571657e-05 0.0 0.0 0.0
122 1 74.51226885245903 7.872984918032787 5.25875522619e-05 0.0 0.0 0.0
123 1 76.8232786885246 7.622444590163934 5.04228631538e-05 0.0 0.0 0.0
124 1 80.53796065573772 7.721055081967214 4.95224599177e-05 0.0 0.0 0.0
125 1 1.8117923278688528 9.585515409836066 1.85756276577e-05 0.0 0.0 0.0
126 1 4.501172590163935 9.971676721311475 3.10592011199e-05 0.0 0.0 0.0
127 1 7.304295737704919 9.823937704918032 9.57306353363e-05 0.0 0.0 0.0
128 1 10.115224918032789 9.613285901639346 3.12552809329e-05 0.0 0.0 0.0
129 1 12.391799344262298 10.869521967213116 6.30490119368e-05 0.0 0.0 0.0
130 1 15.09624131147541 9.812324590163934 5.28984477462e-05 0.0 0.0 0.0
131 1 17.778517377049184 9.992125901639346 3.24182692338e-05 0.0 0.0 0.0
132 1 20.43862754098361 9.869228852459017 6.74909015439e-05 0.0 0.0 0.0
133 1 23.02193967213115 9.82489704918033 9.07637873988e-05 0.0 0.0 0.0
134 1 25.63463803278689 9.776626885245902 2.11273054909e-05 0.0 0.0 0.0
135 1 28.281923278688527 9.982936393442625 8.64633681459e-05 0.0 0.0 0.0
136 1 31.17242754098361 10.21636 1.33156887108e-05 0.0 0.0 0.0
137 1 33.82592327868853 10.306487868852459 2.37026192043e-05 0.0 0.0 0.0
138 1 36.04115016393443 10.36662360655738 2.47883284585e-05 0.0 0.0 0.0
139 1 38.620220983606565 10.380710819672132 6.77694308004e-05 0.0 0.0 0.0
140 1 41.759144918032796 10.309062950819673 9.04951312246e-05 0.0 0.0 0.0
141 1 44.4029462295082 10.198536393442623 3.25986453603e-05 0.0 0.0 0.0
142 1 46.89926098360656 10.330521967213116 7.84623415955e-05 0.0 0.0 0.0
143 1 49.51357508196722 10.261146229508197 8.54962447407e-05 0.0 0.0 0.0
144 1 52.19590163934427 10.08432393442623 9.16952685807e-06 0.0 0.0 0.0
145 1 54.864393442622955 9.948652459016394 6.9111211052e-05 0.0 0.0 0.0
146 1 57.66618360655738 10.328199344262297 6.95418162913e-06 0.0 0.0 0.0
147 1 60.423036065573775 10.476342295081968 4.02710287945e-05 0.0 0.0 0.0
148 1 63.00114754098362 9.880993442622952 3.46722546549e-05 0.0 0.0 0.0
149 1 65.48281967213116 9.744312131147542 9.26398881492e-05 0.0 0.0 0.0
150 1 67.9877180327869 9.897756721311476 4.32250171812e-05 0.0 0.0 0.0
151 1 70.47746885245903 10.045647213114757 4.98746267532e-05 0.0 0.0 0.0
152 1 73.00559344262295 9.760772459016394 3.61195971912e-05 0.0 0.0 0.0
153 1 75.18431475409837 9.262670819672131 2.42363552652e-05 0.0 0.0 0.0
154 1 78.93787540983607 9.932545573770494 6.48382645701e-05 0.0 0.0 0.0
155 1 81.70381639344264 9.69129573770492 1.81973978371e-05 0.0 0.0 0.0
156 1 0.49856666885245904 11.763479344262295 5.78061119797e-05 0.0 0.0 0.0
157 1 2.2500409836065574 13.209564590163936 7.3286673261e-05 0.0 0.0 0.0
158 1 6.016956721311476 12.159032131147542 3.39993061677e-05 0.0 0.0 0.0
159 1 8.745079344262296 11.955550163934427 8.53794312468e-05 0.0 0.0 0.0
160 1 11.551464262295083 12.172210491803279 5.53173391334e-05 0.0 0.0 0.0
161 1 14.162344918032788 12.371148196721313 1.59775323101e-05 0.0 0.0 0.0
162 1 16.645329836065574 12.219167868852459 1.33901456774e-05 0.0 0.0 0.0
163 1 19.234852459016395 12.238203278688525 9.6942450928e-05 0.0 0.0 0.0
164 1 21.807207868852462 12.216138360655737 9.26236853609e-05 0.0 0.0 0.0
165 1 24.36941442622951 12.139037377049181 8.70354805632e-05 0.0 0.0 0.0
166 1 26.967773114754102 12.152821639344262 3.19361484893e-05 0.0 0.0 0.0
167 1 29.035765901639344 11.322433442622952 1.0599445941e-05 0.0 0.0 0.0
168 1 31.846240655737706 12.358070819672133 1.7880064602e-05 0.0 0.0 0.0
169 1 34.390169180327874 12.850870819672132 1.28199835282e-05 0.0 0.0 0.0
170 1 37.276937049180326 12.71545180327869 1.74041510478e-05 0.0 0.0 0.0
171 1 39.48544852459017 11.644318688524592 1.67196228438e-05 0.0 0.0 0.0
172 1 43.2283049180328 12.549081311475412 7.70439205029e-05 0.0 0.0 0.0
173 1 45.68165114754099 12.708736393442623 3.50576583309e-05 0.0 0.0 0.0
174 1 48.217349508196726 12.649660983606559 6.22985532953e-05 0.0 0.0 0.0
175 1 50.88866885245902 12.451127213114756 8.73364425967e-05 0.0 0.0 0.0
176 1 53.53292459016394 12.312476721311477 8.07763728471e-05 0.0 0.0 0.0
177 1 56.11154098360656 12.261227540983608 2.06888596209e-05 0.0 0.0 0.0
178 1 58.24532459016394 11.746615081967214 4.11883066814e-05 0.0 0.0 0.0
179 1 61.902950819672135 12.437393442622952 4.09249884065e-05 0.0 0.0 0.0
180 1 64.3568524590164 12.243757377049182 2.06191648724e-05 0.0 0.0 0.0
181 1 66.92486557377049 12.212099016393443 8.9470373064e-05 0.0 0.0 0.0
182 1 69.6271868852459 12.322019672131148 5.27811278313e-05 0.0 0.0 0.0
183 1 72.31940983606557 12.161203278688525 3.34573678464e-05 0.0 0.0 0.0
184 1 74.75361967213115 13.255411147540986 8.19169620523e-05 0.0 0.0 0.0
185 1 77.56803278688525 12.153680000000001 1.98319763587e-05 0.0 0.0 0.0
186 1 80.40819672131148 11.981351475409836 9.76989692849e-05 0.0 0.0 0.0
187 1 1.4007739016393443 14.476302950819674 8.86779578662e-05 0.0 0.0 0.0
188 1 3.603584852459017 13.89741442622951 2.94695745705e-06 0.0 0.0 0.0
189 1 7.089655081967214 14.293371147540984 9.76543231943e-05 0.0 0.0 0.0
190 1 9.868118032786887 14.25817836065574 9.934561082e-05 0.0 0.0 0.0
191 1 12.665868852459019 14.585314754098363 3.21335195532e-05 0.0 0.0 0.0
192 1 15.657861639344263 14.72820655737705 3.68873355871e-05 0.0 0.0 0.0
193 1 18.22491540983607 14.584759344262297 2.86072543441e-05 0.0 0.0 0.0
194 1 20.62443737704918 14.603845245901642 5.7915182972e-05 0.0 0.0 0.0
195 1 23.29409049180328 14.548758688524591 3.60343980016e-05 0.0 0.0 0.0
196 1 25.911939016393443 14.456005245901641 1.91637570634e-05 0.0 0.0 0.0
197 1 27.769179016393444 16.1569731147541 4.35347567582e-05 0.0 0.0 0.0
198 1 30.185767213114755 15.04236655737705 8.04649626258e-05 0.0 0.0 0.0
199 1 32.895864262295085 14.933152786885246 4.67070940649e-06 0.0 0.0 0.0
200 1 35.057115409836065 14.232074098360657 4.71116316193e-05 0.0 0.0 0.0
201 1 38.80189049180328 14.524775081967215 7.68153816233e-06 0.0 0.0 0.0
202 1 41.48068262295082 14.484482622950821 1.86802866206e-05 0.0 0.0 0.0
203 1 44.14427672131148 15.077306885245903 1.67482711233e-05 0.0 0.0 0.0
204 1 47.05992590163935 15.10714754098361 6.22194324131e-05 0.0 0.0 0.0
205 1 49.730942295081974 14.831613770491806 1.60631756098e-05 0.0 0.0 0.0
206 1 52.303449180327874 14.688318032786887 9.28831602664e-05 0.0 0.0 0.0
207 1 55.03909508196722 14.628737704918034 8.94689640419e-05 0.0 0.0 0.0
208 1 57.666688524590164 14.558150163934426 4.06398732103e-05 0.0 0.0 0.0
209 1 60.402334426229515 14.687661639344265 7.14994061894e-05 0.0 0.0 0.0
210 1 62.97792131147541 14.76284393442623 6.50016886134e-05 0.0 0.0 0.0
211 1 65.60854426229508 14.594100327868855 2.98806226395e-05 0.0 0.0 0.0
212 1 68.33358688524592 14.518665573770493 4.28815381563e-05 0.0 0.0 0.0
213 1 71.14244590163935 14.528410491803282 1.51766524778e-05 0.0 0.0 0.0
214 1 73.8397180327869 14.524017704918034 7.20637289003e-05 0.0 0.0 0.0
215 1 76.23908852459017 14.723409836065576 7.17925275683e-05 0.0 0.0 0.0
216 1 80.0153704918033 13.959165901639345 3.04790390256e-05 0.0 0.0 0.0
217 1 81.56142950819672 14.038135081967216 6.2401237346e-05 0.0 0.0 0.0
218 1 0.13801379016393445 16.65790229508197 3.92917149878e-05 0.0 0.0 0.0
219 1 2.7555901639344262 16.70026491803279 9.76676090495e-05 0.0 0.0 0.0
220 1 5.353544918032788 16.30203606557377 1.19507408226e-05 0.0 0.0 0.0
221 1 7.587100327868853 15.741779016393444 6.55998527521e-05 0.0 0.0 0.0
222 1 11.064874754098362 16.49158229508197 5.62326056427e-05 0.0 0.0 0.0
223 1 13.368664262295084 15.940514754098361 6.83367347402e-05 0.0 0.0 0.0
224 1 17.00700262295082 17.01245573770492 3.06087044361e-05 0.0 0.0 0.0
225 1 19.45343147540984 17.112883934426232 2.52717064506e-05 0.0 0.0 0.0
226 1 21.936769836065576 16.864009836065577 9.85289593838e-05 0.0 0.0 0.0
227 1 24.520889836065578 16.856739016393444 1.99715555292e-05 0.0 0.0 0.0
228 1 27.084358688524592 17.506467540983607 4.41241723638e-05 0.0 0.0 0.0
229 1 29.776379672131153 17.683390819672134 2.73545780043e-05 0.0 0.0 0.0
230 1 32.20331868852459 17.176604590163937 8.97101149525e-05 0.0 0.0 0.0
231 1 34.678022950819674 17.067491803278692 5.58758395077e-06 0.0 0.0 0.0
232 1 37.21518557377049 16.827807213114756 3.49623572735e-05 0.0 0.0 0.0
233 1 39.954517377049186 16.75444262295082 2.91256101887e-07 0.0 0.0 0.0
234 1 42.623615081967216 16.981049836065576 1.50807352325e-05 0.0 0.0 0.0
235 1 44.75144065573771 16.499509508196724 4.71492761572e-05 0.0 0.0 0.0
236 1 48.437039344262296 17.22835868852459 1.36721118783e-05 0.0 0.0 0.0
237 1 51.08407213114754 17.128586885245902 2.37110829999e-05 0.0 0.0 0.0
238 1 53.7232786885246 16.869816393442626 8.15937508403e-05 0.0 0.0 0.0
239 1 56.43771803278689 16.930204590163935 8.52764215802e-05 0.0 0.0 0.0
240 1 59.01229508196722 16.859465573770496 2.21431786178e-05 0.0 0.0 0.0
241 1 61.64796721311476 17.11944786885246 8.18918583798e-05 0.0 0.0 0.0
242 1 64.25586885245903 16.996601311475413 3.59588149372e-05 0.0 0.0 0.0
243 1 66.94304262295083 16.789534426229512 4.37495398051e-05 0.0 0.0 0.0
244 1 69.57820983606557 16.67481704918033 9.75990483871e-05 0.0 0.0 0.0
245 1 72.26437377049182 16.84583278688525 9.08563838307e-05 0.0 0.0 0.0
246 1 74.93488524590164 17.095060327868854 2.38754184278e-05 0.0 0.0 0.0
247 1 76.98788196721313 16.055585573770493 9.83529177086e-05 0.0 0.0 0.0
248 1 80.45515409836065 16.83533049180328 9.81675180131e-05 0.0 0.0 0.0
249 1 1.4290644590163937 19.02788655737705 2.76936981939e-05 0.0 0.0 0.0
250 1 4.137353901639345 18.82652524590164 7.35925881575e-05 0.0 0.0 0.0
251 1 6.793066229508197 18.559474098360656 4.99876534403e-05 0.0 0.0 0.0
252 1 9.481300327868853 18.568108196721315 3.4208829028e-05 0.0 0.0 0.0
253 1 12.236688524590164 18.658539016393444 9.70778913374e-05 0.0 0.0 0.0
254 1 15.137139672131148 18.926953442622953 5.9435192657e-05 0.0 0.0 0.0
255 1 17.898233442622953 19.517101639344265 8.38959113988e-05 0.0 0.0 0.0
256 1 21.370655737704922 19.31245836065574 3.13994304295e-05 0.0 0.0 0.0
257 1 22.909797377049184 19.179563934426234 5.94653967754e-05 0.0 0.0 0.0
258 1 25.551629508196722 19.450603934426233 2.01775682664e-06 0.0 0.0 0.0
259 1 28.450363934426232 19.793796721311477 3.28395613108e-05 0.0 0.0 0.0
260 1 31.238723278688525 19.816164590163936 6.14365809521e-05 0.0 0.0 0.0
261 1 33.74347016393443 19.586628852459018 7.1452986792e-05 0.0 0.0 0.0
262 1 36.08851147540984 19.38158163934426 6.97018606207e-06 0.0 0.0 0.0
263 1 38.670207868852465 18.999560655737707 5.69950724351e-05 0.0 0.0 0.0
264 1 41.23438360655738 19.117913442622953 9.1503844879e-05 0.0 0.0 0.0
265 1 43.76881967213115 19.363960000000002 4.97514664914e-05 0.0 0.0 0.0
266 1 46.78201901639345 19.335381639344263 3.87506171037e-05 0.0 0.0 0.0
267 1 49.59340262295082 19.4679731147541 1.82922486341e-05 0.0 0.0 0.0
268 1 53.05072786885246 19.178200655737704 6.9298219804e-05 0.0 0.0 0.0
269 1 54.578609836065574 19.05181967213115 3.09485344063e-05 0.0 0.0 0.0
270 1 58.11101639344263 19.227834098360656 1.34794098335e-05 0.0 0.0 0.0
271 1 60.5300786885246 20.451250491803282 9.23665743351e-05 0.0 0.0 0.0
272 1 63.28895081967214 19.401424918032788 4.96513699542e-05 0.0 0.0 0.0
273 1 65.80394754098361 19.139422950819675 4.55262528937e-05 0.0 0.0 0.0
274 1 68.31339016393443 19.035005901639344 6.84589320703e-06 0.0 0.0 0.0
275 1 70.81071475409836 19.00567016393443 2.54341688788e-05 0.0 0.0 0.0
276 1 72.82735737704918 18.2883331147541 2.78935020554e-05 0.0 0.0 0.0
277 1 76.37743606557378 19.000974426229508 7.64024226503e-05 0.0 0.0 0.0
278 1 78.90758032786886 19.1130662295082 4.34538138295e-05 0.0 0.0 0.0
279 1 81.45388196721312 19.240255081967213 8.61883447631e-05 0.0 0.0 0.0
280 1 0.13487471475409837 21.44407081967213 2.46805153186e-05 0.0 0.0 0.0
281 1 2.855028721311476 21.19928655737705 2.45250608628e-05 0.0 0.0 0.0
282 1 5.495022950819672 21.007266229508197 3.13736783604e-05 0.0 0.0 0.0
283 1 8.070963278688525 20.86891868852459 1.40393014864e-05 0.0 0.0 0.0
284 1 10.623424918032788 20.841703606557378 9.93452333449e-05 0.0 0.0 0.0
285 1 13.061977049180328 20.722189508196724 3.1730639879e-05 0.0 0.0 0.0
286 1 15.814032786885248 21.297644590163937 9.70713874568e-05 0.0 0.0 0.0
287 1 18.5439731147541 22.042196721311477 9.10541266792e-05 0.0 0.0 0.0
288 1 21.314256393442623 22.049871475409837 4.73811874039e-05 0.0 0.0 0.0
289 1 24.435861639344264 21.607613770491806 5.43346761411e-05 0.0 0.0 0.0
290 1 27.29177901639345 21.569845901639344 4.50313410481e-05 0.0 0.0 0.0
291 1 29.893167213114758 21.954643934426233 4.40890745673e-05 0.0 0.0 0.0
292 1 32.61856327868853 22.117833442622953 4.3324664271e-05 0.0 0.0 0.0
293 1 35.03661573770492 22.07254229508197 1.49868391133e-05 0.0 0.0 0.0
294 1 38.31035278688525 21.285072131147544 5.14649076467e-05 0.0 0.0 0.0
295 1 39.835508196721314 21.39479081967213 1.38695968943e-05 0.0 0.0 0.0
296 1 42.27123278688525 21.60438229508197 1.94248470905e-05 0.0 0.0 0.0
297 1 44.38325442622951 20.784496393442623 7.22950616844e-05 0.0 0.0 0.0
298 1 47.82593704918033 21.484767213114758 7.49164287551e-05 0.0 0.0 0.0
299 1 50.18238950819673 22.037349508196726 9.87751268471e-05 0.0 0.0 0.0
300 1 52.6720393442623 21.875977704918036 8.25142712012e-05 0.0 0.0 0.0
301 1 55.35365901639345 21.641140327868854 6.56484951357e-05 0.0 0.0 0.0
302 1 57.138039344262296 20.431356721311477 1.86451736255e-05 0.0 0.0 0.0
303 1 62.05745573770493 21.823112786885247 8.68834430584e-05 0.0 0.0 0.0
304 1 65.50604590163934 21.431245901639347 9.47225808734e-06 0.0 0.0 0.0
305 1 67.05160000000001 21.47961704918033 4.98704970146e-05 0.0 0.0 0.0
306 1 69.63476065573772 21.416098360655738 5.80487238657e-05 0.0 0.0 0.0
307 1 72.2997180327869 21.22816786885246 9.50377297287e-05 0.0 0.0 0.0
308 1 74.99143606557378 21.395144262295084 3.62708026584e-05 0.0 0.0 0.0
309 1 77.66396721311476 21.421147540983608 6.61825990916e-05 0.0 0.0 0.0
310 1 80.04415081967214 22.588619016393444 6.86232489322e-05 0.0 0.0 0.0
311 1 1.7513990819672134 23.564221639344265 2.32017530911e-05 0.0 0.0 0.0
312 1 4.299755737704919 23.431377704918035 5.76855513815e-05 0.0 0.0 0.0
313 1 6.828410491803279 23.318579016393443 6.01236644764e-05 0.0 0.0 0.0
314 1 9.353505573770493 23.252283278688527 5.05155381362e-06 0.0 0.0 0.0
315 1 11.884861639344264 23.243245245901644 1.45491382001e-06 0.0 0.0 0.0
316 1 14.228640655737706 23.06617049180328 3.01519284719e-05 0.0 0.0 0.0
317 1 16.457954754098363 24.15800524590164 7.24501409425e-05 0.0 0.0 0.0
318 1 19.944615737704922 24.160883278688527 6.48871371852e-05 0.0 0.0 0.0
319 1 22.12212524590164 23.39578098360656 2.13248165231e-05 0.0 0.0 0.0
320 1 25.727492459016396 23.58795278688525 1.77445809606e-05 0.0 0.0 0.0
321 1 28.197400000000002 24.022687213114754 3.75163033388e-05 0.0 0.0 0.0
322 1 30.88669442622951 24.218948852459018 9.42802845414e-05 0.0 0.0 0.0
323 1 33.58209836065574 24.6224793442623 2.53383628116e-05 0.0 0.0 0.0
324 1 36.91677901639345 24.392186229508198 2.46981249085e-05 0.0 0.0 0.0
325 1 38.41699147540984 24.10185836065574 8.70950471147e-05 0.0 0.0 0.0
326 1 41.01666295081968 23.98128393442623 3.22850143652e-05 0.0 0.0 0.0
327 1 43.765891147540984 23.748567213114757 4.99339362069e-05 0.0 0.0 0.0
328 1 46.266598688524596 23.607695081967215 9.2427878303e-05 0.0 0.0 0.0
329 1 48.605076065573776 25.128053770491803 5.68613139707e-05 0.0 0.0 0.0
330 1 51.51274754098362 24.35487278688525 8.62127511329e-06 0.0 0.0 0.0
331 1 54.33422950819673 23.980829508196724 3.74977111894e-05 0.0 0.0 0.0
332 1 57.10168524590164 23.472074098360658 8.10497073659e-05 0.0 0.0 0.0
333 1 59.92417704918033 23.41188786885246 9.1458140685e-05 0.0 0.0 0.0
334 1 62.6704262295082 24.14765442622951 7.67659719047e-05 0.0 0.0 0.0
335 1 65.31821639344263 24.225310819672135 3.85037120333e-05 0.0 0.0 0.0
336 1 69.13135737704918 23.65091606557377 7.41153305465e-05 0.0 0.0 0.0
337 1 70.69104918032788 23.588558688524593 4.08417272472e-05 0.0 0.0 0.0
338 1 73.2580524590164 23.597647213114755 1.8343054189e-05 0.0 0.0 0.0
339 1 76.07499016393443 23.760584262295087 8.42328807122e-05 0.0 0.0 0.0
340 1 79.36958032786886 23.979769180327875 2.63059953184e-05 0.0 0.0 0.0
341 1 81.93052459016394 23.841421639344265 5.1527594243e-05 0.0 0.0 0.0
342 1 0.44186437377049187 26.07639081967213 9.29283941116e-05 0.0 0.0 0.0
343 1 3.0468066885245904 25.88563278688525 2.35756969312e-05 0.0 0.0 0.0
344 1 5.619586229508197 25.78687081967213 6.39069530079e-05 0.0 0.0 0.0
345 1 8.143267540983608 25.698308196721314 7.05924959901e-05 0.0 0.0 0.0
346 1 10.725216393442624 25.648220327868852 2.55301807049e-05 0.0 0.0 0.0
347 1 13.381792131147542 25.64231278688525 1.93023309474e-05 0.0 0.0 0.0
348 1 16.053262950819676 25.65195672131148 6.32386420075e-05 0.0 0.0 0.0
349 1 18.585073442622953 26.201761967213116 2.61608037469e-05 0.0 0.0 0.0
350 1 21.342077377049183 26.22246360655738 8.59500013918e-05 0.0 0.0 0.0
351 1 23.82506229508197 25.826759344262296 1.9678444582e-05 0.0 0.0 0.0
352 1 26.43771016393443 26.14001049180328 2.57026150977e-05 0.0 0.0 0.0
353 1 29.1908262295082 26.33031409836066 5.80232625737e-05 0.0 0.0 0.0
354 1 31.948385573770494 26.612310819672135 9.53305011977e-05 0.0 0.0 0.0
355 1 33.930390819672134 26.147180327868853 7.35467557701e-05 0.0 0.0 0.0
356 1 37.368680655737705 27.21543540983607 2.304338009e-05 0.0 0.0 0.0
357 1 39.81813901639345 26.445031475409838 8.03542355714e-05 0.0 0.0 0.0
358 1 42.439118032786894 26.127387540983612 1.49176844827e-05 0.0 0.0 0.0
359 1 45.01520983606557 26.195248524590166 1.00622335551e-06 0.0 0.0 0.0
360 1 47.80059016393443 26.442658360655738 7.35337772013e-05 0.0 0.0 0.0
361 1 50.459236065573776 26.574139016393445 4.548982561e-06 0.0 0.0 0.0
362 1 53.18150163934427 26.277247213114755 6.86304291209e-06 0.0 0.0 0.0
363 1 55.89392131147542 25.907748196721315 7.92274786937e-06 0.0 0.0 0.0
364 1 58.4316393442623 25.635142950819674 6.11248458324e-05 0.0 0.0 0.0
365 1 61.029442622950825 25.867001311475413 9.23544949879e-05 0.0 0.0 0.0
366 1 63.620681967213116 26.447455081967217 8.10808006116e-05 0.0 0.0 0.0
367 1 66.20485245901641 26.40019475409836 1.75809510311e-05 0.0 0.0 0.0
368 1 68.8228524590164 26.348188196721317 7.61058579661e-05 0.0 0.0 0.0
369 1 72.05836721311476 26.053720000000002 1.60395730664e-05 0.0 0.0 0.0
370 1 74.70767213114755 25.819740983606557 7.25285619592e-05 0.0 0.0 0.0
371 1 76.83691147540983 25.11452196721312 2.38281249749e-05 0.0 0.0 0.0
372 1 80.47434098360657 26.22059540983607 3.27648034776e-05 0.0 0.0 0.0
373 1 1.645845967213115 28.303584262295082 6.39107962089e-05 0.0 0.0 0.0
374 1 4.333095475409837 28.211083278688527 2.48906530719e-05 0.0 0.0 0.0
375 1 6.951509508196722 28.16200524590164 9.18569591383e-05 0.0 0.0 0.0
376 1 9.458831475409836 28.04345049180328 8.87065451718e-05 0.0 0.0 0.0
377 1 12.13984524590164 27.949384262295087 5.21611397911e-06 0.0 0.0 0.0
378 1 14.733407213114756 27.957160000000005 9.15789096577e-05 0.0 0.0 0.0
379 1 17.246030819672136 28.24183278688525 2.51503741692e-05 0.0 0.0 0.0
380 1 19.951533114754103 28.388208524590166 4.1769477841e-05 0.0 0.0 0.0
381 1 22.71272786885246 28.409213114754102 5.00782576819e-05 0.0 0.0 0.0
382 1 25.147341639344265 28.342816393442625 8.50816076933e-05 0.0 0.0 0.0
383 1 27.6562793442623 28.41426229508197 9.35390800644e-05 0.0 0.0 0.0
384 1 30.550772459016397 28.61567409836066 7.57667301053e-05 0.0 0.0 0.0
385 1 33.20563147540984 29.081662950819677 5.96217346617e-05 0.0 0.0 0.0
386 1 35.88563540983607 29.54760131147541 3.32277820988e-05 0.0 0.0 0.0
387 1 38.737563934426234 29.191735081967217 6.69346983162e-05 0.0 0.0 0.0
388 1 41.44422754098361 28.598860327868856 8.70211442611e-05 0.0 0.0 0.0
389 1 43.81108131147541 29.790769836065575 8.68615084834e-05 0.0 0.0 0.0
390 1 46.440088524590166 28.559678688524595 2.15817360471e-05 0.0 0.0 0.0
391 1 49.23667803278689 28.7771468852459 1.33285296747e-06 0.0 0.0 0.0
392 1 51.90153442622952 28.63481049180328 9.92834625515e-05 0.0 0.0 0.0
393 1 54.706859016393445 28.311763934426235 7.37788008551e-05 0.0 0.0 0.0
394 1 57.3960524590164 28.160742950819674 1.72530507444e-05 0.0 0.0 0.0
395 1 59.885298360655746 28.056426885245905 1.06150641962e-06 0.0 0.0 0.0
396 1 62.181160655737706 29.55002491803279 7.1396963316e-06 0.0 0.0 0.0
397 1 64.9577049180328 28.768058360655743 1.17756336468e-05 0.0 0.0 0.0
398 1 67.68678688524591 28.653896393442626 8.16125213807e-05 0.0 0.0 0.0
399 1 69.84379672131148 27.51141836065574 4.71248590641e-05 0.0 0.0 0.0
400 1 73.60190163934428 28.211638688524594 9.72826608287e-05 0.0 0.0 0.0
401 1 76.15224262295082 28.034967868852462 2.83332841132e-05 0.0 0.0 0.0
402 1 78.78135081967214 28.114441967213114 7.96690602233e-05 0.0 0.0 0.0
403 1 81.56496393442623 28.399518688524594 2.33364923352e-05 0.0 0.0 0.0
404 1 0.1858714360655738 30.54299672131148 6.99992900751e-05 0.0 0.0 0.0
405 1 2.9461260327868857 30.53476655737705 8.10819422009e-05 0.0 0.0 0.0
406 1 5.674672786885246 30.534665573770493 8.33612940017e-05 0.0 0.0 0.0
407 1 8.346598032786886 30.540169180327872 5.47057856605e-05 0.0 0.0 0.0
408 1 10.921377049180329 30.263322622950824 4.64877210552e-05 0.0 0.0 0.0
409 1 13.537912786885247 30.3074524590164 9.77873302841e-05 0.0 0.0 0.0
410 1 16.045386229508196 30.489980327868857 4.63190882399e-05 0.0 0.0 0.0
411 1 18.60835016393443 30.548197377049185 3.60180127794e-05 0.0 0.0 0.0