ITEM: TIMESTEP
0
ITEM: NUMBER OF ATOMS
2232
ITEM: BOX BOUNDS xy xz yz pp pp pp
0.0 82.68810555352132 0
0.0 83.16 0
-10.0 10.0 0
ITEM: ATOMS id type x y z vx vy vz
1 1 1.465044918032787 0.7624413770491804 2.42641547482e-05 0.0 0.0 0.0
2 1 4.086271344262296 0.7441431475409837 3.06099414179e-05 0.0 0.0 0.0
3 1 6.699706885245902 0.7352414426229509 4.31924537678e-05 0.0 0.0 0.0
4 1 9.313263606557378 0.7184630163934427 3.42556063276e-05 0.0 0.0 0.0
5 1 11.932475409836067 0.6880114098360656 9.38377542026e-05 0.0 0.0 0.0
6 1 14.655346885245905 0.8840458360655739 7.7616338891e-05 0.0 0.0 0.0
7 1 18.64763278688525 0.3412725836065574 9.32220950837e-05 0.0 0.0 0.0
8 1 20.18899606557377 0.3289758098360656 8.3848988377e-05 0.0 0.0 0.0
9 1 22.8066931147541 0.4696328459016394 3.94296992982e-05 0.0 0.0 0.0
10 1 25.45781573770492 0.47435382950819677 2.39315979425e-05 0.0 0.0 0.0
11 1 28.10540393442623 0.5807415737704918 4.80100389383e-05 0.0 0.0 0.0
12 1 30.804190819672133 0.6736060983606558 5.99527538079e-05 0.0 0.0 0.0
13 1 33.48783016393443 0.6438866229508198 1.62315964227e-05 0.0 0.0 0.0
14 1 36.13940721311476 0.6390444590163935 6.90233733294e-05 0.0 0.0 0.0
15 1 38.784167868852464 0.8012291803278689 8.31863422748e-05 0.0 0.0 0.0
16 1 41.43433114754099 0.9796419672131148 5.59007214492e-05 0.0 0.0 0.0
17 1 44.01456327868853 1.0535518688524592 2.68364732953e-05 0.0 0.0 0.0
18 1 46.51865377049181 1.2759228196721313 6.39781566223e-05 0.0 0.0 0.0
19 1 49.027894426229516 1.1411147540983606 4.44883069455e-07 0.0 0.0 0.0
20 1 51.76217704918034 0.8826472131147541 7.16792329751e-06 0.0 0.0 0.0
21 1 54.46954754098361 0.8288885901639345 5.59390997222e-05 0.0 0.0 0.0
22 1 57.20014426229509 0.840804655737705 5.56586691665e-06 0.0 0.0 0.0
23 1 59.925186885245914 0.8448187540983607 9.19045996095e-05 0.0 0.0 0.0
24 1 62.6088262295082 0.8224912786885247 6.45456035779e-05 0.0 0.0 0.0
25 1 65.23641967213115 0.7816636065573771 6.26044729886e-05 0.0 0.0 0.0
26 1 67.9412655737705 0.9775112131147542 7.26038313982e-05 0.0 0.0 0.0
27 1 70.94148852459017 0.9548353442622952 2.75290007192e-05 0.0 0.0 0.0
28 1 73.63320655737705 0.7508888524590165 2.33007031101e-05 0.0 0.0 0.0
29 1 76.23504918032788 0.8050817049180328 3.38278086058e-05 0.0 0.0 0.0
30 1 78.87274098360656 0.8292319344262296 1.50333359552e-05 0.0 0.0 0.0
31 1 81.51851147540985 0.7984268852459017 3.03429033195e-05 0.0 0.0 0.0
32 1 0.13821727213114754 3.12037324590164 4.34169475213e-05 0.0 0.0 0.0
33 1 2.7787558032786888 3.1060739672131152 2.62706585144e-05 0.0 0.0 0.0
34 1 5.390656393442623 3.09793468852459 1.97666401609e-05 0.0 0.0 0.0
35 1 7.98876262295082 3.081383475409836 5.19794786295e-05 0.0 0.0 0.0
36 1 10.575407213114756 3.0436509508196723 4.94503637786e-06 0.0 0.0 0.0
37 1 13.15281180327869 3.0021315409836067 1.69031466988e-06 0.0 0.0 0.0
38 1 15.304822950819673 2.284016918032787 9.81257573036e-05 0.0 0.0 0.0
39 1 18.88630754098361 3.0911031475409843 1.48607403847e-05 0.0 0.0 0.0
40 1 21.483353442622953 2.7684756721311476 1.35618322558e-05 0.0 0.0 0.0
41 1 24.07767278688525 2.803001967213115 6.65690537558e-05 0.0 0.0 0.0
42 1 26.70728590163935 2.849050491803279 6.69579919498e-05 0.0 0.0 0.0
43 1 29.37284918032787 2.902344590163935 3.74048050779e-05 0.0 0.0 0.0
44 1 32.0583062295082 2.943576196721312 7.77729692804e-05 0.0 0.0 0.0
45 1 34.71826491803279 2.9537957377049184 6.66953214616e-05 0.0 0.0 0.0
46 1 37.37322491803279 3.0309775081967216 7.90015864165e-05 0.0 0.0 0.0
47 1 40.04499868852459 3.198938491803279 9.65249097538e-05 0.0 0.0 0.0
48 1 42.65118360655738 3.383541573770492 3.92125715534e-05 0.0 0.0 0.0
49 1 45.2002118032787 3.564776852459017 1.1266807177e-05 0.0 0.0 0.0
50 1 47.83886295081968 3.602549770491804 6.56222571296e-05 0.0 0.0 0.0
51 1 50.47938229508197 3.2633054426229515 6.65138928802e-05 0.0 0.0 0.0
52 1 53.13858360655738 3.1428521967213117 3.91801627202e-05 0.0 0.0 0.0
53 1 55.84191475409837 3.0993888524590165 6.08385484853e-05 0.0 0.0 0.0
54 1 58.57251147540985 3.1092145573770495 2.87390201607e-05 0.0 0.0 0.0
55 1 61.28139672131148 3.134712918032787 8.36791020964e-05 0.0 0.0 0.0
56 1 63.9216131147541 3.1437206557377055 2.51271676976e-05 0.0 0.0 0.0
57 1 66.50679344262295 3.1219889836065575 9.64779991632e-05 0.0 0.0 0.0
58 1 68.67036721311476 2.3430620327868854 1.6232960819e-06 0.0 0.0 0.0
59 1 72.35424918032788 3.1029030819672134 3.08046626881e-06 0.0 0.0 0.0
60 1 74.9288262295082 3.135339016393443 4.28690222731e-05 0.0 0.0 0.0
61 1 77.53672786885247 3.1519912131147545 2.85647733619e-05 0.0 0.0 0.0
62 1 80.1764393442623 3.1435338360655742 1.03644717508e-05 0.0 0.0 0.0
63 1 1.4676755409836066 5.449024918032787 8.81309494586e-05 0.0 0.0 0.0
64 1 4.120317967213115 5.46240524590164 7.78752061714e-05 0.0 0.0 0.0
65 1 6.727022950819673 5.45740655737705 9.74719192578e-05 0.0 0.0 0.0
66 1 9.357494426229508 5.432312131147542 2.8093969325e-05 0.0 0.0 0.0
67 1 12.009525901639345 5.377680000000001 3.32942947912e-05 0.0 0.0 0.0
68 1 14.683824262295085 5.166725245901639 7.48888206912e-05 0.0 0.0 0.0
69 1 17.416238688524594 5.371318032786886 2.56953906917e-05 0.0 0.0 0.0
70 1 20.11916590163935 5.251450491803279 1.27411052939e-05 0.0 0.0 0.0
71 1 22.71802950819672 5.159050491803279 2.31855219864e-06 0.0 0.0 0.0
72 1 25.328809180327873 5.1659678688524595 1.35654070833e-05 0.0 0.0 0.0
73 1 27.971449180327873 5.182175737704919 9.3803893925e-05 0.0 0.0 0.0
74 1 30.64650491803279 5.20944131147541 9.64302354367e-05 0.0 0.0 0.0
75 1 33.336001311475414 5.255893770491804 7.74087489668e-05 0.0 0.0 0.0
76 1 35.97460196721312 5.296792131147541 1.39734261106e-05 0.0 0.0 0.0
77 1 38.631278688524596 5.397927213114754 3.73311200317e-06 0.0 0.0 0.0
78 1 41.31284786885246 5.635491147540984 7.13494017865e-05 0.0 0.0 0.0
79 1 43.83511540983607 5.86204786885246 9.24393068472e-06 0.0 0.0 0.0
80 1 46.46806098360656 5.901936393442623 9.37582577018e-05 0.0 0.0 0.0
81 1 49.1580118032787 5.733950163934426 6.54298802222e-05 0.0 0.0 0.0
82 1 51.81367868852459 5.522137049180328 7.65200866863e-05 0.0 0.0 0.0
83 1 54.48570491803279 5.404440655737705 6.31706101422e-05 0.0 0.0 0.0
84 1 57.206203278688534 5.3601593442622955 2.00553238853e-05 0.0 0.0 0.0
85 1 59.97062950819672 5.398583606557378 1.1007308672e-05 0.0 0.0 0.0
86 1 62.696177049180335 5.473260983606558 3.09510841297e-05 0.0 0.0 0.0
87 1 65.3656786885246 5.495073442622951 2.05597323842e-05 0.0 0.0 0.0
88 1 68.07001967213115 5.250491147540984 7.30896375738e-05 0.0 0.0 0.0
89 1 70.79910163934427 5.231203278688525 2.95707906271e-05 0.0 0.0 0.0
90 1 73.48829508196721 5.483359344262295 2.6748626283e-05 0.0 0.0 0.0
91 1 76.1497180327869 5.498759344262296 2.28284370511e-06 0.0 0.0 0.0
92 1 78.80508196721311 5.481390163934427 6.89309242839e-05 0.0 0.0 0.0
93 1 81.4781180327869 5.459022295081968 4.41345403694e-05 0.0 0.0 0.0
94 1 0.1303041967213115 7.7576616393442634 3.76965361632e-05 0.0 0.0 0.0
95 1 2.812777180327869 7.782756065573771 7.26891059174e-05 0.0 0.0 0.0
96 1 5.4861363934426235 7.828653114754099 3.23656055906e-05 0.0 0.0 0.0
97 1 8.091260983606558 7.787906229508197 7.27222195932e-05 0.0 0.0 0.0
98 1 10.810749508196723 7.720752131147542 3.74562385635e-05 0.0 0.0 0.0
99 1 13.375480655737707 7.5723567213114755 1.27300535003e-05 0.0 0.0 0.0
100 1 16.07492393442623 7.505000655737706 7.87089954667e-05 0.0 0.0 0.0
101 1 18.742506885245906 7.580738360655738 3.9728470033e-05 0.0 0.0 0.0
102 1 21.35263016393443 7.564631475409836 9.2248708154e-05 0.0 0.0 0.0
103 1 23.96346032786885 7.51944131147541 7.70226289919e-05 0.0 0.0 0.0
104 1 26.59090229508197 7.5017186885245914 9.0839377249e-05 0.0 0.0 0.0
105 1 29.249901639344266 7.491519344262295 4.08255610682e-05 0.0 0.0 0.0
106 1 31.951516065573774 7.511413114754099 4.81534932842e-05 0.0 0.0 0.0
107 1 34.67979016393443 7.599470819672132 2.85845688149e-05 0.0 0.0 0.0
108 1 37.255326557377046 7.642186885245903 7.30483031144e-05 0.0 0.0 0.0
109 1 39.857118688524594 7.774071475409836 6.14681293877e-05 0.0 0.0 0.0
110 1 42.41589180327869 8.166140327868854 2.26127250672e-05 0.0 0.0 0.0
111 1 45.057673442622956 8.219459672131148 3.84726475052e-05 0.0 0.0 0.0
112 1 47.78281704918033 8.100097049180329 2.24044362602e-05 0.0 0.0 0.0
113 1 50.47938229508197 7.935443278688526 3.34064860722e-05 0.0 0.0 0.0
114 1 53.14110819672132 7.7670026229508204 3.43791476131e-05 0.0 0.0 0.0
115 1 55.81262950819673 7.642388852459017 4.17029013205e-05 0.0 0.0 0.0
116 1 58.550295081967214 7.594775081967215 7.66268651758e-05 0.0 0.0 0.0
117 1 61.36975737704918 7.699242622950821 5.79479889281e-05 0.0 0.0 0.0
118 1 64.0912655737705 7.810678032786886 9.77230895893e-05 0.0 0.0 0.0
119 1 66.76026229508197 7.673542295081968 4.15409739969e-05 0.0 0.0 0.0
120 1 69.49237377049181 7.532518688524591 8.26809304325e-05 0.0 0.0 0.0
121 1 72.14218360655738 7.662181639344263 2.99410483263e-05 0.0 0.0 0.0
122 1 74.79401311475411 7.813859016393444 2.3009426039e-05 0.0 0.0 0.0
123 1 77.42463606557378 7.814262950819673 2.59583457361e-06 0.0 0.0 0.0
124 1 80.10171147540984 7.7777573770491815 1.52084983286e-05 0.0 0.0 0.0
125 1 1.4561432131147543 10.071044590163936 4.17827981134e-05 0.0 0.0 0.0
126 1 4.113966098360656 10.118102950819674 5.10182189214e-05 0.0 0.0 0.0
127 1 6.889909508196722 10.189296393442623 1.78585084007e-06 0.0 0.0 0.0
128 1 9.606520000000002 10.00116393442623 7.6609066508e-06 0.0 0.0 0.0
129 1 12.234870819672132 10.043980983606557 1.38735499772e-05 0.0 0.0 0.0
130 1 14.774608524590164 9.797530491803279 4.23073961765e-06 0.0 0.0 0.0
131 1 17.393365901639346 9.846204590163934 1.28400127042e-05 0.0 0.0 0.0
132 1 19.954108196721315 9.927496393442624 9.40043246189e-05 0.0 0.0 0.0
133 1 22.59215344262295 9.896191475409836 1.30924122076e-05 0.0 0.0 0.0
134 1 25.235853770491804 9.853273442622953 9.45178640625e-05 0.0 0.0 0.0
135 1 27.87990754098361 9.808184262295082 4.04736748153e-05 0.0 0.0 0.0
136 1 30.56334491803279 9.768396721311476 7.31831312816e-05 0.0 0.0 0.0
137 1 33.328276065573775 9.787583606557378 6.25511609783e-05 0.0 0.0 0.0
138 1 36.16995475409836 9.980209836065574 8.73402936771e-05 0.0 0.0 0.0
139 1 38.688485901639346 10.023733770491804 9.76726663699e-05 0.0 0.0 0.0
140 1 40.88881770491803 11.500921967213115 9.97863655769e-05 0.0 0.0 0.0
141 1 43.6969193442623 10.54748524590164 6.14085768735e-05 0.0 0.0 0.0
142 1 46.455942950819676 10.422417049180329 8.67997803339e-05 0.0 0.0 0.0
143 1 49.16947344262296 10.298560655737706 5.96531936e-05 0.0 0.0 0.0
144 1 51.83841967213115 10.159556721311477 9.6297942201e-05 0.0 0.0 0.0
145 1 54.467527868852464 10.004092459016395 8.93582545013e-05 0.0 0.0 0.0
146 1 57.09411147540984 9.852819016393443 4.0866276525e-05 0.0 0.0 0.0
147 1 59.787849180327875 9.788593442622952 2.06027853933e-05 0.0 0.0 0.0
148 1 62.55934426229509 10.028227540983607 6.02386802136e-05 0.0 0.0 0.0
149 1 65.61056393442624 10.082758688524592 4.11886903712e-06 0.0 0.0 0.0
150 1 68.29066885245902 9.860493770491804 7.62829967887e-05 0.0 0.0 0.0
151 1 70.87130491803279 9.937897704918035 5.6476916067e-05 0.0 0.0 0.0
152 1 73.49384918032789 10.076800655737706 8.73258216863e-05 0.0 0.0 0.0
153 1 76.12093770491803 10.170513442622953 1.38174783295e-05 0.0 0.0 0.0
154 1 78.70359344262296 10.10128918032787 8.60407700327e-05 0.0 0.0 0.0
155 1 81.45943606557377 10.032165901639345 4.41072082661e-06 0.0 0.0 0.0
156 1 0.07218257704918034 12.34352918032787 8.03881712747e-05 0.0 0.0 0.0
157 1 2.5996866229508195 12.418156065573772 3.24758656924e-06 0.0 0.0 0.0
158 1 5.169199344262296 12.354536393442624 9.36614895109e-05 0.0 0.0 0.0
159 1 9.107812459016394 12.16110229508197 7.62410553755e-05 0.0 0.0 0.0
160 1 10.660081967213117 12.344690491803279 8.40878112375e-05 0.0 0.0 0.0
161 1 14.241364590163936 12.172917377049181 9.92238302092e-05 0.0 0.0 0.0
162 1 15.787524590163935 12.11747737704918 2.5324006442e-05 0.0 0.0 0.0
163 1 18.437586885245903 12.27036655737705 3.02115321686e-05 0.0 0.0 0.0
164 1 21.173283278688526 12.243908852459018 5.61324876926e-05 0.0 0.0 0.0
165 1 23.885400000000004 12.205686557377051 5.71187620203e-06 0.0 0.0 0.0
166 1 26.562929836065578 12.160445901639346 3.66770527242e-05 0.0 0.0 0.0
167 1 29.204560000000004 12.075720655737706 9.17784267612e-05 0.0 0.0 0.0
168 1 31.892491147540987 11.977261639344263 9.59403518495e-05 0.0 0.0 0.0
169 1 34.70276393442624 11.981048524590165 3.86611933048e-05 0.0 0.0 0.0
170 1 37.43810688524591 12.462336393442623 9.0944029725e-05 0.0 0.0 0.0
171 1 40.07680852459017 12.82244393442623 7.20559416002e-05 0.0 0.0 0.0
172 1 42.62775540983607 12.97609049180328 3.89285965408e-06 0.0 0.0 0.0
173 1 45.284129180327874 12.716815081967214 6.37088027269e-05 0.0 0.0 0.0
174 1 47.941058360655745 12.630979016393443 1.38387486258e-05 0.0 0.0 0.0
175 1 50.59733114754099 12.534640655737705 4.00610662874e-05 0.0 0.0 0.0
176 1 53.236032786885254 12.415328524590164 7.20478664484e-05 0.0 0.0 0.0
177 1 55.82676721311476 12.256935737704918 5.90776047747e-05 0.0 0.0 0.0
178 1 58.41144262295083 12.076831475409836 3.02930521581e-05 0.0 0.0 0.0
179 1 61.14153442622951 12.058856393442625 6.11314783296e-05 0.0 0.0 0.0
180 1 63.320255737704926 11.367472131147542 5.10342701287e-05 0.0 0.0 0.0
181 1 66.93748852459017 12.2330531147541 8.45803910199e-06 0.0 0.0 0.0
182 1 69.50499672131149 12.28071737704918 8.69108002396e-05 0.0 0.0 0.0
183 1 72.1381442622951 12.364988196721313 2.47240158989e-05 0.0 0.0 0.0
184 1 74.81521967213115 12.48793573770492 1.69230994626e-05 0.0 0.0 0.0
185 1 77.46755409836065 12.537922622950822 2.41407631337e-05 0.0 0.0 0.0
186 1 80.09716721311476 12.27809180327869 1.42343421324e-05 0.0 0.0 0.0
187 1 1.0809638688524592 14.792331147540986 6.57449846641e-05 0.0 0.0 0.0
188 1 3.712142229508197 14.772033442622952 5.20255661528e-05 0.0 0.0 0.0
189 1 6.312081311475411 14.72053180327869 3.98607660393e-05 0.0 0.0 0.0
190 1 8.860604590163936 15.831553442622953 5.2786117529e-05 0.0 0.0 0.0
191 1 11.65668918032787 14.957085901639347 8.55014943403e-06 0.0 0.0 0.0
192 1 14.189761967213117 14.77021573770492 7.27110231898e-05 0.0 0.0 0.0
193 1 16.985745573770494 14.54880918032787 2.43816592324e-05 0.0 0.0 0.0
194 1 19.771125901639348 14.519826885245902 1.77334301483e-05 0.0 0.0 0.0
195 1 22.53499672131148 14.502407213114756 3.45167966883e-05 0.0 0.0 0.0
196 1 25.280993442622954 14.488572459016396 7.00245949365e-06 0.0 0.0 0.0
197 1 27.98366819672131 14.447118688524592 7.69166888418e-05 0.0 0.0 0.0
198 1 30.640950819672135 14.297460983606559 3.23986692453e-05 0.0 0.0 0.0
199 1 33.516156065573774 14.091201967213117 5.82140761975e-05 0.0 0.0 0.0
200 1 35.89775344262295 15.416712786885247 8.05308345291e-05 0.0 0.0 0.0
201 1 38.62587606557378 15.029390163934426 1.16371533689e-05 0.0 0.0 0.0
202 1 41.25685245901639 15.278112786885249 7.73844899075e-05 0.0 0.0 0.0
203 1 44.0489986885246 15.132797377049181 2.78452389557e-05 0.0 0.0 0.0
204 1 46.72955803278689 14.989754098360658 6.18657582803e-06 0.0 0.0 0.0
205 1 49.38431606557378 14.899424262295083 6.10951211421e-05 0.0 0.0 0.0
206 1 52.04947540983607 14.802379016393445 6.92710702576e-05 0.0 0.0 0.0
207 1 54.71746229508197 14.692256393442623 2.48265653643e-06 0.0 0.0 0.0
208 1 57.30769180327869 14.511596721311477 6.38357499729e-05 0.0 0.0 0.0
209 1 59.905495081967224 14.260248524590166 4.5017043341e-05 0.0 0.0 0.0
210 1 62.63861639344263 14.23156918032787 3.95004950413e-05 0.0 0.0 0.0
211 1 65.27428852459016 14.359161967213117 2.55333254615e-05 0.0 0.0 0.0
212 1 67.94025573770492 14.61929573770492 2.30443480856e-05 0.0 0.0 0.0
213 1 70.64207213114754 14.660295081967215 1.26083100255e-05 0.0 0.0 0.0
214 1 73.34439344262296 14.742243278688525 8.39533868563e-05 0.0 0.0 0.0
215 1 76.04620983606557 14.871300327868854 3.00855317323e-05 0.0 0.0 0.0
216 1 79.61143606557377 14.551687213114755 8.33612713671e-05 0.0 0.0 0.0
217 1 81.15648524590165 14.575165901639345 3.86354082181e-05 0.0 0.0 0.0
218 1 82.32082622950821 17.06592655737705 1.05769578835e-05 0.0 0.0 0.0
219 1 2.3598455081967216 17.144693770491802 6.58567369028e-05 0.0 0.0 0.0
220 1 5.080384262295082 17.100917377049182 1.94153286951e-05 0.0 0.0 0.0
221 1 7.997901639344263 17.099453114754102 8.55878646879e-05 0.0 0.0 0.0
222 1 10.677299672131149 17.35670885245902 5.76229094386e-05 0.0 0.0 0.0
223 1 13.217289836065575 17.25840131147541 4.3651389562e-05 0.0 0.0 0.0
224 1 15.777628196721313 16.902131147540985 7.48098167604e-05 0.0 0.0 0.0
225 1 18.514031475409837 16.761158032786888 1.13192113828e-05 0.0 0.0 0.0
226 1 21.207567213114757 16.747070819672135 9.61411110144e-05 0.0 0.0 0.0
227 1 23.957047868852463 16.743283934426234 9.63555992987e-05 0.0 0.0 0.0
228 1 26.738641311475412 16.754947540983608 5.20592483054e-05 0.0 0.0 0.0
229 1 29.384310819672134 16.70324393442623 7.12585866112e-05 0.0 0.0 0.0
230 1 31.986405901639348 16.266237377049183 7.98438192054e-07 0.0 0.0 0.0
231 1 34.820712786885245 16.49385442622951 3.09223524682e-05 0.0 0.0 0.0
232 1 37.10188196721312 17.450522622950825 8.70580379535e-05 0.0 0.0 0.0
233 1 40.075596721311484 17.508790163934428 3.95336084152e-05 0.0 0.0 0.0
234 1 42.8506262295082 17.375340327868855 3.68454519756e-05 0.0 0.0 0.0
235 1 45.51841114754099 17.349791475409837 6.78762620405e-05 0.0 0.0 0.0
236 1 48.16089967213115 17.264359344262296 2.71159510068e-05 0.0 0.0 0.0
237 1 50.8240393442623 17.160750163934427 8.94245910023e-05 0.0 0.0 0.0
238 1 53.562209836065584 17.044164590163938 8.61409569607e-05 0.0 0.0 0.0
239 1 56.37561311475411 16.932577704918035 1.88802903877e-05 0.0 0.0 0.0
240 1 59.17639344262296 16.62871803278689 7.93155417614e-05 0.0 0.0 0.0
241 1 62.15339016393443 17.036792786885247 8.43657718655e-05 0.0 0.0 0.0
242 1 63.680767213114756 16.64719803278689 7.28090181595e-05 0.0 0.0 0.0
243 1 66.39621639344263 16.815285245901638 4.01157547432e-05 0.0 0.0 0.0
244 1 69.12782295081968 16.926771147540986 1.41621898304e-05 0.0 0.0 0.0
245 1 71.81701639344264 16.988068196721315 3.36694947582e-05 0.0 0.0 0.0
246 1 74.47540983606558 17.09864524590164 6.55107382378e-05 0.0 0.0 0.0
247 1 77.0348393442623 17.36135409836066 9.22884644657e-05 0.0 0.0 0.0
248 1 79.50590819672132 17.220986885245903 8.54268423894e-05 0.0 0.0 0.0
249 1 0.9059441311475411 19.404201967213115 6.18518248986e-06 0.0 0.0 0.0
250 1 3.8887221639344265 19.410816393442627 3.43607715629e-05 0.0 0.0 0.0
251 1 6.57312393442623 19.148612459016395 8.89048457423e-05 0.0 0.0 0.0
252 1 9.16921049180328 19.462368524590165 5.29768092454e-05 0.0 0.0 0.0
253 1 11.870219016393444 19.709071475409836 6.16191715668e-05 0.0 0.0 0.0
254 1 14.684379672131149 19.479636721311476 2.30390816061e-06 0.0 0.0 0.0
255 1 17.406342295081966 19.072622295081967 6.47655481026e-05 0.0 0.0 0.0
256 1 19.99520852459017 19.05298098360656 2.60840377874e-05 0.0 0.0 0.0
257 1 22.569937049180332 18.988805901639346 3.20571249339e-05 0.0 0.0 0.0
258 1 25.411514754098366 18.95628918032787 3.43589357035e-06 0.0 0.0 0.0
259 1 28.065313442622955 19.084639344262296 5.33515938201e-06 0.0 0.0 0.0
260 1 31.547480655737708 18.617539672131148 7.54619073274e-05 0.0 0.0 0.0
261 1 33.07192918032787 18.416228852459017 9.5940299096e-05 0.0 0.0 0.0
262 1 35.33219475409837 20.167385573770492 6.25329932863e-06 0.0 0.0 0.0
263 1 37.77377639344263 18.83394754098361 5.02137559669e-05 0.0 0.0 0.0
264 1 41.56475147540984 19.614803278688523 6.59615287287e-05 0.0 0.0 0.0
265 1 44.23208196721312 19.662820983606558 7.22268807299e-05 0.0 0.0 0.0
266 1 46.90299737704919 19.637524590163935 9.23514023966e-05 0.0 0.0 0.0
267 1 49.52296655737705 19.530885901639348 9.26360403012e-05 0.0 0.0 0.0
268 1 52.21609836065575 19.3533062295082 4.76490324353e-07 0.0 0.0 0.0
269 1 54.97497049180328 19.174817704918034 6.64395084154e-05 0.0 0.0 0.0
270 1 57.71465573770493 19.022332459016397 3.22170330443e-05 0.0 0.0 0.0
271 1 60.423036065573775 19.40172786885246 2.79259423895e-05 0.0 0.0 0.0
272 1 62.665881967213124 19.620205901639345 7.92127259719e-06 0.0 0.0 0.0
273 1 65.19754098360656 19.059797377049183 7.2620233045e-06 0.0 0.0 0.0
274 1 67.78272131147541 19.15457049180328 4.827841988e-06 0.0 0.0 0.0
275 1 70.41384918032787 19.26075475409836 4.00821548672e-05 0.0 0.0 0.0
276 1 73.03790819672132 19.361384918032787 9.52045732157e-05 0.0 0.0 0.0
277 1 75.70942950819672 19.605512786885246 3.33131772244e-05 0.0 0.0 0.0
278 1 78.29309508196722 19.730732459016394 6.61025863039e-05 0.0 0.0 0.0
279 1 80.83434754098361 19.3379062295082 5.24159045282e-05 0.0 0.0 0.0
280 1 82.41777049180328 21.54187344262295 2.28547540313e-06 0.0 0.0 0.0
281 1 1.6947523278688525 20.73607475409836 6.67479135683e-05 0.0 0.0 0.0
282 1 5.291793442622951 21.51228524590164 9.41480048044e-05 0.0 0.0 0.0
283 1 7.820574426229508 21.6062 7.6201406511e-05 0.0 0.0 0.0
284 1 10.504516721311477 21.78847540983607 3.73710743703e-05 0.0 0.0 0.0
285 1 12.547162622950822 21.092092459016396 5.62295495334e-05 0.0 0.0 0.0
286 1 15.98489704918033 21.45028131147541 3.49571968142e-05 0.0 0.0 0.0
287 1 18.698175081967214 21.435588196721316 1.33265171952e-05 0.0 0.0 0.0
288 1 21.383127213114754 21.418471475409838 8.76035546792e-05 0.0 0.0 0.0
289 1 24.05222491803279 21.08078229508197 5.68369356454e-05 0.0 0.0 0.0
290 1 26.537936393442624 21.350862950819675 9.48696860399e-05 0.0 0.0 0.0
291 1 29.031221639344263 21.534148196721315 1.12589263789e-05 0.0 0.0 0.0
292 1 31.614836721311477 21.31481180327869 5.71068759108e-05 0.0 0.0 0.0
293 1 34.51180393442623 21.461238032786884 4.10999082453e-05 0.0 0.0 0.0
294 1 37.26714163934427 21.572017049180328 1.90025847547e-05 0.0 0.0 0.0
295 1 40.04626098360656 21.707032131147542 7.71459107988e-05 0.0 0.0 0.0
296 1 42.765345573770496 21.92788327868853 4.58893842524e-05 0.0 0.0 0.0
297 1 45.560369836065576 21.956209180327868 6.12575589607e-05 0.0 0.0 0.0
298 1 48.2228531147541 21.944899016393443 9.67664393627e-05 0.0 0.0 0.0
299 1 50.873016393442626 21.730056393442624 9.57829502795e-05 0.0 0.0 0.0
300 1 53.59553442622951 21.483252459016395 7.64463770645e-07 0.0 0.0 0.0
301 1 56.241809836065585 21.347883934426232 8.29655183924e-05 0.0 0.0 0.0
302 1 58.86940327868853 21.45876393442623 5.32975776121e-05 0.0 0.0 0.0
303 1 61.4424655737705 22.03285573770492 1.79164591313e-05 0.0 0.0 0.0
304 1 64.02259672131149 21.678504262295085 4.85620995208e-05 0.0 0.0 0.0
305 1 66.5320393442623 21.500470163934427 7.19729973364e-05 0.0 0.0 0.0
306 1 69.10964590163934 21.556819016393444 2.15956983897e-05 0.0 0.0 0.0
307 1 71.6872524590164 21.660024262295085 8.78407025178e-05 0.0 0.0 0.0
308 1 74.21487213114756 21.764794754098364 2.95089343524e-05 0.0 0.0 0.0
309 1 76.86417704918033 22.051487213114758 4.61316140519e-05 0.0 0.0 0.0
310 1 79.82400655737705 21.91611868852459 5.09852915302e-05 0.0 0.0 0.0
311 1 1.3521250491803278 23.705548196721313 9.48716441543e-05 0.0 0.0 0.0
312 1 3.918214426229509 23.73074360655738 7.46915466041e-05 0.0 0.0 0.0
313 1 6.47496786885246 23.928419016393445 6.69640753817e-05 0.0 0.0 0.0
314 1 9.206725901639347 23.921097704918033 1.60389305033e-06 0.0 0.0 0.0
315 1 11.925103606557377 24.03096786885246 6.50938895555e-05 0.0 0.0 0.0
316 1 14.630706885245903 23.873080000000005 4.71704195123e-05 0.0 0.0 0.0
317 1 17.22038098360656 23.62708393442623 8.20231292489e-05 0.0 0.0 0.0
318 1 19.381228196721313 22.81133836065574 8.44044246652e-06 0.0 0.0 0.0
319 1 22.916462295081967 23.463339016393444 4.27345056374e-05 0.0 0.0 0.0
320 1 24.910131147540987 24.8873593442623 8.99612471749e-05 0.0 0.0 0.0
321 1 27.642343606557382 23.87 8.97012014481e-05 0.0 0.0 0.0
322 1 30.336990163934427 23.76416918032787 7.59329891848e-05 0.0 0.0 0.0
323 1 32.98589114754099 23.48823147540984 6.35972175124e-05 0.0 0.0 0.0
324 1 35.65120196721312 23.700600000000005 2.88755984063e-05 0.0 0.0 0.0
325 1 38.39225049180329 23.837483278688527 7.17136668563e-05 0.0 0.0 0.0
326 1 41.530013114754105 24.090952131147546 4.68656875088e-05 0.0 0.0 0.0
327 1 44.13695540983607 24.128568524590168 8.77926273597e-06 0.0 0.0 0.0
328 1 46.71516786885247 24.276459016393446 4.89664255952e-05 0.0 0.0 0.0
329 1 49.780373770491806 24.160327868852463 5.24710472803e-05 0.0 0.0 0.0
330 1 52.40998688524591 23.83960393442623 1.41888736082e-05 0.0 0.0 0.0
331 1 54.89519344262296 23.732460327868857 8.37601455584e-05 0.0 0.0 0.0
332 1 57.446544262295085 23.72614885245902 5.90125396013e-05 0.0 0.0 0.0
333 1 60.09281967213116 24.03525967213115 9.14845532026e-05 0.0 0.0 0.0
334 1 62.665377049180336 24.182190819672137 1.1629395704e-05 0.0 0.0 0.0
335 1 65.23389508196722 24.00642885245902 8.88634246934e-06 0.0 0.0 0.0
336 1 67.81958032786886 23.912463606557377 2.92687451756e-05 0.0 0.0 0.0
337 1 70.44818360655738 23.988100327868853 4.96246924329e-05 0.0 0.0 0.0
338 1 73.0232655737705 24.120136393442625 7.48383130719e-05 0.0 0.0 0.0
339 1 75.52513442622951 24.181231475409838 7.25524793592e-06 0.0 0.0 0.0
340 1 77.64780983606558 23.37841180327869 4.42481885554e-05 0.0 0.0 0.0
341 1 81.44681311475411 23.99976393442623 3.57713115424e-05 0.0 0.0 0.0
342 1 0.06483349508196722 26.194238688524592 3.92338864261e-05 0.0 0.0 0.0
343 1 2.728354885245902 26.12153049180328 4.2005936686e-05 0.0 0.0 0.0
344 1 5.392019672131148 26.20352918032787 9.27291469241e-05 0.0 0.0 0.0
345 1 8.100248524590164 26.107190819672134 1.89278945527e-05 0.0 0.0 0.0
346 1 10.471697049180328 27.274712786885246 8.72524762312e-05 0.0 0.0 0.0
347 1 13.330845901639346 26.287648524590168 7.30770852271e-05 0.0 0.0 0.0
348 1 17.045830819672133 25.74006491803279 5.48578248395e-07 0.0 0.0 0.0
349 1 18.608148196721313 25.687502950819674 2.75059969613e-06 0.0 0.0 0.0
350 1 21.325718032786884 25.811106885245902 3.05161452778e-05 0.0 0.0 0.0
351 1 24.027483934426233 26.155662950819675 4.61833963228e-05 0.0 0.0 0.0
352 1 26.53889573770492 26.36762754098361 1.49980736176e-05 0.0 0.0 0.0
353 1 29.108171147540986 26.087448524590165 1.55921021611e-05 0.0 0.0 0.0
354 1 31.73192721311476 25.9205731147541 3.30495887238e-06 0.0 0.0 0.0
355 1 34.338263606557376 25.871697049180334 1.47929792504e-05 0.0 0.0 0.0
356 1 36.9739862295082 25.95329180327869 6.23518167304e-05 0.0 0.0 0.0
357 1 39.10761836065574 25.194753442622954 8.5285528384e-06 0.0 0.0 0.0
358 1 42.739948196721315 26.440234754098363 3.53253257504e-06 0.0 0.0 0.0
359 1 45.47357442622951 26.551468196721316 8.35793885923e-05 0.0 0.0 0.0
360 1 47.567318032786886 25.551780983606562 8.89166907107e-05 0.0 0.0 0.0
361 1 51.142642622950824 26.277954098360656 4.26554773752e-05 0.0 0.0 0.0
362 1 53.62582950819672 26.21600065573771 6.79282163973e-05 0.0 0.0 0.0
363 1 56.05347540983607 26.102949508196726 5.02387395351e-05 0.0 0.0 0.0
364 1 58.63865573770492 26.14465573770492 7.15592405673e-05 0.0 0.0 0.0
365 1 61.210203278688525 26.484061639344265 8.87545651749e-05 0.0 0.0 0.0
366 1 63.838806557377055 26.461138360655738 9.10992524616e-05 0.0 0.0 0.0
367 1 66.48508196721313 26.32521442622951 2.04956688076e-05 0.0 0.0 0.0
368 1 69.12984262295083 26.28466950819672 8.5926024753e-05 0.0 0.0 0.0
369 1 71.85135081967213 26.426803934426232 6.5210770593e-05 0.0 0.0 0.0
370 1 74.49964590163935 26.561516065573773 6.72140709481e-06 0.0 0.0 0.0
371 1 77.18782950819674 26.278711475409835 2.70659164149e-07 0.0 0.0 0.0
372 1 80.00072786885248 26.12925573770492 4.18545541334e-05 0.0 0.0 0.0
373 1 1.4486401311475412 28.481820327868856 4.34856075822e-05 0.0 0.0 0.0
374 1 4.099399213114754 28.49313049180328 1.03610630269e-05 0.0 0.0 0.0
375 1 6.7858963934426235 28.46611737704918 6.7355089233e-05 0.0 0.0 0.0
376 1 9.567489836065574 28.53589704918033 4.7809573443e-05 0.0 0.0 0.0
377 1 12.089807868852459 28.67722360655738 3.56481262186e-05 0.0 0.0 0.0
378 1 14.650752131147543 28.581945573770497 3.99019369431e-05 0.0 0.0 0.0
379 1 17.146309508196723 28.313632131147543 5.12609858605e-05 0.0 0.0 0.0
380 1 19.914118688524592 28.098335081967214 4.88989796261e-05 0.0 0.0 0.0
381 1 22.55019475409836 28.291516721311478 2.31746258615e-05 0.0 0.0 0.0
382 1 25.13123475409836 28.65228065573771 4.95703593998e-05 0.0 0.0 0.0
383 1 27.816540327868857 28.565889180327872 2.82282944205e-05 0.0 0.0 0.0
384 1 30.500432131147544 28.32191278688525 3.88190350489e-05 0.0 0.0 0.0
385 1 33.15412983606558 28.221737049180334 3.26973277306e-05 0.0 0.0 0.0
386 1 35.8436262295082 28.195683278688527 8.46030692186e-05 0.0 0.0 0.0
387 1 38.57291016393443 28.070766557377052 8.06493020989e-05 0.0 0.0 0.0
388 1 41.16844131147541 28.25177967213115 9.42008665818e-05 0.0 0.0 0.0
389 1 43.319846557377055 27.858852459016394 5.35439890043e-05 0.0 0.0 0.0
390 1 47.01781573770492 28.483234098360658 1.37114852017e-06 0.0 0.0 0.0
391 1 49.59380655737706 28.461118688524593 5.17519467842e-05 0.0 0.0 0.0
392 1 52.235790163934425 28.66182360655738 6.61157751201e-06 0.0 0.0 0.0
393 1 54.89115409836066 28.627287213114755 6.01322134268e-05 0.0 0.0 0.0
394 1 57.4692655737705 28.447536393442626 7.86948611268e-05 0.0 0.0 0.0
395 1 59.708072131147546 29.788699672131152 4.01147778193e-05 0.0 0.0 0.0
396 1 62.479062295081974 28.822034098360657 2.26312554219e-05 0.0 0.0 0.0
397 1 65.15765245901639 28.710800655737707 8.37127480802e-05 0.0 0.0 0.0
398 1 67.78019672131148 28.626883278688528 3.66446516319e-05 0.0 0.0 0.0
399 1 70.36790163934427 28.599769180327872 6.01764728163e-05 0.0 0.0 0.0
400 1 73.06365901639346 28.83435409836066 6.19699319368e-05 0.0 0.0 0.0
401 1 76.12699672131147 28.720545573770494 6.98640232502e-05 0.0 0.0 0.0
402 1 78.82628852459017 28.377251803278693 7.52971950099e-05 0.0 0.0 0.0
403 1 81.46902950819673 28.415221639344264 9.2507260327e-05 0.0 0.0 0.0
404 1 0.11414530491803279 30.772582950819675 7.95605355133e-06 0.0 0.0 0.0
405 1 2.7609019016393446 30.83165836065574 2.14324017253e-05 0.0 0.0 0.0
406 1 5.359502950819673 30.802979016393444 8.87639644772e-05 0.0 0.0 0.0
407 1 7.99724524590164 30.739460327868855 4.08798561332e-06 0.0 0.0 0.0
408 1 10.684267540983607 30.986668196721315 5.26883403222e-05 0.0 0.0 0.0
409 1 13.383912786885247 30.980811147540987 1.39827248652e-05 0.0 0.0 0.0
410 1 16.053919344262297 30.839131147540986 6.03072050605e-05 0.0 0.0 0.0
411 1 18.66020524590164 30.456807213114757 1.1510487113e-05 0.0 0.0 0.0