ITEM: TIMESTEP
0
ITEM: NUMBER OF ATOMS
2232
ITEM: BOX BOUNDS xy xz yz pp pp pp
0.0 82.68810555352132 0
0.0 83.16 0
-10.0 10.0 0
ITEM: ATOMS id type x y z vx vy vz
1 1 1.5257108196721314 1.0561269508196724 4.82698257655e-05 0.0 0.0 0.0
2 1 4.194333901639345 1.2184883934426232 9.50607197152e-05 0.0 0.0 0.0
3 1 7.02356131147541 0.9330430819672132 4.66201139241e-05 0.0 0.0 0.0
4 1 9.811264262295083 0.6019329836065574 6.77462824696e-05 0.0 0.0 0.0
5 1 12.611842622950821 0.4705472524590164 5.67328461361e-05 0.0 0.0 0.0
6 1 14.77556786885246 2.0129971147540986 3.86677838519e-07 0.0 0.0 0.0
7 1 17.79295803278689 1.4363201311475413 1.86564084155e-05 0.0 0.0 0.0
8 1 20.64412918032787 1.1283453770491805 9.73959430016e-05 0.0 0.0 0.0
9 1 23.133678032786886 1.190697704918033 7.27375797037e-05 0.0 0.0 0.0
10 1 25.695228196721313 1.0108459016393443 6.24301532609e-06 0.0 0.0 0.0
11 1 28.665509508196724 1.3276314754098362 1.66134739635e-07 0.0 0.0 0.0
12 1 31.49204065573771 1.3848184918032789 5.96323757983e-05 0.0 0.0 0.0
13 1 34.02294229508197 1.2381902950819672 8.66615942639e-05 0.0 0.0 0.0
14 1 36.59494426229509 1.305379737704918 1.84202835345e-05 0.0 0.0 0.0
15 1 38.89201836065574 1.0952833442622953 8.0554340969e-05 0.0 0.0 0.0
16 1 41.529659672131146 0.6853201967213116 6.14876374849e-05 0.0 0.0 0.0
17 1 44.53579016393443 0.6743887213114754 7.4527734451e-05 0.0 0.0 0.0
18 1 47.0202393442623 83.06659016393442 2.1062526183e-05 0.0 0.0 0.0
19 1 49.543011803278695 82.79746885245902 8.64817689274e-05 0.0 0.0 0.0
20 1 52.08078032786886 82.65003278688525 8.80620556575e-05 0.0 0.0 0.0
21 1 54.71746229508197 82.79746885245902 4.1974945544e-05 0.0 0.0 0.0
22 1 57.186511475409844 83.10647868852459 7.17530434804e-05 0.0 0.0 0.0
23 1 59.83430163934427 0.2683957442622951 8.06697668258e-05 0.0 0.0 0.0
24 1 62.46542950819673 0.7267032786885246 1.80575138595e-05 0.0 0.0 0.0
25 1 65.71457704918033 0.3845652655737705 2.48046866935e-05 0.0 0.0 0.0
26 1 68.43053114754099 1.238084262295082 9.58538721897e-05 0.0 0.0 0.0
27 1 71.32876065573771 0.4485600918032787 8.24111900828e-05 0.0 0.0 0.0
28 1 73.47920655737705 1.9612884590163937 7.96020147853e-05 0.0 0.0 0.0
29 1 76.12194754098361 0.6777262295081967 6.81499757223e-05 0.0 0.0 0.0
30 1 78.98634754098362 0.7837287213114754 8.30048367535e-06 0.0 0.0 0.0
31 1 0.004667543081967213 0.7843346229508198 7.61239222968e-05 0.0 0.0 0.0
32 1 82.36172459016394 3.2925300983606562 3.51871491274e-05 0.0 0.0 0.0
33 1 2.5757434098360656 3.4431673442622954 2.37423726737e-05 0.0 0.0 0.0
34 1 5.815342950819673 3.34573331147541 1.56938523693e-05 0.0 0.0 0.0
35 1 9.395666229508198 2.7428056393442626 2.82331298907e-05 0.0 0.0 0.0
36 1 10.951520655737705 2.7110462950819674 4.73969351091e-05 0.0 0.0 0.0
37 1 13.620416393442625 3.0904265573770497 1.60201498125e-05 0.0 0.0 0.0
38 1 16.141674098360657 3.6916173114754103 2.56462497974e-05 0.0 0.0 0.0
39 1 20.207678032786887 3.2098598688524596 2.88467541185e-05 0.0 0.0 0.0
40 1 21.730460327868855 3.549528327868853 3.46117104532e-07 0.0 0.0 0.0
41 1 25.14471606557377 3.2650373114754103 6.69067184552e-05 0.0 0.0 0.0
42 1 26.387470819672135 2.3732561311475413 4.39865861126e-05 0.0 0.0 0.0
43 1 29.701247868852462 3.4812028196721316 5.22594999399e-05 0.0 0.0 0.0
44 1 33.56881901639345 3.480990754098361 8.83040698507e-06 0.0 0.0 0.0
45 1 35.10619344262295 3.5866196065573774 6.45024720556e-05 0.0 0.0 0.0
46 1 37.848100327868856 3.743250229508197 4.47335222009e-05 0.0 0.0 0.0
47 1 41.206663606557385 2.8305200000000004 7.38073294895e-05 0.0 0.0 0.0
48 1 42.420436065573774 1.9167344918032787 4.69206208929e-05 0.0 0.0 0.0
49 1 46.752329836065584 2.392973180327869 8.07504103714e-05 0.0 0.0 0.0
50 1 48.25996459016394 2.140297049180328 2.16900023062e-06 0.0 0.0 0.0
51 1 51.53193442622951 1.796917442622951 1.28023879526e-05 0.0 0.0 0.0
52 1 53.05880655737705 1.8114590819672132 4.38579033697e-05 0.0 0.0 0.0
53 1 55.5364393442623 2.1832251803278693 7.89962629624e-05 0.0 0.0 0.0
54 1 58.13020327868853 2.36399593442623 4.36210019157e-05 0.0 0.0 0.0
55 1 60.76234098360656 2.7745094426229513 7.0590331337e-05 0.0 0.0 0.0
56 1 63.37781639344263 1.9985463606557379 6.47600036871e-05 0.0 0.0 0.0
57 1 67.51713442622952 2.465974229508197 1.12257072921e-05 0.0 0.0 0.0
58 1 69.88772459016394 2.745814950819672 5.12947217245e-05 0.0 0.0 0.0
59 1 72.56833442622953 3.2040785573770494 1.56925086355e-05 0.0 0.0 0.0
60 1 75.05101639344262 3.2845826885245906 3.38584993215e-05 0.0 0.0 0.0
61 1 77.63720655737706 2.8152664262295084 5.10834402731e-05 0.0 0.0 0.0
62 1 80.00325245901641 3.329899081967213 3.74279476696e-05 0.0 0.0 0.0
63 1 1.2292431475409837 5.364350163934427 3.07030978771e-05 0.0 0.0 0.0
64 1 3.3842131147540986 4.757181180327869 4.01875440599e-05 0.0 0.0 0.0
65 1 6.9403003278688535 5.6478616393442636 4.34341569474e-05 0.0 0.0 0.0
66 1 9.23161836065574 5.547635409836066 7.13013095021e-05 0.0 0.0 0.0
67 1 11.783625573770493 5.236302950819672 6.72845516639e-05 0.0 0.0 0.0
68 1 14.455247868852462 5.6743698360655745 1.69915987962e-05 0.0 0.0 0.0
69 1 16.70359737704918 5.118101639344263 2.14785142313e-05 0.0 0.0 0.0
70 1 20.33350360655738 5.956164590163935 7.30513238232e-05 0.0 0.0 0.0
71 1 22.89409442622951 6.082596065573771 6.26022143717e-06 0.0 0.0 0.0
72 1 25.26776459016394 6.009635409836067 2.25544656302e-05 0.0 0.0 0.0
73 1 27.844512786885247 5.7018878688524595 4.65087321879e-06 0.0 0.0 0.0
74 1 30.153200000000005 5.831752786885246 3.02338708368e-05 0.0 0.0 0.0
75 1 32.83259803278689 5.8852236065573775 3.93480539623e-06 0.0 0.0 0.0
76 1 36.047663606557386 5.905672786885247 8.7346554469e-05 0.0 0.0 0.0
77 1 38.84687868852459 5.827006557377049 1.20512232134e-05 0.0 0.0 0.0
78 1 42.24952131147541 5.020955409836066 1.18116304589e-05 0.0 0.0 0.0
79 1 43.82218950819673 4.9137916065573775 9.26571797483e-05 0.0 0.0 0.0
80 1 46.5897462295082 5.157788196721312 7.19563160545e-05 0.0 0.0 0.0
81 1 49.567601311475414 4.711804196721312 8.47287877306e-05 0.0 0.0 0.0
82 1 51.1476918032787 4.688840524590164 6.53312923407e-05 0.0 0.0 0.0
83 1 53.92979016393443 4.394236000000001 7.63524404696e-05 0.0 0.0 0.0
84 1 56.657862295081976 4.610320721311476 2.34652832417e-05 0.0 0.0 0.0
85 1 59.22587540983607 4.830636655737706 1.08336020901e-05 0.0 0.0 0.0
86 1 61.595455737704924 4.0652415081967215 1.32191601499e-05 0.0 0.0 0.0
87 1 65.60702950819673 4.203452721311476 5.91881530245e-05 0.0 0.0 0.0
88 1 68.14424262295083 5.005621049180328 8.76427248394e-05 0.0 0.0 0.0
89 1 70.68499016393443 5.116990819672131 5.52853533586e-05 0.0 0.0 0.0
90 1 72.96620983606557 4.673965639344263 9.77582162458e-05 0.0 0.0 0.0
91 1 76.50063606557377 5.2953783606557385 9.85759667764e-05 0.0 0.0 0.0
92 1 78.08456393442624 6.880265573770492 6.03359156211e-06 0.0 0.0 0.0
93 1 81.24989508196722 5.801659672131148 2.09150380328e-05 0.0 0.0 0.0
94 1 82.68032786885247 7.777858360655738 9.73003805156e-05 0.0 0.0 0.0
95 1 2.4488171147540982 7.627948196721312 7.13811813307e-05 0.0 0.0 0.0
96 1 5.321078688524591 7.608155409836066 9.03971308896e-05 0.0 0.0 0.0
97 1 7.9636177049180334 8.137208524590164 8.83379081313e-05 0.0 0.0 0.0
98 1 10.360261639344262 7.823149508196722 4.88237935722e-05 0.0 0.0 0.0
99 1 13.013504918032787 7.697121967213116 6.70821399682e-05 0.0 0.0 0.0
100 1 15.7596531147541 7.915347540983608 7.29493612667e-05 0.0 0.0 0.0
101 1 18.922156721311477 8.07581049180328 2.78653747282e-05 0.0 0.0 0.0
102 1 21.66052918032787 8.375681311475411 7.37232620081e-05 0.0 0.0 0.0
103 1 24.181786885245902 8.553059016393442 9.87643046359e-05 0.0 0.0 0.0
104 1 26.728593442622955 8.312970491803279 9.38966711788e-05 0.0 0.0 0.0
105 1 29.24353967213115 8.302367213114756 9.46976187584e-05 0.0 0.0 0.0
106 1 32.1154124590164 7.911055737704919 5.96670507217e-05 0.0 0.0 0.0
107 1 33.51055147540984 7.242594754098361 4.26613338628e-05 0.0 0.0 0.0
108 1 37.10884983606557 7.9582150819672135 6.18922193101e-05 0.0 0.0 0.0
109 1 39.770929180327876 8.086464262295083 6.6997888168e-05 0.0 0.0 0.0
110 1 42.246895737704925 7.834207213114755 8.32773883429e-05 0.0 0.0 0.0
111 1 44.95562950819672 7.321715409836067 3.67816188501e-05 0.0 0.0 0.0
112 1 47.706675409836066 7.827895737704918 1.22227663416e-05 0.0 0.0 0.0
113 1 50.10145114754099 7.690810491803279 5.87281943975e-05 0.0 0.0 0.0
114 1 53.56826885245902 6.511574426229509 6.24655180636e-05 0.0 0.0 0.0
115 1 55.109783606557386 6.727275409836066 4.80721258351e-05 0.0 0.0 0.0
116 1 57.71970491803279 7.088190819672132 4.58516600209e-05 0.0 0.0 0.0
117 1 60.52654426229508 6.879861639344263 3.41766986339e-05 0.0 0.0 0.0
118 1 64.45884590163935 6.162120655737706 1.64879082653e-05 0.0 0.0 0.0
119 1 65.92512786885247 6.670472131147542 3.08160942587e-05 0.0 0.0 0.0
120 1 69.40199344262295 7.433049836065575 5.25541065483e-05 0.0 0.0 0.0
121 1 72.1103737704918 7.379982950819673 3.72302408057e-05 0.0 0.0 0.0
122 1 74.79350819672132 7.540799344262296 3.0539658427e-05 0.0 0.0 0.0
123 1 77.30547540983606 8.180833442622951 2.50670268038e-05 0.0 0.0 0.0
124 1 79.29434754098362 7.780786885245902 1.76924613981e-05 0.0 0.0 0.0
125 1 1.1626091147540984 11.023067540983607 4.74742905391e-05 0.0 0.0 0.0
126 1 3.644927540983607 9.680995409836067 5.14985123955e-05 0.0 0.0 0.0
127 1 6.31288918032787 10.164706885245902 5.97739481192e-05 0.0 0.0 0.0
128 1 9.261509508196722 10.550363278688526 9.68283385202e-06 0.0 0.0 0.0
129 1 11.95236918032787 10.04044655737705 5.31787591345e-05 0.0 0.0 0.0
130 1 14.485997377049182 9.99000524590164 2.56221967566e-05 0.0 0.0 0.0
131 1 16.503296393442625 9.264791475409837 3.36834525065e-05 0.0 0.0 0.0
132 1 19.853881967213116 11.506728524590166 8.78728781916e-05 0.0 0.0 0.0
133 1 22.675212459016397 10.869471475409837 4.17470835646e-05 0.0 0.0 0.0
134 1 25.38929836065574 10.866744918032788 4.81874044518e-05 0.0 0.0 0.0
135 1 27.86662819672131 10.816808524590165 1.06845517986e-05 0.0 0.0 0.0
136 1 30.565617049180332 11.263509508196723 3.20785135486e-05 0.0 0.0 0.0
137 1 32.8105331147541 10.731224918032787 3.35567478631e-05 0.0 0.0 0.0
138 1 35.460241967213115 10.038123934426231 3.17326003709e-06 0.0 0.0 0.0
139 1 38.157110163934426 10.242767213114757 1.3551638255e-05 0.0 0.0 0.0
140 1 40.78162360655738 10.327997377049181 4.10429993192e-05 0.0 0.0 0.0
141 1 43.44299606557377 9.773092459016393 4.58741385687e-05 0.0 0.0 0.0
142 1 46.12320196721312 9.737495737704918 9.07128040314e-05 0.0 0.0 0.0
143 1 48.6865193442623 10.173845901639345 5.42246003781e-05 0.0 0.0 0.0
144 1 52.25750163934427 9.587787540983609 1.69796820833e-05 0.0 0.0 0.0
145 1 53.770236065573776 9.360069508196723 5.42550702953e-05 0.0 0.0 0.0
146 1 56.311993442622956 9.329875409836067 5.07240546935e-05 0.0 0.0 0.0
147 1 59.000681967213126 9.204706229508197 7.52766544181e-05 0.0 0.0 0.0
148 1 61.831757377049186 9.146741639344263 7.21430082443e-05 0.0 0.0 0.0
149 1 64.28161967213116 8.543314098360657 7.8941404487e-05 0.0 0.0 0.0
150 1 66.75319344262296 7.985480655737706 6.11413421528e-06 0.0 0.0 0.0
151 1 70.69609836065574 9.63999606557377 2.96895940345e-05 0.0 0.0 0.0
152 1 73.26815081967214 9.709876721311476 6.58223241464e-05 0.0 0.0 0.0
153 1 75.91543606557379 10.162636721311477 2.09975987048e-05 0.0 0.0 0.0
154 1 78.70763278688526 10.59525049180328 8.42066659223e-05 0.0 0.0 0.0
155 1 81.37763934426229 10.11628524590164 1.45461207806e-05 0.0 0.0 0.0
156 1 1.345147081967213 12.526309508196722 3.44287992035e-05 0.0 0.0 0.0
157 1 2.8534180327868857 12.357262950819674 5.4740003655e-05 0.0 0.0 0.0
158 1 5.05544131147541 12.090615737704919 2.52162751231e-05 0.0 0.0 0.0
159 1 7.441986885245902 12.925144262295085 7.85131141677e-05 0.0 0.0 0.0
160 1 11.002012459016395 12.454964590163936 8.15673620896e-05 0.0 0.0 0.0
161 1 13.616225573770492 12.352466229508199 6.74643106082e-05 0.0 0.0 0.0
162 1 16.11072262295082 12.184076065573771 7.06966429823e-05 0.0 0.0 0.0
163 1 18.79638163934426 12.613357377049182 9.39340880129e-05 0.0 0.0 0.0
164 1 21.20307344262295 13.234457049180328 8.60153422764e-06 0.0 0.0 0.0
165 1 23.759220983606557 13.139784918032788 6.49056121672e-05 0.0 0.0 0.0
166 1 26.466742950819675 13.366796065573771 9.50457057011e-05 0.0 0.0 0.0
167 1 29.540986885245907 13.218451147540986 5.1945720923e-05 0.0 0.0 0.0
168 1 32.31566295081968 13.415268196721312 8.96044112573e-05 0.0 0.0 0.0
169 1 34.62970229508197 12.580790163934427 7.95656351031e-05 0.0 0.0 0.0
170 1 37.127481311475414 12.337520655737706 8.3658572842e-05 0.0 0.0 0.0
171 1 39.47338098360656 13.691458360655739 6.47966316112e-05 0.0 0.0 0.0
172 1 42.05633967213115 12.273749508196723 3.92337300552e-05 0.0 0.0 0.0
173 1 44.8005186885246 12.009576393442623 3.17863935688e-05 0.0 0.0 0.0
174 1 47.4590131147541 12.260571147540984 5.25766170709e-05 0.0 0.0 0.0
175 1 50.00460786885247 12.52176524590164 9.49524742732e-05 0.0 0.0 0.0
176 1 52.65133770491804 13.37835868852459 9.59555938179e-05 0.0 0.0 0.0
177 1 55.20571803278689 11.868350819672132 7.80969529009e-05 0.0 0.0 0.0
178 1 57.75706885245902 11.627 5.34939034257e-05 0.0 0.0 0.0
179 1 60.42758032786886 11.324705573770492 8.04065763524e-05 0.0 0.0 0.0
180 1 64.32756721311476 10.816202622950822 7.23083316597e-05 0.0 0.0 0.0
181 1 65.87615081967213 10.6376131147541 8.42372923041e-05 0.0 0.0 0.0
182 1 68.78700327868853 11.16813049180328 8.58455409956e-05 0.0 0.0 0.0
183 1 72.49613114754099 11.97428262295082 2.68815935537e-05 0.0 0.0 0.0
184 1 74.04774426229508 12.126666885245902 3.85266648418e-05 0.0 0.0 0.0
185 1 76.8576131147541 12.472081311475412 8.24797816245e-05 0.0 0.0 0.0
186 1 79.7225180327869 12.650569836065575 4.95525829943e-05 0.0 0.0 0.0
187 1 1.398198819672131 15.119720000000001 3.97580908927e-05 0.0 0.0 0.0
188 1 4.189108 14.795007213114756 4.04864202776e-05 0.0 0.0 0.0
189 1 7.0207842622950825 14.456358688524592 2.30543011963e-05 0.0 0.0 0.0
190 1 9.703918688524592 14.78642360655738 6.44291529016e-05 0.0 0.0 0.0
191 1 12.356859016393443 14.701748852459017 6.91361052415e-07 0.0 0.0 0.0
192 1 14.975313442622951 14.699274754098363 9.20277861958e-05 0.0 0.0 0.0
193 1 17.262945573770494 14.644087213114755 5.92731305415e-05 0.0 0.0 0.0
194 1 19.26393573770492 16.368432786885247 4.95257066894e-05 0.0 0.0 0.0
195 1 22.08294360655738 15.53021836065574 8.69006668982e-05 0.0 0.0 0.0
196 1 24.359518032786887 15.383236721311476 9.77848416198e-05 0.0 0.0 0.0
197 1 27.501219016393446 14.550475409836066 3.67100066695e-05 0.0 0.0 0.0
198 1 30.447163278688528 15.378843934426232 3.35540187102e-05 0.0 0.0 0.0
199 1 34.26247540983607 15.3068931147541 7.15654904172e-05 0.0 0.0 0.0
200 1 35.76501049180328 14.863928524590166 9.61634191226e-05 0.0 0.0 0.0
201 1 38.673136393442626 15.012929836065576 5.81093858508e-05 0.0 0.0 0.0
202 1 41.97126098360656 14.547445901639344 5.58347012729e-05 0.0 0.0 0.0
203 1 43.47273573770492 14.302712131147542 4.10939753429e-05 0.0 0.0 0.0
204 1 46.13092721311476 14.38052 9.87727339752e-05 0.0 0.0 0.0
205 1 48.86152393442623 14.730882622950821 6.41287556337e-05 0.0 0.0 0.0
206 1 51.80307540983607 14.66509180327869 6.98622423239e-05 0.0 0.0 0.0
207 1 54.28323278688525 14.575317377049183 8.10645814518e-05 0.0 0.0 0.0
208 1 56.76440000000001 14.214603934426231 8.59510914061e-05 0.0 0.0 0.0
209 1 59.84288524590164 13.625819016393445 3.65181485403e-05 0.0 0.0 0.0
210 1 61.36268852459017 13.515746885245903 8.23789277955e-05 0.0 0.0 0.0
211 1 63.62573114754099 13.440261639344264 9.69309022396e-05 0.0 0.0 0.0
212 1 67.70193442622951 12.86904786885246 8.60426251502e-05 0.0 0.0 0.0
213 1 69.04047213114754 13.630009836065575 3.66044144944e-05 0.0 0.0 0.0
214 1 72.53702950819672 15.378641967213115 6.86807020746e-06 0.0 0.0 0.0
215 1 75.41758688524591 14.476201967213116 5.33941780239e-05 0.0 0.0 0.0
216 1 78.09213770491804 14.65706360655738 8.95905377556e-05 0.0 0.0 0.0
217 1 80.37386229508196 14.058836721311478 5.07647938285e-05 0.0 0.0 0.0
218 1 82.46826229508198 17.23027737704918 7.36163971585e-06 0.0 0.0 0.0
219 1 2.67038524590164 17.12722360655738 6.97847404736e-05 0.0 0.0 0.0
220 1 5.39964393442623 16.817860327868857 9.2086647279e-05 0.0 0.0 0.0
221 1 8.273940327868853 16.925306885245902 9.60580026327e-05 0.0 0.0 0.0
222 1 11.882539016393444 16.836340327868857 8.86234023644e-05 0.0 0.0 0.0
223 1 13.417136393442625 16.99634885245902 6.06028693604e-05 0.0 0.0 0.0
224 1 15.915723278688526 17.26107737704918 6.37457341317e-05 0.0 0.0 0.0
225 1 18.397496393442623 17.63582754098361 2.0600388014e-05 0.0 0.0 0.0
226 1 20.83710885245902 17.89379016393443 6.31680311699e-05 0.0 0.0 0.0
227 1 23.180887868852462 18.044457704918035 2.5817263091e-05 0.0 0.0 0.0
228 1 25.46852 17.904746885245906 9.05994349134e-05 0.0 0.0 0.0
229 1 27.817449180327873 18.756341639344264 7.129288093e-05 0.0 0.0 0.0
230 1 30.698965901639347 17.711060327868854 1.35950664341e-05 0.0 0.0 0.0
231 1 34.09676131147542 17.779577704918037 6.80559848018e-05 0.0 0.0 0.0
232 1 36.979893770491806 17.018464262295083 5.77289072e-05 0.0 0.0 0.0
233 1 39.72932393442623 17.46683147540984 8.68687049433e-05 0.0 0.0 0.0
234 1 42.34530426229509 17.182916065573774 8.06674230688e-06 0.0 0.0 0.0
235 1 45.03449770491804 16.582720000000002 6.86571567156e-05 0.0 0.0 0.0
236 1 47.51298885245902 17.69500393442623 4.61704423711e-05 0.0 0.0 0.0
237 1 50.30750819672132 16.71975475409836 6.79860172391e-06 0.0 0.0 0.0
238 1 52.93106229508197 17.049617704918035 3.06379978406e-05 0.0 0.0 0.0
239 1 55.36830163934427 16.819779016393444 6.41446671904e-05 0.0 0.0 0.0
240 1 58.0120524590164 16.674514098360657 4.57342179242e-05 0.0 0.0 0.0
241 1 60.472013114754105 16.40726098360656 6.90290089076e-05 0.0 0.0 0.0
242 1 62.76333114754099 16.01367737704918 4.01179911558e-05 0.0 0.0 0.0
243 1 65.27125901639344 15.474273442622952 4.01997094836e-05 0.0 0.0 0.0
244 1 67.72061639344264 16.52849180327869 8.73088139961e-06 0.0 0.0 0.0
245 1 69.81754098360656 14.970718688524592 1.25262266403e-06 0.0 0.0 0.0
246 1 74.33504262295084 16.70177967213115 7.74227615305e-06 0.0 0.0 0.0
247 1 76.85306885245903 16.86264655737705 2.82393880695e-05 0.0 0.0 0.0
248 1 79.59224918032787 16.862141639344266 8.53440286663e-05 0.0 0.0 0.0
249 1 1.1346619016393444 19.29741180327869 8.48944712048e-05 0.0 0.0 0.0
250 1 3.9235009180327873 19.26938885245902 3.1571933441e-07 0.0 0.0 0.0
251 1 6.570700327868853 18.958561311475414 9.27205739062e-05 0.0 0.0 0.0
252 1 9.340781639344264 19.335230163934426 4.81123700704e-06 0.0 0.0 0.0
253 1 11.847901639344263 19.478172459016395 7.90863400638e-06 0.0 0.0 0.0
254 1 14.48685573770492 19.597232131147543 2.84963785993e-06 0.0 0.0 0.0
255 1 17.056434098360658 19.894123934426233 7.26424882666e-05 0.0 0.0 0.0
256 1 19.641059016393445 20.168748852459018 2.333199823e-05 0.0 0.0 0.0
257 1 21.725057704918033 21.72748131147541 2.08838362314e-05 0.0 0.0 0.0
258 1 24.42591475409836 20.547841311475413 7.61640018628e-05 0.0 0.0 0.0
259 1 27.187715409836066 20.165820327868854 3.94384127975e-05 0.0 0.0 0.0
260 1 29.70059147540984 19.793948196721313 5.22677580793e-05 0.0 0.0 0.0
261 1 32.25658754098361 20.147289836065575 8.58497058312e-05 0.0 0.0 0.0
262 1 36.621957377049185 19.035561311475412 4.40176177469e-05 0.0 0.0 0.0
263 1 38.11222295081968 19.396527213114755 7.23832721132e-05 0.0 0.0 0.0
264 1 41.47320983606557 19.576025573770494 7.15639471894e-05 0.0 0.0 0.0
265 1 44.26747672131148 19.02803803278689 2.16008830271e-05 0.0 0.0 0.0
266 1 46.992165901639346 19.126244590163935 6.04710877822e-05 0.0 0.0 0.0
267 1 49.51438295081968 18.99557180327869 7.10978075115e-05 0.0 0.0 0.0
268 1 51.46276065573771 20.57106754098361 1.54500195011e-05 0.0 0.0 0.0
269 1 54.10247213114754 19.43444655737705 6.92375254565e-05 0.0 0.0 0.0
270 1 56.93556721311476 19.01748524590164 9.88806466736e-05 0.0 0.0 0.0
271 1 59.80097704918033 18.891811147540984 1.71065896621e-05 0.0 0.0 0.0
272 1 62.54066229508197 18.612036065573772 3.39473442732e-05 0.0 0.0 0.0
273 1 64.97790163934427 17.837542295081967 7.550487894e-05 0.0 0.0 0.0
274 1 67.2131737704918 18.735690491803282 6.07552183635e-05 0.0 0.0 0.0
275 1 69.87661639344263 17.865868196721312 1.77523436112e-05 0.0 0.0 0.0
276 1 72.56782950819674 18.403403934426233 8.42409709379e-05 0.0 0.0 0.0
277 1 75.17876065573772 19.15199540983607 4.55465234673e-05 0.0 0.0 0.0
278 1 77.98660983606558 19.12104393442623 8.09651993183e-05 0.0 0.0 0.0
279 1 80.86666229508197 19.139624918032787 3.93809912504e-05 0.0 0.0 0.0
280 1 82.13198688524591 21.231146885245902 9.85029091735e-05 0.0 0.0 0.0
281 1 2.2975941639344266 21.536672786885248 8.89284396082e-05 0.0 0.0 0.0
282 1 6.174390163934427 21.196206557377053 8.37148285549e-06 0.0 0.0 0.0
283 1 7.708987540983607 21.248415081967217 4.58697592416e-06 0.0 0.0 0.0
284 1 10.514867540983607 21.796756065573774 5.83843196874e-05 0.0 0.0 0.0
285 1 13.179572459016395 21.924803278688525 4.06006884825e-06 0.0 0.0 0.0
286 1 15.668717377049182 22.156611147540985 5.08201959971e-05 0.0 0.0 0.0
287 1 18.31736590163935 22.415432131147544 2.61736767022e-05 0.0 0.0 0.0
288 1 20.924611147540986 23.064908196721316 8.17066228738e-05 0.0 0.0 0.0
289 1 23.46308655737705 23.11848 4.83185262843e-05 0.0 0.0 0.0
290 1 26.093608524590167 22.56332262295082 9.36026518203e-05 0.0 0.0 0.0
291 1 28.85359147540984 22.30929836065574 9.57640721173e-05 0.0 0.0 0.0
292 1 31.64376852459017 21.581660983606557 1.75071086155e-05 0.0 0.0 0.0
293 1 34.31150295081967 21.861032131147542 8.7948534094e-05 0.0 0.0 0.0
294 1 36.92404983606558 21.65139016393443 4.18463275397e-05 0.0 0.0 0.0
295 1 39.01112852459016 20.660589508196725 1.79401843758e-05 0.0 0.0 0.0
296 1 43.00765573770492 21.360759344262295 4.19329783262e-05 0.0 0.0 0.0
297 1 45.85933180327869 21.296483278688527 4.87458603038e-05 0.0 0.0 0.0
298 1 48.584828852459026 21.400900327868854 7.13454480749e-05 0.0 0.0 0.0
299 1 50.2097055737705 22.944283278688527 8.4591753479e-05 0.0 0.0 0.0
300 1 53.50666885245902 22.069815737704918 7.91000621616e-06 0.0 0.0 0.0
301 1 56.002983606557386 21.26058360655738 5.86901226642e-05 0.0 0.0 0.0
302 1 58.545750819672136 21.027008524590165 2.19738761161e-05 0.0 0.0 0.0
303 1 61.164760655737716 21.014638032786888 4.046030131e-05 0.0 0.0 0.0
304 1 65.19451147540984 20.235044590163934 3.9008316837e-05 0.0 0.0 0.0
305 1 66.77137049180328 20.182331147540985 2.27888014847e-05 0.0 0.0 0.0
306 1 69.76452459016393 20.96374229508197 7.13557183429e-05 0.0 0.0 0.0
307 1 71.22575737704918 20.373745573770496 8.20546613567e-05 0.0 0.0 0.0
308 1 73.62058360655737 22.108946885245903 2.22530097196e-05 0.0 0.0 0.0
309 1 76.46327213114755 21.376260327868856 4.33425252471e-05 0.0 0.0 0.0
310 1 79.28374426229509 21.25553442622951 6.11632507658e-05 0.0 0.0 0.0
311 1 0.7523430163934427 23.45692655737705 5.16955526867e-05 0.0 0.0 0.0
312 1 3.018723147540984 22.91363475409836 1.75849553611e-05 0.0 0.0 0.0
313 1 7.252137704918034 23.520697704918035 1.18232877096e-05 0.0 0.0 0.0
314 1 8.796480000000003 23.585226229508198 2.66272921252e-05 0.0 0.0 0.0
315 1 11.645883934426232 24.171486557377055 1.18420592395e-05 0.0 0.0 0.0
316 1 14.35365836065574 24.536340327868857 2.03425396021e-05 0.0 0.0 0.0
317 1 17.100109508196724 24.60505967213115 6.6136651151e-05 0.0 0.0 0.0
318 1 19.42404524590164 26.26629049180328 3.12300902434e-05 0.0 0.0 0.0
319 1 22.28536524590164 25.51325573770492 8.23958695249e-05 0.0 0.0 0.0
320 1 25.03514885245902 25.117652459016398 9.3563261263e-05 0.0 0.0 0.0
321 1 27.676324590163937 24.64040393442623 6.45559121491e-05 0.0 0.0 0.0
322 1 30.36041836065574 24.047175737704922 4.41247094059e-05 0.0 0.0 0.0
323 1 33.1287324590164 23.94477836065574 3.08792468649e-05 0.0 0.0 0.0
324 1 36.03731278688525 23.99592655737705 4.14235828278e-05 0.0 0.0 0.0
325 1 38.756296393442625 23.568917377049182 3.02842095034e-05 0.0 0.0 0.0
326 1 41.44609573770492 23.441779016393447 1.48204453141e-05 0.0 0.0 0.0
327 1 44.22243803278689 23.391085245901643 3.96217120277e-05 0.0 0.0 0.0
328 1 46.83609573770492 23.60254491803279 9.32021941209e-06 0.0 0.0 0.0
329 1 49.25081573770492 24.133617704918034 2.83448845547e-05 0.0 0.0 0.0
330 1 51.48346229508197 23.774923934426234 7.13535272209e-06 0.0 0.0 0.0
331 1 55.9292655737705 23.611885901639347 1.18343705665e-05 0.0 0.0 0.0
332 1 57.44856393442624 23.488281967213116 5.53478370037e-05 0.0 0.0 0.0
333 1 59.787849180327875 23.32377967213115 1.7487995035e-05 0.0 0.0 0.0
334 1 61.940819672131155 22.338280655737705 9.56789339062e-05 0.0 0.0 0.0
335 1 65.3656786885246 23.18290754098361 8.8023228168e-05 0.0 0.0 0.0
336 1 68.153331147541 23.317922622950825 3.4994118221e-06 0.0 0.0 0.0
337 1 70.46787540983607 23.597344262295085 2.3914409358e-05 0.0 0.0 0.0
338 1 73.14949508196722 23.595829508196722 6.2886697872e-05 0.0 0.0 0.0
339 1 75.41809180327868 23.792394098360656 4.287814713e-05 0.0 0.0 0.0
340 1 77.95328524590165 23.502116721311477 9.64444056054e-05 0.0 0.0 0.0
341 1 80.74144262295083 23.36952524590164 5.9374564082e-06 0.0 0.0 0.0
342 1 82.22539672131148 25.656046557377053 4.71551263589e-05 0.0 0.0 0.0
343 1 2.065690360655738 25.715980327868852 6.69003460104e-05 0.0 0.0 0.0
344 1 4.565600131147542 26.204135081967213 2.86001616541e-06 0.0 0.0 0.0
345 1 7.075113442622952 26.23983278688525 5.06233064704e-05 0.0 0.0 0.0
346 1 9.840751475409837 25.923198688524593 9.97002731079e-06 0.0 0.0 0.0
347 1 12.471980327868854 26.634880655737707 8.86962984051e-05 0.0 0.0 0.0
348 1 15.825999344262296 26.928440000000002 9.84077281372e-06 0.0 0.0 0.0
349 1 18.66838491803279 27.64961442622951 6.26187946384e-05 0.0 0.0 0.0
350 1 21.606250491803284 27.80740131147541 4.34790157373e-05 0.0 0.0 0.0
351 1 24.218746885245903 27.488545573770494 2.33608576711e-05 0.0 0.0 0.0
352 1 26.773480655737707 27.14757442622951 4.78098092404e-05 0.0 0.0 0.0
353 1 29.336091147540987 26.552579016393445 6.25500461987e-05 0.0 0.0 0.0
354 1 31.95161704918033 26.154148196721312 5.22013214953e-05 0.0 0.0 0.0
355 1 34.75310426229508 25.948646557377053 3.17404468887e-05 0.0 0.0 0.0
356 1 37.57403081967213 25.99570491803279 8.91438386504e-05 0.0 0.0 0.0
357 1 40.40505573770492 25.78091278688525 2.44354368681e-05 0.0 0.0 0.0
358 1 43.285411147540984 25.5232531147541 6.90130287084e-05 0.0 0.0 0.0
359 1 44.83929639344262 25.68457442622951 2.76661392616e-05 0.0 0.0 0.0
360 1 47.52530885245902 26.267148852459016 5.79143866576e-05 0.0 0.0 0.0
361 1 50.45645901639345 26.46962098360656 5.67559860126e-05 0.0 0.0 0.0
362 1 53.37791475409836 26.28214491803279 5.62843176439e-05 0.0 0.0 0.0
363 1 56.19586229508197 26.291990819672137 2.69213665146e-05 0.0 0.0 0.0
364 1 59.023908196721315 25.899972459016396 3.73272791516e-05 0.0 0.0 0.0
365 1 61.514163934426236 25.238176393442625 8.08647943087e-05 0.0 0.0 0.0
366 1 63.82264918032788 26.383280000000003 9.71870567031e-05 0.0 0.0 0.0
367 1 66.57697704918033 25.445394754098363 6.68851614852e-06 0.0 0.0 0.0
368 1 69.01623606557376 25.913605245901643 5.99735582803e-05 0.0 0.0 0.0
369 1 71.6524131147541 25.895276721311475 7.49047746598e-05 0.0 0.0 0.0
370 1 74.12196721311477 26.28103409836066 7.00572519952e-05 0.0 0.0 0.0
371 1 76.82984262295084 26.049781639344268 2.49750223652e-05 0.0 0.0 0.0
372 1 79.50338360655738 25.589094426229508 8.6516132368e-05 0.0 0.0 0.0
373 1 0.6552624262295083 28.096416393442624 5.96661950666e-05 0.0 0.0 0.0
374 1 3.186068131147541 28.33337442622951 4.4228746136e-05 0.0 0.0 0.0
375 1 5.914508852459018 28.60365704918033 1.1263846288e-05 0.0 0.0 0.0
376 1 8.579819672131148 28.22335278688525 1.42464878063e-06 0.0 0.0 0.0
377 1 10.805952786885246 29.59163016393443 1.74160422791e-05 0.0 0.0 0.0
378 1 13.161445901639347 28.028959344262297 5.22516055995e-05 0.0 0.0 0.0
379 1 16.82503016393443 29.29756590163935 6.47102438988e-05 0.0 0.0 0.0
380 1 19.217281311475414 29.118420983606562 7.21932229932e-05 0.0 0.0 0.0
381 1 23.050770491803284 29.969157377049186 2.20628138667e-06 0.0 0.0 0.0
382 1 26.000299672131153 29.662672131147545 8.96480730363e-05 0.0 0.0 0.0
383 1 28.733976393442624 29.08413704918033 6.8572302593e-06 0.0 0.0 0.0
384 1 31.199844590163938 28.569120655737706 6.29462198294e-05 0.0 0.0 0.0
385 1 33.79118491803279 28.103333770491805 9.49210182157e-05 0.0 0.0 0.0
386 1 36.021862295081974 29.20274229508197 3.5797865113e-05 0.0 0.0 0.0
387 1 38.8226931147541 28.04350098360656 6.40319387523e-05 0.0 0.0 0.0
388 1 41.516531803278696 28.861872131147543 4.73679526948e-05 0.0 0.0 0.0
389 1 43.759630163934425 28.476114754098365 9.72045117199e-05 0.0 0.0 0.0
390 1 46.307446557377055 29.23859147540984 9.07535486585e-05 0.0 0.0 0.0
391 1 49.19027606557378 28.4122931147541 9.75880692638e-05 0.0 0.0 0.0
392 1 52.0100918032787 28.400276065573774 7.77235624852e-05 0.0 0.0 0.0
393 1 54.686157377049184 28.42885442622951 5.88889612872e-05 0.0 0.0 0.0
394 1 58.26350163934426 28.15948065573771 9.1344929729e-05 0.0 0.0 0.0
395 1 60.79667540983608 27.98220393442623 4.43356426067e-05 0.0 0.0 0.0
396 1 63.1864524590164 27.772057049180333 8.14240968627e-05 0.0 0.0 0.0
397 1 65.74588196721312 27.827345573770494 6.71721807437e-05 0.0 0.0 0.0
398 1 68.01599344262296 28.03774491803279 2.51340210291e-05 0.0 0.0 0.0
399 1 70.62339016393443 29.09378098360656 9.77289615047e-05 0.0 0.0 0.0
400 1 73.1313180327869 29.48059868852459 8.27300030174e-05 0.0 0.0 0.0
401 1 75.76900983606559 28.45349442622951 6.91074420402e-05 0.0 0.0 0.0
402 1 79.23476721311475 27.752264262295085 8.74570359229e-05 0.0 0.0 0.0
403 1 80.76668852459018 27.833404590163937 5.4309895157e-05 0.0 0.0 0.0
404 1 82.07038688524591 30.337141639344267 1.05722602428e-05 0.0 0.0 0.0
405 1 1.7973971147540986 30.62055213114754 1.02100718067e-05 0.0 0.0 0.0
406 1 4.495805311475411 30.69038229508197 8.50380001266e-05 0.0 0.0 0.0
407 1 7.353777704918033 30.686241967213117 2.33178574328e-05 0.0 0.0 0.0
408 1 10.019744918032789 30.918706229508203 1.66020758273e-05 0.0 0.0 0.0
409 1 12.508586885245903 30.888512131147543 9.56732688376e-05 0.0 0.0 0.0
410 1 15.108510819672132 30.974752131147543 9.28885143803e-05 0.0 0.0 0.0
411 1 17.436233442622953 30.711083934426235 3.63474166945e-05 0.0 0.0 0.0
412 1 21.38802491803279 31.853662950819675 9.75031372195e-05 0.0 0.0 0.0