ITEM: TIMESTEP
0
ITEM: NUMBER OF ATOMS
2232
ITEM: BOX BOUNDS xy xz yz pp pp pp
0.0 82.68810555352132 0
0.0 83.16 0
-10.0 10.0 0
ITEM: ATOMS id type x y z vx vy vz
1 1 1.5226257704918034 0.15969042622950821 6.49986289267e-05 0.0 0.0 0.0
2 1 4.590275475409836 0.5160312786885247 5.45065129097e-05 0.0 0.0 0.0
3 1 7.460012459016394 0.5000763737704919 5.8846534098e-05 0.0 0.0 0.0
4 1 10.097855737704919 1.3374874754098363 8.67735114784e-05 0.0 0.0 0.0
5 1 12.784272131147542 1.554859737704918 8.4111822234e-05 0.0 0.0 0.0
6 1 15.438424262295083 1.0170008524590166 6.86905383131e-05 0.0 0.0 0.0
7 1 18.279042622950822 0.978056524590164 5.53552461754e-05 0.0 0.0 0.0
8 1 20.961672131147544 1.0240495081967216 7.33257885269e-05 0.0 0.0 0.0
9 1 24.091709508196725 0.35499070163934426 5.09454020493e-05 0.0 0.0 0.0
10 1 25.624842622950823 0.24624650491803282 9.83190738437e-05 0.0 0.0 0.0
11 1 28.148019016393448 0.503089724590164 6.25921192948e-05 0.0 0.0 0.0
12 1 30.556528524590167 0.9839489180327871 3.33225019989e-05 0.0 0.0 0.0
13 1 33.10702098360656 0.7763468196721313 1.94785702496e-05 0.0 0.0 0.0
14 1 36.05372262295082 0.7101773114754099 1.05440676351e-05 0.0 0.0 0.0
15 1 39.22364852459017 83.029731147541 9.54073974718e-06 0.0 0.0 0.0
16 1 40.75208590163935 82.9873180327869 9.45822520017e-05 0.0 0.0 0.0
17 1 43.29076327868853 0.8903775081967213 5.4129615691e-05 0.0 0.0 0.0
18 1 45.97652327868853 0.9368451147540985 4.66468817609e-05 0.0 0.0 0.0
19 1 48.17296721311476 2.269051147540984 3.06428433341e-05 0.0 0.0 0.0
20 1 51.07245901639345 1.3889184262295082 3.29376995341e-05 0.0 0.0 0.0
21 1 54.36452459016394 1.1872794098360657 9.54803822527e-05 0.0 0.0 0.0
22 1 57.20468852459017 1.0664424262295082 4.43383140686e-05 0.0 0.0 0.0
23 1 59.96709508196722 1.2229821639344265 6.09464103362e-05 0.0 0.0 0.0
24 1 62.48512131147542 1.1177976393442626 8.22547151259e-05 0.0 0.0 0.0
25 1 65.45605901639345 1.0321736393442622 8.51828987389e-05 0.0 0.0 0.0
26 1 68.91828196721312 1.194737049180328 5.10909647501e-05 0.0 0.0 0.0
27 1 71.61100983606558 1.0660839344262296 9.34544381885e-05 0.0 0.0 0.0
28 1 73.95231475409837 1.3345185573770493 1.85325445613e-05 0.0 0.0 0.0
29 1 77.01009836065575 0.09060905573770493 8.08207159008e-05 0.0 0.0 0.0
30 1 78.5632262295082 82.96358688524592 1.72155376665e-05 0.0 0.0 0.0
31 1 81.36047213114755 83.07971803278689 7.62613440521e-05 0.0 0.0 0.0
32 1 0.02341193836065574 2.1658105573770494 8.89116911995e-05 0.0 0.0 0.0
33 1 2.216054950819672 1.556445180327869 7.82323449101e-05 0.0 0.0 0.0
34 1 5.985197377049181 2.5258120655737706 7.03475083452e-05 0.0 0.0 0.0
35 1 8.475756065573771 3.0486092459016394 2.64124345035e-05 0.0 0.0 0.0
36 1 11.036902295081967 3.677383672131148 3.43256696348e-05 0.0 0.0 0.0
37 1 14.076660327868854 3.5724263606557383 2.93814940225e-05 0.0 0.0 0.0
38 1 16.7390931147541 3.180367606557377 7.10131367194e-05 0.0 0.0 0.0
39 1 20.231611147540985 3.1329154098360656 2.49270747718e-05 0.0 0.0 0.0
40 1 21.726572459016396 3.446227147540984 3.00632424424e-05 0.0 0.0 0.0
41 1 24.5793593442623 3.12283724590164 8.19352045587e-05 0.0 0.0 0.0
42 1 26.80574491803279 4.009246098360656 4.24460819283e-06 0.0 0.0 0.0
43 1 29.496301639344264 3.1075988196721314 8.04267220033e-05 0.0 0.0 0.0
44 1 31.969440655737706 4.175752918032788 8.60111331816e-05 0.0 0.0 0.0
45 1 34.60990950819672 2.8509186885245903 4.08137029174e-05 0.0 0.0 0.0
46 1 37.45971737704919 3.017289180327869 1.62067027314e-05 0.0 0.0 0.0
47 1 41.4238793442623 3.3085612459016396 9.84658010892e-05 0.0 0.0 0.0
48 1 40.555723278688525 1.998046491803279 7.74360327129e-05 0.0 0.0 0.0
49 1 44.488529836065574 3.265713901639345 3.11819725076e-05 0.0 0.0 0.0
50 1 47.38413377049181 3.5970360655737705 3.44053549943e-05 0.0 0.0 0.0
51 1 49.78754360655738 3.6077100327868856 9.17901872645e-05 0.0 0.0 0.0
52 1 51.9404131147541 2.667335540983607 6.94444282981e-05 0.0 0.0 0.0
53 1 55.817678688524595 3.22232124590164 7.19717140311e-05 0.0 0.0 0.0
54 1 58.62956721311476 3.3462634754098364 9.33871672535e-05 0.0 0.0 0.0
55 1 61.373796721311486 3.6102598688524594 2.10852382184e-05 0.0 0.0 0.0
56 1 64.27354098360657 2.893352 7.11886491761e-05 0.0 0.0 0.0
57 1 66.5860655737705 2.0589749508196724 1.21790729183e-05 0.0 0.0 0.0
58 1 69.95083934426229 3.3912213770491806 8.01618368161e-05 0.0 0.0 0.0
59 1 72.20883278688525 3.6109768524590167 1.74889704543e-06 0.0 0.0 0.0
60 1 74.78795409836066 3.647851016393443 4.03343243038e-05 0.0 0.0 0.0
61 1 77.3120393442623 2.9341948196721317 9.74117725232e-06 0.0 0.0 0.0
62 1 79.98558032786886 2.13460662295082 6.75305380442e-05 0.0 0.0 0.0
63 1 1.592632655737705 4.421678295081968 3.67309483369e-05 0.0 0.0 0.0
64 1 5.153900327868853 4.541773049180328 7.09955116869e-05 0.0 0.0 0.0
65 1 6.620232786885246 5.038218557377049 7.54664171642e-05 0.0 0.0 0.0
66 1 9.281655737704918 5.587776393442624 9.11842446717e-05 0.0 0.0 0.0
67 1 11.655376393442625 5.074678688524591 7.06091971298e-05 0.0 0.0 0.0
68 1 15.154508852459017 5.593380983606558 8.40481575899e-05 0.0 0.0 0.0
69 1 17.627849836065575 5.7469770491803285 3.55229062344e-05 0.0 0.0 0.0
70 1 20.163245245901642 5.674319344262296 4.33401504399e-05 0.0 0.0 0.0
71 1 22.472386885245903 4.79589324590164 3.21989102563e-06 0.0 0.0 0.0
72 1 26.13066950819672 5.395756065573772 6.91171088716e-05 0.0 0.0 0.0
73 1 28.591942950819675 5.621605901639344 7.42322289031e-05 0.0 0.0 0.0
74 1 31.2475593442623 5.5263278688524595 8.03190709626e-05 0.0 0.0 0.0
75 1 33.69802754098361 5.4234255737704915 3.96139819547e-05 0.0 0.0 0.0
76 1 36.15819016393443 5.028402950819673 6.45688351243e-05 0.0 0.0 0.0
77 1 38.05021901639345 6.692133114754099 4.69133183818e-06 0.0 0.0 0.0
78 1 40.72275016393443 5.6969901639344265 3.81594665689e-05 0.0 0.0 0.0
79 1 43.26925377049181 5.284674098360656 7.09872426851e-05 0.0 0.0 0.0
80 1 46.18187344262296 5.558541639344263 4.47561570521e-05 0.0 0.0 0.0
81 1 49.33463213114755 5.8985029508196725 6.06205368603e-05 0.0 0.0 0.0
82 1 51.65059016393443 6.831793442622952 4.20702461043e-06 0.0 0.0 0.0
83 1 54.078236065573776 5.186820983606558 7.70906591683e-05 0.0 0.0 0.0
84 1 56.93304262295083 5.3782354098360665 3.03118367037e-05 0.0 0.0 0.0
85 1 60.16300327868853 5.661948852459017 2.69413639928e-05 0.0 0.0 0.0
86 1 62.41342295081968 4.770213114754099 5.52720350536e-05 0.0 0.0 0.0
87 1 65.3156918032787 4.751192852459017 9.94756825369e-05 0.0 0.0 0.0
88 1 67.94631475409837 5.395604590163935 1.92259177513e-06 0.0 0.0 0.0
89 1 71.13083278688525 6.071639344262296 7.32211681682e-05 0.0 0.0 0.0
90 1 73.70793442622951 6.795035409836067 2.02936979079e-05 0.0 0.0 0.0
91 1 76.26231475409836 5.575052459016393 9.7864743699e-05 0.0 0.0 0.0
92 1 78.83184262295082 4.704917114754099 3.55923412905e-05 0.0 0.0 0.0
93 1 81.59525901639346 4.386970229508197 6.57386066144e-05 0.0 0.0 0.0
94 1 0.12312931147540984 6.709552786885246 4.31487750687e-05 0.0 0.0 0.0
95 1 2.516940655737705 7.008060327868853 6.86690210099e-06 0.0 0.0 0.0
96 1 5.066297049180328 7.089453114754099 1.41904765933e-06 0.0 0.0 0.0
97 1 7.912772459016394 7.566247213114754 1.72846535638e-05 0.0 0.0 0.0
98 1 10.64877180327869 7.805477377049181 2.3673569202e-05 0.0 0.0 0.0
99 1 13.402291803278692 7.76548786885246 8.64292010259e-05 0.0 0.0 0.0
100 1 16.1477331147541 8.05465442622951 9.29669179453e-05 0.0 0.0 0.0
101 1 18.93715278688525 8.06576262295082 1.72830194116e-05 0.0 0.0 0.0
102 1 21.775549508196722 7.648952786885246 8.67940947542e-05 0.0 0.0 0.0
103 1 24.43823475409836 7.549685901639345 5.80277447639e-05 0.0 0.0 0.0
104 1 27.087438688524593 7.919184918032788 5.87845365464e-05 0.0 0.0 0.0
105 1 29.803190819672132 7.860614426229509 3.33476212405e-05 0.0 0.0 0.0
106 1 32.278400000000005 7.879548852459018 9.49936708627e-05 0.0 0.0 0.0
107 1 34.83303278688525 7.604419016393444 6.35354771708e-05 0.0 0.0 0.0
108 1 37.36034950819673 8.059754098360656 7.52425076202e-05 0.0 0.0 0.0
109 1 39.693575737704926 8.211784918032787 8.29017136377e-05 0.0 0.0 0.0
110 1 42.26264918032787 7.868491147540984 9.31242497118e-05 0.0 0.0 0.0
111 1 44.95951737704918 7.40437049180328 4.84512488791e-05 0.0 0.0 0.0
112 1 47.28067606557377 6.709249836065575 5.94905158371e-06 0.0 0.0 0.0
113 1 51.079527868852466 8.272728524590164 2.7408680192e-05 0.0 0.0 0.0
114 1 54.08379016393443 7.575133770491805 1.4043038219e-05 0.0 0.0 0.0
115 1 55.57380327868853 7.307981639344263 6.98082958297e-05 0.0 0.0 0.0
116 1 57.724249180327874 6.676581639344263 2.91775674858e-05 0.0 0.0 0.0
117 1 61.305127868852466 8.102621639344262 9.86173572716e-05 0.0 0.0 0.0
118 1 63.74640655737706 7.531811803278689 5.73316707911e-05 0.0 0.0 0.0
119 1 66.44822295081968 7.251430819672131 2.84847079459e-05 0.0 0.0 0.0
120 1 68.9884655737705 8.096108196721312 5.89497894617e-05 0.0 0.0 0.0
121 1 73.02377049180329 8.150437377049181 5.82530345068e-05 0.0 0.0 0.0
122 1 75.29590163934427 8.240413770491804 5.27606345881e-05 0.0 0.0 0.0
123 1 77.65992786885246 7.352565901639345 6.41410196053e-05 0.0 0.0 0.0
124 1 80.26278032786885 6.7006157377049185 7.9140128764e-07 0.0 0.0 0.0
125 1 1.2243656393442623 9.326896393442624 3.83150099799e-05 0.0 0.0 0.0
126 1 3.746724065573771 9.409400000000002 7.19373167073e-05 0.0 0.0 0.0
127 1 6.403521967213115 9.426516721311476 1.62868929944e-05 0.0 0.0 0.0
128 1 9.002688524590164 9.966274098360657 5.09155893308e-05 0.0 0.0 0.0
129 1 12.088848524590166 10.066449836065576 6.19316749257e-05 0.0 0.0 0.0
130 1 14.81444655737705 10.129160655737707 6.55955316485e-06 0.0 0.0 0.0
131 1 17.39634491803279 10.226508852459016 2.54388046184e-05 0.0 0.0 0.0
132 1 20.175312786885247 9.939059016393443 2.65921067949e-05 0.0 0.0 0.0
133 1 22.916613770491807 9.976271475409836 4.17854061759e-05 0.0 0.0 0.0
134 1 25.869929836065577 10.049383606557377 9.66137687434e-05 0.0 0.0 0.0
135 1 28.631932459016397 10.124262950819674 6.09210682154e-05 0.0 0.0 0.0
136 1 31.22014229508197 10.291643278688525 2.3881093623e-05 0.0 0.0 0.0
137 1 33.68489967213115 10.079476721311476 7.77463262337e-05 0.0 0.0 0.0
138 1 35.93516786885246 11.302994098360656 6.38320630361e-05 0.0 0.0 0.0
139 1 38.66990491803279 10.61024655737705 6.53651829047e-05 0.0 0.0 0.0
140 1 41.139509508196724 10.340115409836066 5.52098099925e-05 0.0 0.0 0.0
141 1 43.079202622950824 9.169664918032787 8.27221530382e-05 0.0 0.0 0.0
142 1 46.424234098360664 10.869824918032787 7.28895310587e-06 0.0 0.0 0.0
143 1 49.317313442622954 10.304215737704919 5.1520943234e-05 0.0 0.0 0.0
144 1 52.36353442622951 10.706685901639345 1.78375912118e-05 0.0 0.0 0.0
145 1 55.06787540983607 10.061754098360655 6.62442813124e-05 0.0 0.0 0.0
146 1 57.53036065573771 9.386729180327869 2.75027821916e-05 0.0 0.0 0.0
147 1 59.966085245901645 10.815748196721312 3.8496697124e-05 0.0 0.0 0.0
148 1 62.78908196721312 10.200909508196721 3.20542229991e-05 0.0 0.0 0.0
149 1 65.40708196721312 9.677662950819672 8.44287548212e-05 0.0 0.0 0.0
150 1 68.28107540983608 9.50765704918033 2.84771057853e-05 0.0 0.0 0.0
151 1 71.96293770491803 10.045192786885247 9.76348452135e-05 0.0 0.0 0.0
152 1 73.4236655737705 10.575760655737705 9.95139561374e-06 0.0 0.0 0.0
153 1 76.96768524590165 10.121081967213117 5.16378990235e-05 0.0 0.0 0.0
154 1 79.45137704918034 9.191376393442624 3.81708748608e-05 0.0 0.0 0.0
155 1 81.35946229508197 10.417216393442624 8.83911016455e-05 0.0 0.0 0.0
156 1 0.257227462295082 11.965547540983607 9.7013175667e-06 0.0 0.0 0.0
157 1 2.4873676065573775 11.75636 1.51634555022e-05 0.0 0.0 0.0
158 1 4.9997438032786885 11.683146885245902 1.98017084759e-05 0.0 0.0 0.0
159 1 7.481925901639345 11.976857704918034 8.94946456315e-05 0.0 0.0 0.0
160 1 9.655345573770491 11.369895737704919 9.18531789429e-05 0.0 0.0 0.0
161 1 13.394465573770493 12.325099672131149 7.65498777571e-05 0.0 0.0 0.0
162 1 16.032813770491806 12.560946885245903 7.19117364804e-05 0.0 0.0 0.0
163 1 18.73796262295082 12.235022295081968 8.88237002293e-05 0.0 0.0 0.0
164 1 21.453159344262296 12.157012459016395 9.94371343588e-05 0.0 0.0 0.0
165 1 23.537259016393445 11.40221049180328 7.36278029533e-05 0.0 0.0 0.0
166 1 27.309148196721313 12.26885180327869 4.59802355287e-05 0.0 0.0 0.0
167 1 29.929167868852463 12.559987540983608 5.99983100826e-05 0.0 0.0 0.0
168 1 32.50394688524591 12.649812459016395 6.26886693785e-05 0.0 0.0 0.0
169 1 35.186323934426234 12.624011147540983 1.28625841115e-05 0.0 0.0 0.0
170 1 37.792912786885246 12.97800918032787 2.66164880189e-05 0.0 0.0 0.0
171 1 40.33441770491804 12.847336393442625 3.37320298051e-05 0.0 0.0 0.0
172 1 42.918234754098364 12.139946229508197 2.21032987611e-06 0.0 0.0 0.0
173 1 45.5949062295082 12.169029508196722 8.55697458178e-05 0.0 0.0 0.0
174 1 47.9274255737705 12.54564786885246 7.69882340086e-05 0.0 0.0 0.0
175 1 49.931192786885255 11.776556721311476 7.22780960396e-05 0.0 0.0 0.0
176 1 54.04491147540985 12.478190819672133 7.84742327237e-05 0.0 0.0 0.0
177 1 57.542983606557385 11.76065180327869 8.98420756154e-05 0.0 0.0 0.0
178 1 59.06935081967214 12.053958688524592 5.08765919567e-06 0.0 0.0 0.0
179 1 61.576773770491805 12.557917377049183 6.5487204122e-05 0.0 0.0 0.0
180 1 64.18265573770492 12.260318688524592 9.30158358171e-05 0.0 0.0 0.0
181 1 66.67947540983607 11.753330491803279 1.59154825844e-05 0.0 0.0 0.0
182 1 68.81325901639345 13.279697704918034 9.18080801361e-05 0.0 0.0 0.0
183 1 71.46609836065574 12.34004524590164 1.87242523136e-05 0.0 0.0 0.0
184 1 74.11792786885246 11.967062295081968 8.62465125138e-05 0.0 0.0 0.0
185 1 78.13859016393444 11.835379672131149 1.14309472951e-05 0.0 0.0 0.0
186 1 80.58340327868854 11.731871475409836 1.53817538799e-05 0.0 0.0 0.0
187 1 1.251636262295082 14.396424918032787 9.98897106443e-05 0.0 0.0 0.0
188 1 3.8540342950819677 14.09408 5.63470734671e-05 0.0 0.0 0.0
189 1 6.2333140983606565 15.290584262295084 8.35598736322e-05 0.0 0.0 0.0
190 1 8.83389442622951 14.248736393442623 2.40258551917e-05 0.0 0.0 0.0
191 1 11.512181639344263 14.179007213114756 4.00591615884e-06 0.0 0.0 0.0
192 1 14.095392786885247 14.685440000000002 9.50857555593e-05 0.0 0.0 0.0
193 1 18.316709508196723 14.405412459016395 4.75856920426e-06 0.0 0.0 0.0
194 1 19.83944131147541 14.382590163934427 3.84325714808e-05 0.0 0.0 0.0
195 1 22.89369049180328 14.353506885245903 3.439145474e-05 0.0 0.0 0.0
196 1 25.642161311475412 14.210514098360658 1.32193359979e-05 0.0 0.0 0.0
197 1 28.32216524590164 14.708464262295085 4.29068314211e-07 0.0 0.0 0.0
198 1 30.895681967213118 14.975262950819673 2.89239245684e-05 0.0 0.0 0.0
199 1 34.482013770491804 14.786070163934427 6.72729204112e-05 0.0 0.0 0.0
200 1 36.00257442622951 15.014141639344265 7.96549596401e-05 0.0 0.0 0.0
201 1 38.777957377049184 15.248878032786887 9.47813172877e-05 0.0 0.0 0.0
202 1 42.437300327868854 14.610712131147544 6.75692957477e-05 0.0 0.0 0.0
203 1 43.95574032786886 14.410966557377051 1.19592391287e-05 0.0 0.0 0.0
204 1 46.32845114754099 14.809346885245903 8.41773086964e-05 0.0 0.0 0.0
205 1 49.06177442622951 14.78642360655738 9.86716152984e-05 0.0 0.0 0.0
206 1 53.199173770491804 14.372340327868853 9.03465349232e-05 0.0 0.0 0.0
207 1 54.72049180327869 14.575872786885247 4.27940492921e-05 0.0 0.0 0.0
208 1 57.3920131147541 14.593191475409839 5.38694013264e-06 0.0 0.0 0.0
209 1 60.1796655737705 14.696548196721313 6.60949579738e-05 0.0 0.0 0.0
210 1 62.83805901639345 14.77016524590164 1.25319323314e-05 0.0 0.0 0.0
211 1 65.41213114754099 14.447371147540984 6.53177346802e-05 0.0 0.0 0.0
212 1 68.15585573770493 14.65544786885246 3.27421877345e-05 0.0 0.0 0.0
213 1 70.7364918032787 14.82136393442623 5.87071402396e-05 0.0 0.0 0.0
214 1 73.31914754098362 14.379863606557379 4.80704695368e-05 0.0 0.0 0.0
215 1 75.98360000000001 14.173705573770494 8.89281540158e-05 0.0 0.0 0.0
216 1 79.80633442622951 14.157901639344264 4.08470038019e-05 0.0 0.0 0.0
217 1 81.3316918032787 14.265499672131149 3.65787374878e-05 0.0 0.0 0.0
218 1 82.43443278688525 16.663658360655738 9.43202191873e-05 0.0 0.0 0.0
219 1 2.462308524590164 16.569541639344262 5.75696363786e-05 0.0 0.0 0.0
220 1 5.3380439344262305 16.53000655737705 4.52198308698e-05 0.0 0.0 0.0
221 1 7.843093770491804 16.921065573770495 2.46322328936e-05 0.0 0.0 0.0
222 1 10.298358688524592 16.509153442622953 1.91997460457e-05 0.0 0.0 0.0
223 1 12.351961311475412 17.99962098360656 1.66704880342e-05 0.0 0.0 0.0
224 1 14.94380655737705 17.173575081967215 9.19581063724e-05 0.0 0.0 0.0
225 1 16.731216393442622 16.104411147540986 3.09277714044e-05 0.0 0.0 0.0
226 1 20.575965245901642 15.722289180327872 9.88204608025e-05 0.0 0.0 0.0
227 1 24.12230754098361 16.470880655737705 4.75746443089e-05 0.0 0.0 0.0
228 1 26.60892786885246 16.665021639344264 1.85827929735e-05 0.0 0.0 0.0
229 1 29.10842360655738 17.17382754098361 4.86667697527e-05 0.0 0.0 0.0
230 1 31.690422950819677 17.475768524590165 7.99051415128e-05 0.0 0.0 0.0
231 1 34.29827409836066 17.374128524590166 2.45922190744e-06 0.0 0.0 0.0
232 1 37.038060327868855 17.298390819672132 1.64427943391e-05 0.0 0.0 0.0
233 1 39.7308386885246 17.461933770491804 5.41311664429e-05 0.0 0.0 0.0
234 1 42.3879193442623 17.291271475409836 8.04173524923e-06 0.0 0.0 0.0
235 1 44.88559737704919 17.099352131147544 5.63620886275e-05 0.0 0.0 0.0
236 1 47.52374360655738 17.015838688524592 8.9810918779e-05 0.0 0.0 0.0
237 1 49.62061770491804 16.243516065573772 6.26502827721e-05 0.0 0.0 0.0
238 1 53.28955409836066 16.82417180327869 9.77063075825e-05 0.0 0.0 0.0
239 1 56.02721967213115 16.848256393442625 5.18506450837e-05 0.0 0.0 0.0
240 1 58.635626229508205 16.834472131147542 3.93724527385e-05 0.0 0.0 0.0
241 1 61.29099016393444 17.086981639344263 2.00163680795e-05 0.0 0.0 0.0
242 1 64.22708852459017 17.03366229508197 6.77894008335e-06 0.0 0.0 0.0
243 1 66.90365901639345 16.757876065573775 3.95670859369e-06 0.0 0.0 0.0
244 1 69.5277180327869 17.054212459016398 6.89851455457e-05 0.0 0.0 0.0
245 1 72.13158032786886 16.8961731147541 8.50054111737e-05 0.0 0.0 0.0
246 1 74.64102295081967 16.576812459016395 8.75636026458e-06 0.0 0.0 0.0
247 1 77.1888393442623 16.637503606557377 6.69586911146e-05 0.0 0.0 0.0
248 1 79.58619016393445 16.628566557377052 8.50441363702e-05 0.0 0.0 0.0
249 1 1.0945966557377051 18.905393442622955 9.49675816186e-05 0.0 0.0 0.0
250 1 4.00499468852459 18.617287213114754 4.56085428053e-05 0.0 0.0 0.0
251 1 6.402714098360656 20.090335081967215 1.77801314363e-05 0.0 0.0 0.0
252 1 9.188195409836066 19.190924590163938 4.29694009226e-06 0.0 0.0 0.0
253 1 11.858100983606558 19.45025049180328 7.81456416454e-05 0.0 0.0 0.0
254 1 14.486401311475412 19.6188931147541 7.54122772312e-05 0.0 0.0 0.0
255 1 17.120811147540984 18.915693770491803 9.08786128578e-05 0.0 0.0 0.0
256 1 19.824445245901643 18.353568524590166 8.93444407395e-05 0.0 0.0 0.0
257 1 22.610380983606557 18.68100786885246 4.07130317302e-06 0.0 0.0 0.0
258 1 25.209648524590165 18.970578360655736 8.65797953768e-05 0.0 0.0 0.0
259 1 27.62815540983607 20.271903606557377 7.27734593815e-06 0.0 0.0 0.0
260 1 30.34809836065574 19.666506885245905 5.20334472057e-05 0.0 0.0 0.0
261 1 33.13055016393443 19.734317377049184 6.21784301777e-05 0.0 0.0 0.0
262 1 35.82327803278689 19.568098360655743 2.46394913057e-05 0.0 0.0 0.0
263 1 38.388716065573774 19.620660327868855 1.83481352433e-05 0.0 0.0 0.0
264 1 41.11774754098361 19.625558032786888 7.63414971308e-05 0.0 0.0 0.0
265 1 43.800780983606565 19.658478688524593 5.55548974944e-05 0.0 0.0 0.0
266 1 46.35702950819673 19.37208918032787 1.36714428797e-05 0.0 0.0 0.0
267 1 49.00244655737705 19.191126557377054 1.71651884079e-05 0.0 0.0 0.0
268 1 52.709908196721315 19.091102295081967 7.95971903542e-05 0.0 0.0 0.0
269 1 54.2428393442623 18.95628918032787 2.39107923889e-05 0.0 0.0 0.0
270 1 57.02443278688525 19.136140983606563 2.25383208249e-05 0.0 0.0 0.0
271 1 59.816629508196726 19.24232524590164 8.4180225718e-05 0.0 0.0 0.0
272 1 62.022111475409844 18.45046229508197 1.3302925423e-05 0.0 0.0 0.0
273 1 65.6383344262295 19.137453770491803 8.11656618068e-05 0.0 0.0 0.0
274 1 68.3260131147541 19.18648131147541 4.75133877857e-05 0.0 0.0 0.0
275 1 70.96976393442623 19.29175672131148 3.37712241054e-05 0.0 0.0 0.0
276 1 73.43022950819673 19.117459016393443 6.99194434955e-05 0.0 0.0 0.0
277 1 75.92704918032787 18.971184262295083 5.76215063711e-05 0.0 0.0 0.0
278 1 78.42033442622952 19.12109442622951 7.59288006354e-05 0.0 0.0 0.0
279 1 81.0428786885246 18.795674754098364 9.50551079254e-05 0.0 0.0 0.0
280 1 0.11682641967213116 21.862092459016395 5.12381600987e-05 0.0 0.0 0.0
281 1 2.922394885245902 20.795806557377052 4.68455367616e-05 0.0 0.0 0.0
282 1 5.628270819672132 21.41837049180328 4.1153003916e-05 0.0 0.0 0.0
283 1 8.110245901639345 21.650582295081968 4.37299273871e-05 0.0 0.0 0.0
284 1 10.580910819672132 21.62745704918033 1.43497422607e-05 0.0 0.0 0.0
285 1 13.182400000000001 21.83841180327869 5.6998115463e-05 0.0 0.0 0.0
286 1 16.92303475409836 21.14642163934426 3.24135821588e-05 0.0 0.0 0.0
287 1 18.424913442622955 20.81585180327869 2.99335275384e-05 0.0 0.0 0.0
288 1 20.87018098360656 20.711232786885247 3.1318260713e-05 0.0 0.0 0.0
289 1 23.585781639344265 21.26224983606558 9.58429048415e-05 0.0 0.0 0.0
290 1 26.914201311475413 21.61867147540984 6.43509481725e-05 0.0 0.0 0.0
291 1 29.472065573770493 22.09990885245902 2.48356048746e-06 0.0 0.0 0.0
292 1 31.943891803278692 21.848510163934428 3.97315186759e-05 0.0 0.0 0.0
293 1 34.6791337704918 21.895114098360658 6.65845422007e-05 0.0 0.0 0.0
294 1 37.350806557377055 21.94979672131148 8.80474818024e-05 0.0 0.0 0.0
295 1 40.02091409836066 21.804430819672135 3.49119257056e-05 0.0 0.0 0.0
296 1 42.352272131147544 22.97614360655738 6.37701354544e-05 0.0 0.0 0.0
297 1 45.92194163934426 21.744951475409838 4.93065793247e-05 0.0 0.0 0.0
298 1 47.4568924590164 21.584589508196725 8.71665381188e-05 0.0 0.0 0.0
299 1 49.840055081967215 21.76333049180328 7.94043277446e-05 0.0 0.0 0.0
300 1 52.44836065573771 21.520111475409838 9.02227468434e-05 0.0 0.0 0.0
301 1 55.24257704918033 21.189945573770494 6.3166007668e-06 0.0 0.0 0.0
302 1 58.05396065573771 21.318952131147544 5.02140105374e-05 0.0 0.0 0.0
303 1 61.64291803278689 21.302390819672134 5.13806893059e-05 0.0 0.0 0.0
304 1 64.28868852459017 21.40534360655738 6.67996107948e-05 0.0 0.0 0.0
305 1 66.97182295081969 21.396810491803283 2.89119075938e-05 0.0 0.0 0.0
306 1 69.76250491803279 21.526776393442624 9.82203858037e-05 0.0 0.0 0.0
307 1 72.43756065573771 21.634172459016394 8.01328590475e-05 0.0 0.0 0.0
308 1 74.95508196721312 21.42291475409836 5.94525036081e-05 0.0 0.0 0.0
309 1 77.3196131147541 22.62345836065574 9.61033996031e-05 0.0 0.0 0.0
310 1 80.042131147541 21.25987672131148 2.45998332219e-05 0.0 0.0 0.0
311 1 2.000303475409836 23.04223737704918 6.36530107634e-05 0.0 0.0 0.0
312 1 4.130219409836066 24.579056393442624 7.31509440382e-05 0.0 0.0 0.0
313 1 6.904855081967214 23.94164786885246 4.18551734411e-05 0.0 0.0 0.0
314 1 9.31397049180328 24.08953836065574 7.28341263156e-05 0.0 0.0 0.0
315 1 11.757773770491804 24.084388196721314 3.56465313313e-05 0.0 0.0 0.0
316 1 14.154266229508199 23.99219016393443 4.61831863421e-05 0.0 0.0 0.0
317 1 16.85764786885246 23.751748196721312 3.33037705033e-05 0.0 0.0 0.0
318 1 19.927852459016396 23.23637836065574 6.78118724302e-05 0.0 0.0 0.0
319 1 22.211748196721313 24.331141639344263 4.50231121639e-05 0.0 0.0 0.0
320 1 24.281912131147543 22.674808524590166 6.44002349048e-05 0.0 0.0 0.0
321 1 27.5683731147541 25.117450491803282 1.12185944512e-05 0.0 0.0 0.0
322 1 31.517236065573773 24.22197836065574 3.79786376041e-05 0.0 0.0 0.0
323 1 33.05158098360656 24.05192196721312 9.29396702201e-05 0.0 0.0 0.0
324 1 35.89275475409836 24.207537704918035 1.04129653481e-05 0.0 0.0 0.0
325 1 38.64996065573771 24.1988531147541 3.4491044988e-05 0.0 0.0 0.0
326 1 41.335872131147546 24.12771016393443 1.08960223246e-05 0.0 0.0 0.0
327 1 43.636379672131156 24.70099409836066 2.6289232028e-05 0.0 0.0 0.0
328 1 45.95213573770492 24.681504262295082 9.04159322009e-05 0.0 0.0 0.0
329 1 48.79997442622951 24.200721311475412 2.6084233842e-05 0.0 0.0 0.0
330 1 51.48548196721312 23.92281442622951 1.81653116662e-05 0.0 0.0 0.0
331 1 54.04592131147542 23.499440655737708 2.74876160882e-05 0.0 0.0 0.0
332 1 56.70885901639345 23.360234754098364 4.12289180422e-05 0.0 0.0 0.0
333 1 59.00977049180329 22.505459016393445 3.00571150483e-05 0.0 0.0 0.0
334 1 62.546721311475416 23.69327868852459 9.74254058651e-07 0.0 0.0 0.0
335 1 66.53658360655737 23.466419016393445 7.69976638413e-05 0.0 0.0 0.0
336 1 68.09880000000001 23.584771803278688 7.85507493111e-06 0.0 0.0 0.0
337 1 71.00611803278689 23.868030819672132 1.35075294972e-05 0.0 0.0 0.0
338 1 73.74428852459016 23.968459016393446 1.71061105849e-05 0.0 0.0 0.0
339 1 76.4072262295082 23.9048393442623 4.6423322721e-05 0.0 0.0 0.0
340 1 78.97372459016394 23.863032131147545 7.3191361485e-05 0.0 0.0 0.0
341 1 0.5082959344262296 23.336200655737706 3.0307508406e-05 0.0 0.0 0.0
342 1 0.5616304262295082 25.99403868852459 4.50824686879e-05 0.0 0.0 0.0
343 1 4.050311081967213 26.106382950819675 2.03298863713e-05 0.0 0.0 0.0
344 1 5.557582295081968 26.28557836065574 2.30191824855e-05 0.0 0.0 0.0
345 1 7.9615980327868865 26.502137704918034 1.27773931788e-05 0.0 0.0 0.0
346 1 10.575003278688525 26.554245245901644 5.34040742506e-05 0.0 0.0 0.0
347 1 13.177754754098363 26.508348196721315 9.72801220315e-05 0.0 0.0 0.0
348 1 15.80852918032787 26.020092459016393 4.2800286133e-05 0.0 0.0 0.0
349 1 17.91211868852459 24.865698360655742 9.19329920748e-06 0.0 0.0 0.0
350 1 21.475173770491804 25.677505573770492 8.9142056362e-06 0.0 0.0 0.0
351 1 23.956492459016395 25.68841180327869 3.6254544849e-07 0.0 0.0 0.0
352 1 26.519153442622954 26.243417704918034 8.60464328464e-06 0.0 0.0 0.0
353 1 28.783710819672134 26.93581180327869 6.1525106662e-05 0.0 0.0 0.0
354 1 31.23821836065574 26.893297704918037 9.77661722359e-05 0.0 0.0 0.0
355 1 34.37577901639345 26.255737704918037 9.64777762331e-05 0.0 0.0 0.0
356 1 37.16141180327869 26.436599344262294 8.86844668586e-05 0.0 0.0 0.0
357 1 40.53290098360656 26.36535540983607 6.14811332833e-05 0.0 0.0 0.0
358 1 42.00281836065574 26.808219016393444 2.95490864285e-05 0.0 0.0 0.0
359 1 44.672370491803285 27.169538360655743 9.34491231087e-05 0.0 0.0 0.0
360 1 46.75419803278689 26.009994098360657 3.25299479928e-05 0.0 0.0 0.0
361 1 50.526642622950824 26.26856262295082 1.9237820793e-05 0.0 0.0 0.0
362 1 53.08304262295083 26.02953442622951 8.48012645237e-05 0.0 0.0 0.0
363 1 55.6248 25.67992918032787 9.38350414597e-05 0.0 0.0 0.0
364 1 58.32156721311476 25.308259016393446 9.09008934307e-05 0.0 0.0 0.0
365 1 60.860800000000005 25.319215737704923 5.80223807518e-06 0.0 0.0 0.0
366 1 63.29147540983607 26.512236065573774 3.42320799445e-05 0.0 0.0 0.0
367 1 66.97990163934426 25.86674885245902 3.86696239763e-05 0.0 0.0 0.0
368 1 69.71756721311476 25.788940983606558 1.44506771042e-05 0.0 0.0 0.0
369 1 72.30931147540984 26.211759344262298 2.65912334293e-05 0.0 0.0 0.0
370 1 74.8980262295082 26.326123278688527 1.4406043453e-05 0.0 0.0 0.0
371 1 78.36479344262295 26.06467672131148 5.95247581125e-05 0.0 0.0 0.0
372 1 79.64678032786885 25.228986885245906 4.4989033495e-05 0.0 0.0 0.0
373 1 0.9385062950819673 28.277681967213116 6.12916128877e-05 0.0 0.0 0.0
374 1 3.4683779016393443 28.877878032786885 7.88163620098e-06 0.0 0.0 0.0
375 1 6.305214426229509 28.83465704918033 9.36068217755e-06 0.0 0.0 0.0
376 1 9.142500327868854 28.877979016393443 3.62493969362e-05 0.0 0.0 0.0
377 1 11.967617704918034 28.894893770491805 9.53587842547e-05 0.0 0.0 0.0
378 1 15.77045836065574 28.014367213114756 9.39618494476e-05 0.0 0.0 0.0
379 1 17.292584262295083 27.804119344262297 8.64491769637e-05 0.0 0.0 0.0
380 1 19.662467540983606 27.72515016393443 8.80984224185e-05 0.0 0.0 0.0
381 1 22.3354531147541 28.07344262295082 5.59130342638e-06 0.0 0.0 0.0
382 1 24.914473442622953 28.296111475409838 3.10040956011e-05 0.0 0.0 0.0
383 1 27.374535081967217 29.00759147540984 3.47111574062e-05 0.0 0.0 0.0
384 1 30.162389508196725 29.296758032786887 5.42589729275e-05 0.0 0.0 0.0
385 1 32.151211147540984 28.13635540983607 8.57528714286e-05 0.0 0.0 0.0
386 1 35.37970754098361 29.68781704918033 1.66422675873e-05 0.0 0.0 0.0
387 1 38.096923934426236 29.108221639344265 8.27035280492e-05 0.0 0.0 0.0
388 1 40.236211147540985 29.070049836065575 5.2422036296e-05 0.0 0.0 0.0
389 1 43.21068327868853 29.244953442622954 5.38343418206e-05 0.0 0.0 0.0
390 1 46.429232786885244 29.00370360655738 5.12891361688e-05 0.0 0.0 0.0
391 1 49.183661639344265 28.443749508196724 2.18614735307e-05 0.0 0.0 0.0
392 1 52.082800000000006 28.499441967213116 4.62999711176e-05 0.0 0.0 0.0
393 1 54.72756065573771 28.182959344262297 3.56601588793e-05 0.0 0.0 0.0
394 1 57.2920393442623 27.688493114754102 5.31261193431e-05 0.0 0.0 0.0
395 1 59.19457049180328 29.03298885245902 1.95967068154e-05 0.0 0.0 0.0
396 1 63.07587540983607 28.072988196721315 9.69120861554e-05 0.0 0.0 0.0
397 1 66.22858360655738 28.27919672131148 9.74731577786e-05 0.0 0.0 0.0
398 1 68.73752131147542 27.97498360655738 6.73522019362e-05 0.0 0.0 0.0
399 1 70.59107540983607 29.703671475409838 9.85602041686e-06 0.0 0.0 0.0
400 1 73.31460327868852 28.692169180327873 1.40769469923e-05 0.0 0.0 0.0
401 1 75.82859016393444 28.85157180327869 9.20778339653e-05 0.0 0.0 0.0
402 1 78.33045901639345 28.78825508196722 2.31193974331e-05 0.0 0.0 0.0
403 1 82.10219672131147 28.251678688524596 5.97260760087e-05 0.0 0.0 0.0
404 1 82.11027540983608 30.671801311475413 1.79864397932e-05 0.0 0.0 0.0
405 1 1.8918470819672133 31.69254360655738 7.3222135973e-05 0.0 0.0 0.0
406 1 4.771031081967214 31.050944262295086 7.1165631449e-05 0.0 0.0 0.0
407 1 7.5286308196721325 31.018074098360657 5.04991283912e-05 0.0 0.0 0.0
408 1 10.36036262295082 31.07119147540984 5.61996156831e-05 0.0 0.0 0.0
409 1 14.069036065573773 30.834485901639347 5.25265508079e-05 0.0 0.0 0.0
410 1 15.59409049180328 30.67841573770492 5.6673307054e-05 0.0 0.0 0.0
411 1 18.245061639344264 30.344614426229512 9.72777615254e-05 0.0 0.0 0.0
412 1 20.75425180327869 30.175416393442624 3.83988150692e-05 0.0 0.0 0.0