ITEM: TIMESTEP
0
ITEM: NUMBER OF ATOMS
2232
ITEM: BOX BOUNDS xy xz yz pp pp pp
0.0 82.68810555352132 0
0.0 83.16 0
-10.0 10.0 0
ITEM: ATOMS id type x y z vx vy vz
1 1 1.4974960000000002 0.8767447213114755 8.69634799254e-05 0.0 0.0 0.0
2 1 4.168143803278689 1.022413573770492 6.25868189878e-05 0.0 0.0 0.0
3 1 6.803669508196722 1.0965153442622952 7.9193340681e-05 0.0 0.0 0.0
4 1 9.304478032786887 1.114197573770492 5.71535790519e-05 0.0 0.0 0.0
5 1 11.9404531147541 1.1326220327868854 9.95863052466e-05 0.0 0.0 0.0
6 1 14.540579016393444 1.175529967213115 5.51216789892e-05 0.0 0.0 0.0
7 1 17.175998688524594 1.1378428852459017 6.57439839491e-05 0.0 0.0 0.0
8 1 19.876199344262297 1.0353192786885246 1.84953478946e-05 0.0 0.0 0.0
9 1 22.566705573770495 0.968513573770492 7.73676894325e-05 0.0 0.0 0.0
10 1 25.260140327868854 0.932856262295082 3.19807280001e-05 0.0 0.0 0.0
11 1 28.002047213114757 0.9840044590163934 5.22765290884e-05 0.0 0.0 0.0
12 1 30.773946229508198 0.906368262295082 1.22149790383e-05 0.0 0.0 0.0
13 1 33.41971672131148 0.26399740327868854 5.43750161695e-05 0.0 0.0 0.0
14 1 36.144456393442624 0.3688895803278689 7.57024422602e-05 0.0 0.0 0.0
15 1 38.79148918032787 0.5856998688524591 8.59600949473e-05 0.0 0.0 0.0
16 1 41.495375737704926 0.6912428852459016 1.7604803676e-06 0.0 0.0 0.0
17 1 44.22511409836066 0.7517825573770492 3.72163088642e-05 0.0 0.0 0.0
18 1 46.9517724590164 0.6713844590163935 1.17406310547e-05 0.0 0.0 0.0
19 1 49.65959737704918 0.7434110163934426 4.68877654676e-05 0.0 0.0 0.0
20 1 52.09895737704919 0.7717874098360656 2.56520562382e-05 0.0 0.0 0.0
21 1 54.68413770491804 0.45031821639344266 1.09046384641e-05 0.0 0.0 0.0
22 1 57.42028852459017 0.3876356721311476 5.41125637534e-05 0.0 0.0 0.0
23 1 60.114026229508205 0.4537592327868853 8.18480101399e-05 0.0 0.0 0.0
24 1 62.768380327868854 0.5346728524590164 7.46237687992e-05 0.0 0.0 0.0
25 1 65.42374426229509 0.38819512131147543 1.77753284403e-05 0.0 0.0 0.0
26 1 67.75899016393444 1.7092333770491805 7.28932326828e-05 0.0 0.0 0.0
27 1 70.62288524590164 0.8594916721311476 7.71203710985e-06 0.0 0.0 0.0
28 1 73.42921967213115 0.8580980983606559 3.22467394258e-05 0.0 0.0 0.0
29 1 76.17597377049181 0.8487268196721313 1.12074370404e-05 0.0 0.0 0.0
30 1 78.85001967213115 0.5621454426229509 5.35226499878e-05 0.0 0.0 0.0
31 1 81.5780918032787 0.6655980983606559 3.62736474337e-05 0.0 0.0 0.0
32 1 82.68537704918033 3.1091640655737707 9.12453345511e-06 0.0 0.0 0.0
33 1 2.778750754098361 3.2464866229508202 2.69353989826e-05 0.0 0.0 0.0
34 1 5.536880655737705 3.3903781639344266 5.69515410503e-05 0.0 0.0 0.0
35 1 8.254753442622953 3.522676786885246 6.94444533241e-05 0.0 0.0 0.0
36 1 10.873813770491804 3.392044393442623 9.00203292209e-05 0.0 0.0 0.0
37 1 13.130040000000001 4.6616203934426235 8.00325702049e-05 0.0 0.0 0.0
38 1 15.871391475409837 3.53508262295082 5.72524881878e-05 0.0 0.0 0.0
39 1 18.59411147540984 3.3840868852459023 2.77461437356e-05 0.0 0.0 0.0
40 1 21.279770491803284 3.3027546885245904 4.43986388572e-05 0.0 0.0 0.0
41 1 23.942506229508197 3.2450072131147545 6.96773008336e-06 0.0 0.0 0.0
42 1 26.629528524590164 3.198827409836066 8.20095125712e-06 0.0 0.0 0.0
43 1 29.4111724590164 3.164407147540984 8.48268555548e-05 0.0 0.0 0.0
44 1 33.122824918032784 2.559318426229509 2.48656511262e-05 0.0 0.0 0.0
45 1 34.66221901639344 2.5410807868852463 6.77574265812e-06 0.0 0.0 0.0
46 1 37.32136983606558 2.7893843278688526 2.65823576756e-05 0.0 0.0 0.0
47 1 40.04580655737705 2.905571016393443 8.562479972e-05 0.0 0.0 0.0
48 1 42.79821573770492 2.9731240000000003 1.32663610953e-05 0.0 0.0 0.0
49 1 45.542091803278694 2.9820509508196724 9.20466077253e-05 0.0 0.0 0.0
50 1 48.22199475409836 3.009816393442623 4.95262496258e-05 0.0 0.0 0.0
51 1 50.832118032786894 3.2168277377049184 2.06383921772e-05 0.0 0.0 0.0
52 1 53.35317377049181 2.942258360655738 5.98313785478e-06 0.0 0.0 0.0
53 1 56.101947540983616 2.6516881311475413 6.99584371312e-05 0.0 0.0 0.0
54 1 58.85980983606558 2.705340721311476 6.37579553337e-05 0.0 0.0 0.0
55 1 61.416209836065576 2.8397448524590168 3.11983180524e-05 0.0 0.0 0.0
56 1 64.12459016393443 2.820376196721312 1.61557113549e-05 0.0 0.0 0.0
57 1 66.90668852459017 3.0023335081967217 6.44384514396e-05 0.0 0.0 0.0
58 1 69.46712786885246 3.2222808524590167 8.73150780194e-06 0.0 0.0 0.0
59 1 72.12804590163935 3.072895803278689 1.97982040346e-05 0.0 0.0 0.0
60 1 74.84551475409837 3.134409967213115 4.35830452951e-05 0.0 0.0 0.0
61 1 78.4364918032787 2.761689573770492 5.72684631242e-05 0.0 0.0 0.0
62 1 79.98204590163935 2.818386819672132 1.66804377617e-05 0.0 0.0 0.0
63 1 1.3595473442622954 5.384041967213115 5.69420147967e-05 0.0 0.0 0.0
64 1 4.145881967213115 5.545817704918033 6.56045933583e-05 0.0 0.0 0.0
65 1 6.924294426229508 5.729405901639345 2.82215067146e-05 0.0 0.0 0.0
66 1 9.656304918032788 5.836751475409836 4.17021596521e-05 0.0 0.0 0.0
67 1 12.34464 5.998123278688525 6.14464090018e-05 0.0 0.0 0.0
68 1 14.86256524590164 6.049069508196721 4.85421707523e-06 0.0 0.0 0.0
69 1 17.468851147540985 5.725972459016394 7.10838520039e-05 0.0 0.0 0.0
70 1 20.088517377049182 5.643165901639344 2.73781742258e-05 0.0 0.0 0.0
71 1 22.693440000000002 5.594188852459017 2.91123493889e-05 0.0 0.0 0.0
72 1 25.28144786885246 5.517340327868853 9.11433934861e-05 0.0 0.0 0.0
73 1 27.868193442622953 5.377225573770492 6.65599052105e-05 0.0 0.0 0.0
74 1 30.55299409836066 5.404390163934427 3.75975815894e-05 0.0 0.0 0.0
75 1 33.20270295081968 5.106841967213115 8.01386548627e-05 0.0 0.0 0.0
76 1 35.97349114754099 4.987191540983607 6.13946160728e-05 0.0 0.0 0.0
77 1 38.62633049180329 5.110325901639345 8.65036811943e-05 0.0 0.0 0.0
78 1 41.31618032786886 5.169855737704919 2.12305369237e-05 0.0 0.0 0.0
79 1 44.08944262295082 5.224689836065574 7.54039453151e-05 0.0 0.0 0.0
80 1 46.82842098360656 5.309920000000001 3.15507262782e-05 0.0 0.0 0.0
81 1 49.511252459016404 5.473513442622952 2.91002999554e-05 0.0 0.0 0.0
82 1 52.21559344262295 5.499617704918033 6.49744396909e-05 0.0 0.0 0.0
83 1 54.72958032786886 4.973169967213115 1.00169484206e-05 0.0 0.0 0.0
84 1 57.46977049180328 4.874408000000001 1.5625476627e-05 0.0 0.0 0.0
85 1 59.908019672131154 5.187426885245902 6.47459086475e-06 0.0 0.0 0.0
86 1 62.6204393442623 5.1330977049180335 9.53100251059e-05 0.0 0.0 0.0
87 1 65.33740327868853 5.148396721311476 4.60159221802e-05 0.0 0.0 0.0
88 1 67.98367868852459 5.46780786885246 2.24170798644e-05 0.0 0.0 0.0
89 1 70.68297049180329 5.440441311475411 4.49527848819e-05 0.0 0.0 0.0
90 1 73.33530491803279 5.378538360655738 7.82169918795e-06 0.0 0.0 0.0
91 1 75.94623606557379 5.562429508196722 3.48198299564e-05 0.0 0.0 0.0
92 1 78.45820327868853 5.385506229508198 9.43455713974e-05 0.0 0.0 0.0
93 1 81.24383606557377 5.250743606557378 9.32733983511e-05 0.0 0.0 0.0
94 1 0.011827502950819673 7.502880000000001 4.49162765102e-05 0.0 0.0 0.0
95 1 2.7398417704918034 7.664352786885246 9.81345591407e-05 0.0 0.0 0.0
96 1 5.451499016393443 7.847486557377049 1.61837070803e-05 0.0 0.0 0.0
97 1 8.23359737704918 8.065560655737706 8.88060458822e-06 0.0 0.0 0.0
98 1 10.89052655737705 8.260307540983607 4.10181146517e-05 0.0 0.0 0.0
99 1 13.501861639344265 8.42657704918033 6.98947059164e-05 0.0 0.0 0.0
100 1 16.265480000000004 8.205776393442624 6.72957528324e-05 0.0 0.0 0.0
101 1 18.924832786885247 8.02688393442623 4.77067860143e-05 0.0 0.0 0.0
102 1 21.514102950819673 7.978411803278689 3.87111925637e-05 0.0 0.0 0.0
103 1 24.092416393442626 7.928980327868853 6.18981245574e-06 0.0 0.0 0.0
104 1 26.651795409836065 7.81052655737705 6.212014269e-05 0.0 0.0 0.0
105 1 29.230159344262297 7.643954098360656 3.28771548468e-05 0.0 0.0 0.0
106 1 32.088197377049184 7.498840655737705 3.1067468141e-05 0.0 0.0 0.0
107 1 34.82838754098361 7.2521881967213115 1.17622615461e-05 0.0 0.0 0.0
108 1 37.36544918032787 7.379478032786886 5.1442966233e-05 0.0 0.0 0.0
109 1 39.86696459016394 7.4335547540983615 7.05925233556e-06 0.0 0.0 0.0
110 1 42.534295081967215 7.3997757377049185 6.82015578715e-05 0.0 0.0 0.0
111 1 45.36042229508197 7.518481967213115 3.58877817073e-05 0.0 0.0 0.0
112 1 48.018007868852465 7.701262295081968 8.20353066303e-05 0.0 0.0 0.0
113 1 50.773547540983614 7.801337049180328 5.78606201917e-05 0.0 0.0 0.0
114 1 54.58466885245902 7.308234098360656 4.33207011429e-05 0.0 0.0 0.0
115 1 56.13628196721312 7.0962695081967215 6.61684562082e-05 0.0 0.0 0.0
116 1 58.418006557377055 8.638743606557378 6.30551745415e-05 0.0 0.0 0.0
117 1 61.15668196721312 7.457184918032787 3.27662314853e-05 0.0 0.0 0.0
118 1 63.95443278688525 7.425375081967213 2.99230200567e-05 0.0 0.0 0.0
119 1 66.56990819672131 7.6248177049180335 8.75875722656e-05 0.0 0.0 0.0
120 1 69.23688524590165 7.72620524590164 8.89422444946e-05 0.0 0.0 0.0
121 1 71.9493049180328 7.721257049180329 5.70521234158e-05 0.0 0.0 0.0
122 1 74.67889180327869 7.796691803278689 4.87162868891e-05 0.0 0.0 0.0
123 1 77.36909508196722 7.866168524590165 9.13350573045e-05 0.0 0.0 0.0
124 1 79.93761311475411 7.536457049180329 5.42240270912e-05 0.0 0.0 0.0
125 1 1.3785979016393444 9.828936393442625 9.96290651307e-06 0.0 0.0 0.0
126 1 3.954497836065574 10.024491147540985 9.71074921406e-05 0.0 0.0 0.0
127 1 6.596249180327869 10.146428852459017 1.93177480298e-06 0.0 0.0 0.0
128 1 9.326492459016395 10.510020327868855 5.30535188798e-05 0.0 0.0 0.0
129 1 12.379883278688526 10.717541639344262 9.53858932087e-05 0.0 0.0 0.0
130 1 15.050546229508198 10.50749573770492 6.42909152547e-05 0.0 0.0 0.0
131 1 17.783869508196723 10.407875409836066 4.03730291748e-05 0.0 0.0 0.0
132 1 20.34233967213115 10.370511475409838 4.94651880056e-05 0.0 0.0 0.0
133 1 22.901567213114756 10.336328524590165 2.02631213973e-05 0.0 0.0 0.0
134 1 25.551175081967216 10.258520655737707 4.26539509908e-05 0.0 0.0 0.0
135 1 28.121207868852462 10.082506229508198 7.27976960619e-07 0.0 0.0 0.0
136 1 30.824690491803285 9.609044590163935 1.9355033297e-06 0.0 0.0 0.0
137 1 33.58270426229509 9.558552786885247 4.73262208945e-05 0.0 0.0 0.0
138 1 36.160209836065576 9.72431737704918 3.45307803974e-05 0.0 0.0 0.0
139 1 38.56064065573771 9.859988852459017 1.97636538571e-05 0.0 0.0 0.0
140 1 40.998233442622954 9.710785573770492 9.6013354271e-05 0.0 0.0 0.0
141 1 43.69005245901639 9.573043934426229 3.67237732434e-05 0.0 0.0 0.0
142 1 46.39434295081968 9.93345442622951 2.77005546802e-06 0.0 0.0 0.0
143 1 49.03794229508197 9.992933770491804 3.22819402427e-05 0.0 0.0 0.0
144 1 51.7323868852459 10.067813114754099 7.53802410177e-05 0.0 0.0 0.0
145 1 54.494288524590175 9.898110163934428 5.37896689716e-05 0.0 0.0 0.0
146 1 57.5192524590164 9.938503606557378 3.94940111456e-05 0.0 0.0 0.0
147 1 60.9920786885246 9.664484590163935 5.37536440823e-05 0.0 0.0 0.0
148 1 62.53460327868853 9.624343606557378 9.71311345137e-06 0.0 0.0 0.0
149 1 65.17784918032788 9.885083278688526 7.63929755826e-05 0.0 0.0 0.0
150 1 67.87310163934427 9.996215737704919 5.57469113811e-05 0.0 0.0 0.0
151 1 70.52543606557377 9.987278688524592 6.9048828772e-05 0.0 0.0 0.0
152 1 73.34388852459017 9.992428852459017 9.94325100753e-06 0.0 0.0 0.0
153 1 76.10881967213116 10.106590819672133 1.54256652573e-05 0.0 0.0 0.0
154 1 78.78135081967214 10.075336393442624 1.63411784295e-05 0.0 0.0 0.0
155 1 81.3927868852459 9.72204524590164 2.02404780611e-05 0.0 0.0 0.0
156 1 82.48896393442624 12.029722622950821 6.53910463751e-05 0.0 0.0 0.0
157 1 2.4370929180327874 12.292936393442623 7.98531111895e-05 0.0 0.0 0.0
158 1 5.136884590163935 12.40699737704918 8.18931688005e-05 0.0 0.0 0.0
159 1 7.796338360655739 12.524087868852462 6.06077362317e-05 0.0 0.0 0.0
160 1 10.066399344262296 11.873753442622952 2.17381275487e-05 0.0 0.0 0.0
161 1 13.881307540983608 12.89025442622951 6.64234119454e-05 0.0 0.0 0.0
162 1 16.52778491803279 12.66920131147541 5.80233280944e-05 0.0 0.0 0.0
163 1 19.17850360655738 12.7782131147541 8.43585233315e-05 0.0 0.0 0.0
164 1 21.59085049180328 12.754532459016394 6.04945053601e-05 0.0 0.0 0.0
165 1 24.299432786885248 12.622193442622953 9.56356097213e-06 0.0 0.0 0.0
166 1 27.045833442622953 12.55296918032787 3.07863789111e-05 0.0 0.0 0.0
167 1 30.533150819672134 11.704908852459017 9.56451159863e-05 0.0 0.0 0.0
168 1 32.05658950819672 11.735102950819673 3.21001468478e-05 0.0 0.0 0.0
169 1 34.603396065573776 11.966001967213115 9.40955955389e-05 0.0 0.0 0.0
170 1 37.216195409836075 12.31424393442623 1.99266085471e-05 0.0 0.0 0.0
171 1 39.84661639344263 12.280414426229509 9.75359851083e-05 0.0 0.0 0.0
172 1 42.43932000000001 11.892182950819674 7.25354549505e-05 0.0 0.0 0.0
173 1 44.74250360655738 12.9660931147541 4.30897606082e-05 0.0 0.0 0.0
174 1 47.5867068852459 12.33353180327869 7.85413398547e-05 0.0 0.0 0.0
175 1 50.20874622950821 12.31424393442623 5.20447425975e-05 0.0 0.0 0.0
176 1 52.86087868852459 12.160546885245902 7.3963930092e-06 0.0 0.0 0.0
177 1 55.60207868852459 11.947673442622953 4.60880511987e-05 0.0 0.0 0.0
178 1 58.656327868852465 12.464356065573773 8.05320544692e-05 0.0 0.0 0.0
179 1 61.13900983606558 12.253148852459018 5.66362905626e-05 0.0 0.0 0.0
180 1 63.838806557377055 12.107379016393443 4.80063495596e-06 0.0 0.0 0.0
181 1 66.56132459016393 12.247190819672133 5.11711382477e-05 0.0 0.0 0.0
182 1 69.27424918032789 12.332420983606559 9.27862561097e-05 0.0 0.0 0.0
183 1 71.96192786885246 12.12792918032787 5.40674269113e-05 0.0 0.0 0.0
184 1 74.69959344262296 12.254158688524592 5.92483804428e-05 0.0 0.0 0.0
185 1 77.3504131147541 12.40972393442623 5.39418395346e-05 0.0 0.0 0.0
186 1 80.94845901639344 12.024420983606557 6.68077878702e-05 0.0 0.0 0.0
187 1 0.9853879344262296 14.502154754098363 8.29074120355e-05 0.0 0.0 0.0
188 1 3.756267016393443 14.633887868852462 7.60493845519e-05 0.0 0.0 0.0
189 1 6.526116065573771 14.765873442622953 2.17744379949e-05 0.0 0.0 0.0
190 1 9.299075409836068 14.696851147540984 9.27639164654e-05 0.0 0.0 0.0
191 1 12.118537704918035 14.891345573770494 7.19509002958e-05 0.0 0.0 0.0
192 1 16.025593442622952 14.896596721311477 5.07500985943e-05 0.0 0.0 0.0
193 1 17.577509508196723 14.996015081967215 4.89391504453e-05 0.0 0.0 0.0
194 1 20.301491803278694 15.29113967213115 2.73810244911e-05 0.0 0.0 0.0
195 1 22.841027540983607 14.946583606557379 9.96934520609e-05 0.0 0.0 0.0
196 1 25.61449180327869 14.824241967213116 3.28010002825e-05 0.0 0.0 0.0
197 1 29.071312131147547 14.683521311475412 6.31335921267e-05 0.0 0.0 0.0
198 1 30.583440655737707 14.439191475409839 2.98068324931e-05 0.0 0.0 0.0
199 1 33.3196924590164 14.216825573770494 5.89020838029e-05 0.0 0.0 0.0
200 1 35.687354098360665 15.497348196721312 6.87319863174e-05 0.0 0.0 0.0
201 1 38.56675016393443 14.702405245901641 4.165303626e-05 0.0 0.0 0.0
202 1 41.33425639344262 14.478878032786886 8.32327047806e-05 0.0 0.0 0.0
203 1 44.13751081967214 14.367998032786886 8.32264512024e-05 0.0 0.0 0.0
204 1 46.45018688524591 15.839480655737706 3.94446066146e-05 0.0 0.0 0.0
205 1 49.07974950819673 14.684430163934428 1.31469517438e-05 0.0 0.0 0.0
206 1 51.639481967213115 14.543204590163937 7.80955977864e-06 0.0 0.0 0.0
207 1 54.138321311475416 14.247120655737707 9.00403185882e-05 0.0 0.0 0.0
208 1 56.25190819672132 13.339782950819673 8.60856807933e-05 0.0 0.0 0.0
209 1 59.84591475409837 14.74279868852459 4.03704690165e-05 0.0 0.0 0.0
210 1 62.49067540983607 14.47302098360656 6.55962812786e-05 0.0 0.0 0.0
211 1 65.17280000000001 14.460044590163935 1.44062585373e-05 0.0 0.0 0.0
212 1 67.90743606557378 14.593393442622952 9.2953044308e-05 0.0 0.0 0.0
213 1 71.47720655737706 14.301500327868855 2.70996534953e-05 0.0 0.0 0.0
214 1 73.01821639344263 14.373956065573772 2.13979037329e-05 0.0 0.0 0.0
215 1 75.6296524590164 14.617225573770494 3.74915032045e-05 0.0 0.0 0.0
216 1 78.27895737704918 14.823282622950822 8.34345592323e-05 0.0 0.0 0.0
217 1 80.8772655737705 14.659537704918034 8.9839981532e-06 0.0 0.0 0.0
218 1 82.33698360655738 16.785798032786886 4.91816632098e-05 0.0 0.0 0.0
219 1 2.3766239344262297 16.795795409836067 9.97132783065e-05 0.0 0.0 0.0
220 1 5.12779606557377 16.926720655737707 7.16850308751e-05 0.0 0.0 0.0
221 1 7.8189081967213125 16.97701049180328 4.81975315038e-05 0.0 0.0 0.0
222 1 10.410349508196722 16.99129967213115 2.74714660796e-05 0.0 0.0 0.0
223 1 13.048546229508197 17.31071081967213 5.79753788256e-05 0.0 0.0 0.0
224 1 15.681390819672133 17.32202098360656 3.75977054043e-07 0.0 0.0 0.0
225 1 18.499994754098363 17.41785442622951 6.13759095497e-05 0.0 0.0 0.0
226 1 22.50677180327869 17.346812459016395 8.39596998602e-05 0.0 0.0 0.0
227 1 24.001329180327872 17.031188196721313 1.57412552484e-05 0.0 0.0 0.0
228 1 26.478406557377053 17.37589573770492 3.78516284675e-05 0.0 0.0 0.0
229 1 29.105545573770495 17.22447081967213 3.04843029527e-05 0.0 0.0 0.0
230 1 31.90072131147541 16.62281049180328 2.03073005469e-06 0.0 0.0 0.0
231 1 34.67554885245902 16.67602885245902 3.03764668568e-05 0.0 0.0 0.0
232 1 37.21806360655738 17.108996065573773 6.84882229838e-05 0.0 0.0 0.0
233 1 40.21778163934427 16.87163409836066 9.74469688872e-05 0.0 0.0 0.0
234 1 42.93913836065574 16.644420983606558 3.59095448053e-05 0.0 0.0 0.0
235 1 45.63595606557378 17.132070819672133 3.76961431453e-05 0.0 0.0 0.0
236 1 48.19836459016394 17.26264262295082 7.59177981114e-05 0.0 0.0 0.0
237 1 50.72810491803279 16.974940327868854 1.93837980135e-05 0.0 0.0 0.0
238 1 53.27996065573771 16.769388196721312 2.5349015754e-05 0.0 0.0 0.0
239 1 55.925731147540986 16.212968524590167 6.67100607127e-05 0.0 0.0 0.0
240 1 58.25239344262296 17.632798032786887 8.18942510123e-05 0.0 0.0 0.0
241 1 61.08346885245903 16.910310819672134 4.38674585888e-05 0.0 0.0 0.0
242 1 63.7524655737705 16.77140786885246 8.44036972457e-05 0.0 0.0 0.0
243 1 66.3780393442623 16.786908852459018 6.21420958148e-05 0.0 0.0 0.0
244 1 68.96574426229509 17.03906491803279 1.65136077374e-05 0.0 0.0 0.0
245 1 71.49285901639344 16.937828852459017 8.68541388286e-05 0.0 0.0 0.0
246 1 74.220931147541 16.860626885245903 9.48856661081e-05 0.0 0.0 0.0
247 1 76.88942295081968 17.019575081967215 8.53610336e-05 0.0 0.0 0.0
248 1 79.62001967213115 17.06976393442623 1.9617443144e-05 0.0 0.0 0.0
249 1 1.0216561967213116 19.050001967213117 7.33965055962e-05 0.0 0.0 0.0
250 1 3.7187415081967217 19.09605049180328 5.38209565806e-05 0.0 0.0 0.0
251 1 6.442905573770493 19.261360655737708 4.17431191605e-06 0.0 0.0 0.0
252 1 9.000264918032787 19.37941049180328 3.92455617458e-05 0.0 0.0 0.0
253 1 11.544142950819673 19.451866229508198 4.75462688456e-05 0.0 0.0 0.0
254 1 14.353355409836066 19.620256393442624 2.38770471258e-05 0.0 0.0 0.0
255 1 16.865524590163936 19.577085901639343 2.74400650517e-05 0.0 0.0 0.0
256 1 19.253080000000004 19.945524590163934 3.36326774356e-05 0.0 0.0 0.0
257 1 21.039984918032786 19.117055081967216 7.76915615688e-06 0.0 0.0 0.0
258 1 25.036714098360658 19.602028852459018 8.14718996065e-05 0.0 0.0 0.0
259 1 27.740954098360657 19.59198098360656 8.48042789998e-05 0.0 0.0 0.0
260 1 30.51674098360656 19.053990819672133 8.36659017279e-06 0.0 0.0 0.0
261 1 33.154735737704925 18.89539606557377 7.66445161621e-06 0.0 0.0 0.0
262 1 35.712852459016396 19.20622360655738 3.43152673759e-05 0.0 0.0 0.0
263 1 37.97311803278689 18.44309049180328 6.88020826333e-05 0.0 0.0 0.0
264 1 41.56682163934426 18.993956065573773 4.64933414628e-05 0.0 0.0 0.0
265 1 44.135642622950826 19.129678032786885 9.71355778667e-05 0.0 0.0 0.0
266 1 46.80039803278689 19.543205901639347 1.27334293236e-05 0.0 0.0 0.0
267 1 49.53957836065574 19.494784262295084 1.24547397873e-06 0.0 0.0 0.0
268 1 52.17822950819673 19.269590819672135 2.60845297589e-05 0.0 0.0 0.0
269 1 54.80834754098362 18.75689704918033 4.8750008121e-05 0.0 0.0 0.0
270 1 57.51066885245902 18.97638491803279 2.92877198538e-05 0.0 0.0 0.0
271 1 59.8984262295082 19.27277180327869 7.36633173438e-05 0.0 0.0 0.0
272 1 62.465934426229516 19.14134163934426 6.56155939041e-05 0.0 0.0 0.0
273 1 65.06424262295081 19.119630163934428 5.88076266225e-06 0.0 0.0 0.0
274 1 67.69335081967215 19.249747540983606 1.71444866782e-05 0.0 0.0 0.0
275 1 70.37699016393444 19.368756721311478 8.8187998689e-05 0.0 0.0 0.0
276 1 73.02932459016394 19.17092983606558 6.42065367861e-05 0.0 0.0 0.0
277 1 75.64076065573771 19.248737704918035 8.1631900729e-05 0.0 0.0 0.0
278 1 78.27138360655738 19.288525245901642 4.17693165518e-05 0.0 0.0 0.0
279 1 80.98582295081968 19.17077836065574 9.19129546255e-05 0.0 0.0 0.0
280 1 82.37586229508197 21.353387540983608 4.49697318366e-05 0.0 0.0 0.0
281 1 2.3487221639344265 21.35177180327869 2.33124665856e-05 0.0 0.0 0.0
282 1 4.921814754098361 21.425136393442624 5.04138276858e-05 0.0 0.0 0.0
283 1 7.5855855737704925 21.742830819672132 8.37250969806e-05 0.0 0.0 0.0
284 1 10.371016393442623 21.830131147540985 7.0762073127e-05 0.0 0.0 0.0
285 1 13.100653770491805 21.644573770491807 3.23780118634e-05 0.0 0.0 0.0
286 1 15.66260786885246 22.020384262295085 1.47366744419e-05 0.0 0.0 0.0
287 1 18.219664262295083 22.190137704918037 7.41807610933e-06 0.0 0.0 0.0
288 1 20.97333573770492 22.076480655737708 8.52172880728e-05 0.0 0.0 0.0
289 1 23.697570491803283 21.691177704918037 8.80779540111e-05 0.0 0.0 0.0
290 1 26.445233442622953 21.877139016393443 3.62186525726e-05 0.0 0.0 0.0
291 1 29.16810491803279 21.448312131147542 1.02561024003e-06 0.0 0.0 0.0
292 1 31.861741639344267 21.301280000000006 7.01687541012e-05 0.0 0.0 0.0
293 1 34.4408124590164 21.410089836065577 9.30752837362e-05 0.0 0.0 0.0
294 1 37.15838229508197 21.28487016393443 2.14016393588e-05 0.0 0.0 0.0
295 1 39.87655803278689 21.15843868852459 1.71718994711e-05 0.0 0.0 0.0
296 1 42.568326557377056 21.414785573770494 6.84102714898e-05 0.0 0.0 0.0
297 1 45.27135475409836 21.59852524590164 9.7587782465e-05 0.0 0.0 0.0
298 1 48.012756721311476 21.74005377049181 3.06166818933e-05 0.0 0.0 0.0
299 1 50.73012459016394 21.704961967213116 6.42409812591e-05 0.0 0.0 0.0
300 1 54.27717377049181 21.158640655737706 9.21604487724e-05 0.0 0.0 0.0
301 1 55.81212459016394 21.08532655737705 6.03905441121e-05 0.0 0.0 0.0
302 1 58.344288524590176 21.564796721311478 9.06740537212e-05 0.0 0.0 0.0
303 1 61.04206557377049 21.557879344262297 8.14459147304e-05 0.0 0.0 0.0
304 1 63.697934426229516 21.48077836065574 1.52715569709e-05 0.0 0.0 0.0
305 1 66.36188196721312 21.505569836065575 1.93864751774e-05 0.0 0.0 0.0
306 1 69.07228196721313 21.581560000000003 3.53123545654e-05 0.0 0.0 0.0
307 1 71.79227540983608 21.573733770491806 3.80813446813e-05 0.0 0.0 0.0
308 1 74.44511475409837 21.567321311475414 6.76254639672e-05 0.0 0.0 0.0
309 1 77.04897704918034 21.61387475409836 6.98602351915e-05 0.0 0.0 0.0
310 1 79.62052459016394 21.492441967213118 6.04718794862e-05 0.0 0.0 0.0
311 1 1.0744100327868853 23.64778557377049 8.81074906561e-05 0.0 0.0 0.0
312 1 3.6185809180327873 23.762351475409837 7.44657038007e-05 0.0 0.0 0.0
313 1 6.1908 23.84364327868853 2.4364577363e-05 0.0 0.0 0.0
314 1 8.293177704918035 23.12236786885246 1.33566214505e-05 0.0 0.0 0.0
315 1 11.999326557377051 23.894942950819672 4.79011167127e-05 0.0 0.0 0.0
316 1 14.1819862295082 25.351278032786887 6.5052710032e-05 0.0 0.0 0.0
317 1 16.975950163934428 24.48877704918033 6.85755035797e-05 0.0 0.0 0.0
318 1 19.70705180327869 24.366081967213116 4.9094275713e-05 0.0 0.0 0.0
319 1 22.41361442622951 24.1464931147541 8.17308631884e-05 0.0 0.0 0.0
320 1 25.110684590163935 24.08332786885246 4.92838893276e-05 0.0 0.0 0.0
321 1 28.750891147540987 23.65667213114754 8.47400902248e-05 0.0 0.0 0.0
322 1 30.29700065573771 23.606836721311478 9.34359894682e-05 0.0 0.0 0.0
323 1 32.955293114754106 23.724179672131147 6.51840375022e-05 0.0 0.0 0.0
324 1 35.686546229508195 23.621277377049186 2.63938933631e-05 0.0 0.0 0.0
325 1 38.38553508196722 23.505196721311478 6.30818618449e-05 0.0 0.0 0.0
326 1 41.06165114754099 23.57588524590164 8.93384974076e-05 0.0 0.0 0.0
327 1 43.76690098360656 23.77043016393443 8.96519542333e-05 0.0 0.0 0.0
328 1 46.4634662295082 23.901001967213116 8.51579095703e-05 0.0 0.0 0.0
329 1 49.10019868852459 23.968408524590167 1.88648992296e-05 0.0 0.0 0.0
330 1 51.65260983606558 24.101302950819676 1.04055606113e-05 0.0 0.0 0.0
331 1 54.15144918032787 23.880401311475413 3.50210045428e-05 0.0 0.0 0.0
332 1 56.86588852459017 23.701054426229508 5.00004066562e-05 0.0 0.0 0.0
333 1 59.589416393442626 23.82748590163935 9.67447301985e-05 0.0 0.0 0.0
334 1 62.30739016393443 23.82117442622951 3.45597111715e-05 0.0 0.0 0.0
335 1 64.98749508196723 23.789819016393444 8.21361542214e-05 0.0 0.0 0.0
336 1 67.69234098360657 23.79744327868853 3.47719374875e-05 0.0 0.0 0.0
337 1 70.45121311475411 23.83051540983607 5.1304430303e-05 0.0 0.0 0.0
338 1 73.17070163934427 23.8877731147541 3.51277430884e-06 0.0 0.0 0.0
339 1 75.82758032786886 23.96103672131148 2.28549266339e-05 0.0 0.0 0.0
340 1 78.47032131147542 23.950029508196724 3.50347724708e-05 0.0 0.0 0.0
341 1 81.0857967213115 23.618348852459018 3.03121613658e-05 0.0 0.0 0.0
342 1 82.23953442622953 25.885077377049186 6.08563180888e-05 0.0 0.0 0.0
343 1 2.2422299016393445 26.09461836065574 2.28270117998e-05 0.0 0.0 0.0
344 1 5.022020786885247 26.158692459016397 8.76870686143e-05 0.0 0.0 0.0
345 1 7.798055081967214 26.025697049180334 3.89570055677e-05 0.0 0.0 0.0
346 1 10.553140327868853 26.14394885245902 7.98788706201e-05 0.0 0.0 0.0
347 1 13.29676393442623 26.609079344262298 2.43081583221e-05 0.0 0.0 0.0
348 1 15.869826229508197 26.897640000000003 1.43390403417e-05 0.0 0.0 0.0
349 1 18.48171672131148 26.68400918032787 9.95572581937e-05 0.0 0.0 0.0
350 1 21.08275147540984 26.544096393442626 9.24157003563e-05 0.0 0.0 0.0
351 1 23.661569836065578 26.421249836065577 8.89085514289e-05 0.0 0.0 0.0
352 1 26.236096393442626 26.49421049180328 3.7951032479e-05 0.0 0.0 0.0
353 1 28.762807213114755 26.265785573770493 6.70736458193e-05 0.0 0.0 0.0
354 1 31.525668196721313 26.008529836065573 9.1372738449e-05 0.0 0.0 0.0
355 1 34.25540655737706 25.94263803278689 4.27216504778e-05 0.0 0.0 0.0
356 1 36.96282754098361 25.860285901639347 5.77505003063e-05 0.0 0.0 0.0
357 1 39.634601311475414 25.851399344262298 3.95563649775e-05 0.0 0.0 0.0
358 1 42.31516065573771 25.944152786885248 5.68891441452e-06 0.0 0.0 0.0
359 1 45.027125901639344 26.111785573770494 9.47810401901e-05 0.0 0.0 0.0
360 1 47.67572393442624 26.26255409836066 7.86433661657e-05 0.0 0.0 0.0
361 1 50.25878360655738 26.407314098360658 4.75692730869e-05 0.0 0.0 0.0
362 1 52.90329180327869 26.384996721311477 9.77633581694e-05 0.0 0.0 0.0
363 1 55.54502295081968 26.059072131147545 3.35413857874e-06 0.0 0.0 0.0
364 1 58.23017704918033 26.026757377049183 6.93504365996e-05 0.0 0.0 0.0
365 1 60.948150819672136 26.08138950819672 9.69331093059e-05 0.0 0.0 0.0
366 1 63.64340327868853 26.092548196721314 5.38794563112e-05 0.0 0.0 0.0
367 1 66.29169836065574 26.054729836065576 8.30297086068e-05 0.0 0.0 0.0
368 1 69.00714754098361 26.020900327868855 7.93470699612e-05 0.0 0.0 0.0
369 1 71.80136393442623 26.11542098360656 6.25917355914e-05 0.0 0.0 0.0
370 1 74.42744262295082 26.252354754098363 9.92920832132e-05 0.0 0.0 0.0
371 1 77.11764590163935 26.312793442622954 3.66313731856e-05 0.0 0.0 0.0
372 1 80.696 25.88366360655738 2.40787503027e-05 0.0 0.0 0.0
373 1 0.8597693770491804 28.289699016393445 7.80435677738e-05 0.0 0.0 0.0
374 1 3.639888459016394 28.335343606557377 1.68400806008e-05 0.0 0.0 0.0
375 1 6.431342950819673 28.322417704918035 5.97889880844e-05 0.0 0.0 0.0
376 1 9.145782295081968 28.360589508196725 7.35467594028e-05 0.0 0.0 0.0
377 1 11.776354754098362 28.616885901639346 3.50833837252e-05 0.0 0.0 0.0
378 1 14.435455081967214 29.090297049180332 3.47764848531e-05 0.0 0.0 0.0
379 1 17.1518131147541 29.115290491803282 6.74721952102e-05 0.0 0.0 0.0
380 1 19.78092131147541 28.97800327868853 4.13786828632e-05 0.0 0.0 0.0
381 1 22.372261639344266 28.867224262295085 3.41166891175e-05 0.0 0.0 0.0
382 1 24.981728524590164 28.828295081967216 2.83758763058e-05 0.0 0.0 0.0
383 1 27.65042229508197 28.762049836065575 4.64744917075e-05 0.0 0.0 0.0
384 1 30.287205245901642 28.382048524590164 2.622835864e-05 0.0 0.0 0.0
385 1 32.93746950819673 28.25718229508197 2.01746410597e-05 0.0 0.0 0.0
386 1 35.61409049180328 28.192653770491805 3.22274534757e-05 0.0 0.0 0.0
387 1 38.29202426229509 28.17175016393443 8.67990773669e-05 0.0 0.0 0.0
388 1 40.93193770491804 28.195834754098364 9.18368230158e-05 0.0 0.0 0.0
389 1 43.602853114754105 28.286063606557377 1.22787088439e-05 0.0 0.0 0.0
390 1 46.32208918032787 28.505299016393447 1.11940662418e-05 0.0 0.0 0.0
391 1 48.87349049180328 28.704034754098362 4.85664188864e-05 0.0 0.0 0.0
392 1 51.51476721311476 28.710194754098364 6.50235312143e-05 0.0 0.0 0.0
393 1 54.19689180327869 28.51852786885246 4.07111078719e-05 0.0 0.0 0.0
394 1 56.8840655737705 28.332415081967216 6.38001158268e-05 0.0 0.0 0.0
395 1 59.63132459016394 28.312925245901642 4.79941585843e-05 0.0 0.0 0.0
396 1 62.349298360655744 28.362457704918036 2.15698269554e-05 0.0 0.0 0.0
397 1 64.99355409836066 28.39159147540984 7.45100075614e-05 0.0 0.0 0.0
398 1 67.58125901639345 28.2829331147541 8.46892462222e-05 0.0 0.0 0.0
399 1 70.28610491803279 28.222342950819677 6.21843855406e-05 0.0 0.0 0.0
400 1 72.9157180327869 28.529484590163936 6.50917510362e-05 0.0 0.0 0.0
401 1 75.57512131147541 28.583056393442625 3.32865641456e-05 0.0 0.0 0.0
402 1 78.17999344262296 28.726806557377053 6.19551630684e-05 0.0 0.0 0.0
403 1 80.73992786885248 28.51176196721312 2.09769397856e-05 0.0 0.0 0.0
404 1 82.3713180327869 30.57869442622951 5.65529606158e-05 0.0 0.0 0.0
405 1 2.3444303606557377 30.527192786885248 9.36623450762e-05 0.0 0.0 0.0
406 1 5.024989704918033 30.532746885245906 1.60866436152e-06 0.0 0.0 0.0
407 1 7.79512655737705 30.62842885245902 3.45162737401e-05 0.0 0.0 0.0
408 1 10.381417704918034 30.845291147540987 1.22873581615e-05 0.0 0.0 0.0
409 1 13.042588196721312 31.134962622950823 5.80457490447e-05 0.0 0.0 0.0
410 1 15.771872131147543 31.363791475409837 2.09538969194e-05 0.0 0.0 0.0
411 1 18.45500655737705 31.38398819672131 6.45518295688e-05 0.0 0.0 0.0
412 1 21.07532918032787 31.29789967213115 7.73723661161e-05 0.0 0.0 0.0