ITEM: TIMESTEP
0
ITEM: NUMBER OF ATOMS
2232
ITEM: BOX BOUNDS xy xz yz pp pp pp
0.0 82.68810555352132 0
0.0 83.16 0
-10.0 10.0 0
ITEM: ATOMS id type x y z vx vy vz
1 1 1.5954400000000002 0.11240081311475411 7.26946121809e-05 0.0 0.0 0.0
2 1 4.179953836065574 0.6933281967213116 3.12760156948e-05 0.0 0.0 0.0
3 1 6.688447213114755 1.2755390819672132 8.39049513499e-05 0.0 0.0 0.0
4 1 9.243736393442624 1.3962245901639345 8.87596486004e-06 0.0 0.0 0.0
5 1 11.91157180327869 1.7098897704918035 1.09682695283e-05 0.0 0.0 0.0
6 1 14.777436065573772 1.7163880655737707 5.8472506445e-05 0.0 0.0 0.0
7 1 17.505710163934427 1.226531737704918 5.04593708393e-06 0.0 0.0 0.0
8 1 21.232560655737707 0.963121049180328 5.83072242935e-05 0.0 0.0 0.0
9 1 23.845158032786888 0.2095945049180328 3.8429690814e-05 0.0 0.0 0.0
10 1 25.407677377049183 0.36964039344262295 6.06047983633e-05 0.0 0.0 0.0
11 1 28.33463672131148 0.714368131147541 4.65166374197e-05 0.0 0.0 0.0
12 1 30.694926557377052 1.2672634754098362 1.83591103854e-06 0.0 0.0 0.0
13 1 33.376293770491806 1.396749704918033 1.18638343488e-05 0.0 0.0 0.0
14 1 35.985356721311476 0.8980977049180329 1.18446773715e-05 0.0 0.0 0.0
15 1 39.636620983606555 0.528528 6.64020155118e-05 0.0 0.0 0.0
16 1 41.1727331147541 0.635828131147541 5.008441616e-05 0.0 0.0 0.0
17 1 43.79224786885246 0.5519107540983607 3.3825446983e-05 0.0 0.0 0.0
18 1 46.677046557377054 0.8486460327868853 1.41944091208e-05 0.0 0.0 0.0
19 1 49.2470793442623 0.8819756721311476 3.08728888424e-06 0.0 0.0 0.0
20 1 51.898 1.9445504262295084 7.03982104778e-05 0.0 0.0 0.0
21 1 54.91084590163935 1.5017120655737706 2.29265640044e-05 0.0 0.0 0.0
22 1 57.414229508196726 1.4114377704918035 9.50847184187e-05 0.0 0.0 0.0
23 1 60.03121967213115 0.8257177049180329 5.7885026173e-05 0.0 0.0 0.0
24 1 62.67900983606558 0.08809153442622952 9.60431665319e-05 0.0 0.0 0.0
25 1 66.48710163934427 82.54299016393443 4.0150854669e-05 0.0 0.0 0.0
26 1 67.94782950819673 83.1145573770492 9.72097724159e-05 0.0 0.0 0.0
27 1 70.50069508196721 0.660240918032787 5.79977575607e-05 0.0 0.0 0.0
28 1 73.2388655737705 0.4786713836065574 7.31470040889e-05 0.0 0.0 0.0
29 1 76.00783606557377 0.23555840000000003 1.94320276584e-05 0.0 0.0 0.0
30 1 78.85708852459017 0.012160395409836065 9.89216557346e-05 0.0 0.0 0.0
31 1 81.6048524590164 83.11152786885248 2.3249794989e-05 0.0 0.0 0.0
32 1 0.04013452065573771 2.3220725901639345 5.75754559656e-05 0.0 0.0 0.0
33 1 2.6959593442622953 2.7094558032786886 3.43360542794e-05 0.0 0.0 0.0
34 1 5.2008072131147545 3.3368518032786887 2.72808943983e-05 0.0 0.0 0.0
35 1 7.785684590163935 3.7048158688524593 8.64863572715e-05 0.0 0.0 0.0
36 1 10.454731803278689 3.7943125901639347 8.72875414865e-05 0.0 0.0 0.0
37 1 12.61724524590164 3.0835091803278694 1.43443777763e-05 0.0 0.0 0.0
38 1 16.32748393442623 3.6044533114754103 8.65559520065e-05 0.0 0.0 0.0
39 1 18.507265573770496 4.9591685901639355 2.57293722407e-05 0.0 0.0 0.0
40 1 20.882349508196725 3.3745136393442627 4.50534008101e-05 0.0 0.0 0.0
41 1 23.605826885245904 2.5961976393442625 2.92942415515e-05 0.0 0.0 0.0
42 1 26.501481311475413 2.6881886557377053 2.92474577278e-05 0.0 0.0 0.0
43 1 29.068888524590168 3.4730685901639347 7.94251608828e-05 0.0 0.0 0.0
44 1 31.85421836065574 3.563423672131148 8.19813373106e-05 0.0 0.0 0.0
45 1 34.66014885245902 3.453578754098361 9.24182637066e-05 0.0 0.0 0.0
46 1 37.11460590163935 3.3049965245901642 6.1849629931e-05 0.0 0.0 0.0
47 1 39.563559344262295 4.374362426229509 5.68938929736e-06 0.0 0.0 0.0
48 1 42.22518426229508 3.008028983606558 8.91721126669e-05 0.0 0.0 0.0
49 1 45.01541180327869 2.813246754098361 8.07120624304e-05 0.0 0.0 0.0
50 1 48.2474931147541 3.249253573770492 2.68366261547e-05 0.0 0.0 0.0
51 1 51.09619016393443 3.256090163934427 1.73587538518e-05 0.0 0.0 0.0
52 1 53.50010491803279 3.5686293770491804 3.50072011384e-05 0.0 0.0 0.0
53 1 56.0716524590164 3.893948065573771 8.14109973332e-05 0.0 0.0 0.0
54 1 58.97139672131148 3.4204359344262296 5.98856366052e-05 0.0 0.0 0.0
55 1 61.57626885245902 2.70002393442623 3.6435835213e-05 0.0 0.0 0.0
56 1 64.13418360655739 2.2516264262295085 7.87513150908e-05 0.0 0.0 0.0
57 1 66.46185573770492 1.9138312131147541 9.03644954327e-05 0.0 0.0 0.0
58 1 69.08894426229509 2.632753704918033 5.63672442313e-05 0.0 0.0 0.0
59 1 72.13864918032789 2.7751910819672134 4.70966012175e-05 0.0 0.0 0.0
60 1 74.9404393442623 2.5179 8.16328241124e-05 0.0 0.0 0.0
61 1 77.61600000000001 2.1938335081967213 1.39451456912e-05 0.0 0.0 0.0
62 1 80.20320000000001 2.193772918032787 5.42680408249e-05 0.0 0.0 0.0
63 1 1.1221803278688527 4.762311147540984 1.25018938346e-05 0.0 0.0 0.0
64 1 3.5664430819672135 5.363340327868853 7.41329593303e-05 0.0 0.0 0.0
65 1 6.276030163934427 5.873004590163935 2.26539315234e-05 0.0 0.0 0.0
66 1 9.239495081967213 6.022914754098361 8.2837602287e-05 0.0 0.0 0.0
67 1 12.00392131147541 5.960456393442624 1.49478850507e-05 0.0 0.0 0.0
68 1 14.823989508196723 5.933089836065575 6.46147746557e-05 0.0 0.0 0.0
69 1 17.785535737704922 6.312232786885247 2.1630147214e-05 0.0 0.0 0.0
70 1 21.175353442622953 5.568387540983607 3.91847400827e-05 0.0 0.0 0.0
71 1 22.603463606557376 5.0417378360655745 1.12433677156e-05 0.0 0.0 0.0
72 1 25.19278426229508 4.754222360655738 2.57025636621e-05 0.0 0.0 0.0
73 1 26.65108852459017 6.776302950819673 3.81942436543e-05 0.0 0.0 0.0
74 1 31.31486491803279 5.5390518032786895 4.16344570434e-05 0.0 0.0 0.0
75 1 32.88420065573771 5.617364590163935 9.22736419291e-05 0.0 0.0 0.0
76 1 36.85124065573771 5.528398032786885 2.0965056252e-05 0.0 0.0 0.0
77 1 38.41901114754099 5.41736655737705 1.6323022455e-05 0.0 0.0 0.0
78 1 40.95369967213115 5.646801311475411 8.5240322347e-05 0.0 0.0 0.0
79 1 44.44879278688525 4.860800459016394 1.77913828398e-06 0.0 0.0 0.0
80 1 45.8043462295082 4.134289049180329 6.23730503072e-05 0.0 0.0 0.0
81 1 49.66631278688525 5.3645521311475415 2.81728235358e-05 0.0 0.0 0.0
82 1 52.206 5.848415081967214 3.76794919368e-05 0.0 0.0 0.0
83 1 54.706859016393445 6.04836262295082 9.23593842534e-05 0.0 0.0 0.0
84 1 56.79368524590164 5.252763278688525 7.81836551728e-06 0.0 0.0 0.0
85 1 60.27055081967214 5.287754098360656 5.76791278859e-05 0.0 0.0 0.0
86 1 63.93878032786886 4.456154098360656 3.58810726336e-05 0.0 0.0 0.0
87 1 66.16092459016393 4.372029704918033 2.14391483377e-05 0.0 0.0 0.0
88 1 67.67214426229509 4.460870032786886 3.19518918416e-06 0.0 0.0 0.0
89 1 69.65596721311476 4.076273967213115 9.37396687548e-05 0.0 0.0 0.0
90 1 73.49435409836066 4.758685836065575 7.0251248413e-06 0.0 0.0 0.0
91 1 77.18631475409836 4.365152721311476 1.66563310589e-05 0.0 0.0 0.0
92 1 78.7096524590164 4.516915934426231 6.53940887986e-05 0.0 0.0 0.0
93 1 81.04641311475412 4.6145670819672135 4.60568291117e-05 0.0 0.0 0.0
94 1 82.52481311475411 6.833611147540984 6.34094355615e-06 0.0 0.0 0.0
95 1 1.3280253114754101 8.760529836065574 9.81816806464e-05 0.0 0.0 0.0
96 1 5.240392786885247 8.574820983606559 3.2497982746e-05 0.0 0.0 0.0
97 1 8.106004590163934 7.925041967213116 2.64674281815e-05 0.0 0.0 0.0
98 1 10.726731147540985 8.27479868852459 4.27461524822e-05 0.0 0.0 0.0
99 1 13.234053114754099 8.179924590163935 5.62344389076e-05 0.0 0.0 0.0
100 1 16.098251147540985 8.1150931147541 8.14799153743e-05 0.0 0.0 0.0
101 1 19.05176918032787 8.633038032786885 6.59378599611e-06 0.0 0.0 0.0
102 1 22.022454426229512 7.661878688524591 2.50130405904e-05 0.0 0.0 0.0
103 1 23.472074098360658 7.1594852459016405 6.24938664227e-05 0.0 0.0 0.0
104 1 25.802472786885247 8.076466885245901 3.71769612479e-06 0.0 0.0 0.0
105 1 27.702327868852464 7.892626229508198 9.89470124044e-05 0.0 0.0 0.0
106 1 31.203126557377054 8.215521311475412 8.97996165216e-05 0.0 0.0 0.0
107 1 33.8382937704918 8.005475409836066 2.17318929176e-06 0.0 0.0 0.0
108 1 36.42226229508197 7.973817049180329 1.88513041804e-05 0.0 0.0 0.0
109 1 39.13695409836066 7.8738432786885255 8.62765921394e-05 0.0 0.0 0.0
110 1 41.78302754098361 7.876620327868853 6.91968428765e-05 0.0 0.0 0.0
111 1 45.648326557377054 8.430515409836067 8.72847848361e-05 0.0 0.0 0.0
112 1 48.3299462295082 7.310556721311476 3.29609378914e-05 0.0 0.0 0.0
113 1 50.93512131147541 7.939684590163935 6.15421119723e-05 0.0 0.0 0.0
114 1 53.38094426229508 8.35063737704918 1.80922833465e-05 0.0 0.0 0.0
115 1 56.1792 8.215420327868854 4.62495709524e-05 0.0 0.0 0.0
116 1 58.6588524590164 7.665716065573771 5.02516273763e-05 0.0 0.0 0.0
117 1 62.341724590163935 7.315252459016394 1.29436374636e-05 0.0 0.0 0.0
118 1 63.81305573770492 7.0060406557377055 9.11863812405e-05 0.0 0.0 0.0
119 1 66.32956721311476 8.129281311475411 4.41046178259e-05 0.0 0.0 0.0
120 1 69.0000786885246 7.009120655737706 8.68604537507e-05 0.0 0.0 0.0
121 1 71.60697049180328 6.695112131147542 6.87135670086e-05 0.0 0.0 0.0
122 1 74.38957377049182 7.030276721311476 3.42563463117e-06 0.0 0.0 0.0
123 1 76.94748852459017 6.9810472131147545 6.14174389496e-05 0.0 0.0 0.0
124 1 79.9719475409836 7.124494426229509 1.52438599654e-05 0.0 0.0 0.0
125 1 2.868913967213115 8.75649049180328 4.55432767513e-05 0.0 0.0 0.0
126 1 4.6997820983606555 9.988591475409835 7.19895157189e-05 0.0 0.0 0.0
127 1 7.227093770491804 10.056149508196722 8.29754567479e-05 0.0 0.0 0.0
128 1 8.58168786885246 11.844417704918035 1.19802259414e-05 0.0 0.0 0.0
129 1 11.995741639344264 10.75697573770492 9.78194944997e-05 0.0 0.0 0.0
130 1 14.55037442622951 10.262761967213116 4.32115177952e-05 0.0 0.0 0.0
131 1 17.341460327868855 10.249735081967215 4.50410779573e-05 0.0 0.0 0.0
132 1 20.110430819672132 10.888759344262297 4.04428914545e-05 0.0 0.0 0.0
133 1 24.032482622950823 11.12809049180328 9.73028441305e-05 0.0 0.0 0.0
134 1 23.414664918032788 9.699828852459017 2.26051646406e-05 0.0 0.0 0.0
135 1 26.932226885245903 10.756369836065575 6.8420957684e-05 0.0 0.0 0.0
136 1 29.65620918032787 10.514716065573772 7.58415116447e-05 0.0 0.0 0.0
137 1 32.37928262295082 10.383487868852459 4.55618573509e-06 0.0 0.0 0.0
138 1 35.0136924590164 10.315222950819674 8.37093608229e-05 0.0 0.0 0.0
139 1 37.8179062295082 10.207826885245902 3.11216013552e-05 0.0 0.0 0.0
140 1 40.85685639344263 10.107701639344263 2.13259567064e-05 0.0 0.0 0.0
141 1 43.09404721311476 8.643590819672132 7.0978524728e-05 0.0 0.0 0.0
142 1 47.97064655737705 9.614598688524591 8.76123204326e-05 0.0 0.0 0.0
143 1 49.46227540983607 9.89912 1.30694864886e-05 0.0 0.0 0.0
144 1 51.697042622950825 10.578133770491803 9.29187559445e-05 0.0 0.0 0.0
145 1 54.326655737704925 10.443017704918034 3.40892135454e-05 0.0 0.0 0.0
146 1 58.257947540983615 10.26715475409836 2.97738587659e-06 0.0 0.0 0.0
147 1 60.44878688524591 10.006263606557377 2.39422152897e-05 0.0 0.0 0.0
148 1 63.22785573770493 10.64458098360656 8.79784858341e-05 0.0 0.0 0.0
149 1 66.03772459016393 9.641409836065574 8.4970284072e-05 0.0 0.0 0.0
150 1 68.51283278688526 10.865179672131148 7.79049408053e-05 0.0 0.0 0.0
151 1 71.27776393442623 8.969060983606559 6.72965563723e-05 0.0 0.0 0.0
152 1 72.80918032786886 8.950278032786885 2.32569349296e-05 0.0 0.0 0.0
153 1 76.56122622950821 9.04323344262295 2.15980917327e-05 0.0 0.0 0.0
154 1 77.8356393442623 8.217944918032789 8.81473716032e-05 0.0 0.0 0.0
155 1 81.41449836065574 9.32048393442623 7.19541105571e-05 0.0 0.0 0.0
156 1 82.64498360655739 11.369390819672132 7.31905512035e-05 0.0 0.0 0.0
157 1 2.8626327868852464 11.750351475409836 4.87616958023e-05 0.0 0.0 0.0
158 1 5.711834754098361 12.338934426229509 8.07398100933e-05 0.0 0.0 0.0
159 1 7.567509508196722 14.090040655737706 4.40371420117e-05 0.0 0.0 0.0
160 1 9.858423606557377 12.699950819672132 7.80339436842e-05 0.0 0.0 0.0
161 1 13.612994098360657 12.837187540983606 1.29866638276e-06 0.0 0.0 0.0
162 1 16.16474885245902 12.36428131147541 2.57602471454e-06 0.0 0.0 0.0
163 1 18.524483278688525 13.597392131147542 7.35652096758e-05 0.0 0.0 0.0
164 1 20.636 14.43757573770492 4.23597070923e-05 0.0 0.0 0.0
165 1 23.260866885245907 13.411329836065574 7.76744398458e-07 0.0 0.0 0.0
166 1 25.912645901639348 13.09343344262295 3.08996175362e-05 0.0 0.0 0.0
167 1 29.294132459016396 12.653902295081968 7.97915937746e-06 0.0 0.0 0.0
168 1 30.85857049180328 12.664707540983608 9.08151114192e-05 0.0 0.0 0.0
169 1 33.64299147540984 12.651882622950822 6.20157144103e-05 0.0 0.0 0.0
170 1 36.4174655737705 12.3808931147541 2.40944266639e-05 0.0 0.0 0.0
171 1 38.7175186885246 11.462851147540984 1.32547328278e-05 0.0 0.0 0.0
172 1 42.58488786885246 11.48658229508197 9.9885875397e-05 0.0 0.0 0.0
173 1 45.077365245901646 11.381054426229511 6.66547345096e-05 0.0 0.0 0.0
174 1 46.814889180327874 13.565582295081969 2.70014870321e-05 0.0 0.0 0.0
175 1 49.71180590163935 12.71317967213115 8.90735485917e-05 0.0 0.0 0.0
176 1 53.007304918032794 12.898888524590166 2.04364824329e-05 0.0 0.0 0.0
177 1 55.668222950819676 12.691165245901642 6.39892511005e-05 0.0 0.0 0.0
178 1 57.178432786885246 11.342276721311476 6.95790418242e-05 0.0 0.0 0.0
179 1 62.17409180327869 11.769740327868853 1.21169354736e-05 0.0 0.0 0.0
180 1 64.65424918032788 12.132725901639345 4.48275299473e-05 0.0 0.0 0.0
181 1 68.11697704918033 12.342216393442623 7.34087563463e-05 0.0 0.0 0.0
182 1 70.62641967213116 12.632241311475411 1.73855891165e-05 0.0 0.0 0.0
183 1 72.48350819672132 11.561714098360657 7.85683892505e-05 0.0 0.0 0.0
184 1 74.00533114754099 11.388072786885248 6.35072951147e-05 0.0 0.0 0.0
185 1 76.75208524590164 12.611085245901641 4.00218314125e-06 0.0 0.0 0.0
186 1 79.70989508196722 11.48032131147541 6.92195656761e-07 0.0 0.0 0.0
187 1 1.2672634754098362 13.624708196721313 4.38733422402e-05 0.0 0.0 0.0
188 1 4.107336524590164 14.111196721311478 4.51884714444e-05 0.0 0.0 0.0
189 1 6.716470163934426 15.367180327868853 5.30600820371e-05 0.0 0.0 0.0
190 1 9.211017704918033 15.57253049180328 1.26855466531e-05 0.0 0.0 0.0
191 1 12.000437377049181 15.032419672131148 9.32697308267e-05 0.0 0.0 0.0
192 1 15.851346229508197 14.717754754098364 3.10629479918e-05 0.0 0.0 0.0
193 1 17.4067462295082 14.671049836065576 6.91479886434e-05 0.0 0.0 0.0
194 1 19.752241967213116 15.674321967213116 6.08151526121e-05 0.0 0.0 0.0
195 1 22.25274754098361 15.967477377049182 5.11450234375e-05 0.0 0.0 0.0
196 1 24.767390819672134 15.533954754098362 9.75017024972e-05 0.0 0.0 0.0
197 1 28.24647803278689 16.649268196721316 6.30672341364e-05 0.0 0.0 0.0
198 1 30.49169704918033 16.267247213114754 1.5631074071e-05 0.0 0.0 0.0
199 1 32.808361967213116 14.794502295081967 3.99508228784e-05 0.0 0.0 0.0
200 1 35.514419672131154 14.626465573770494 4.3252296e-05 0.0 0.0 0.0
201 1 38.10737573770492 14.284484590163936 7.76439190201e-05 0.0 0.0 0.0
202 1 42.27431278688525 13.801076065573772 3.98211488656e-06 0.0 0.0 0.0
203 1 43.85197967213115 13.806175737704919 5.17587508482e-05 0.0 0.0 0.0
204 1 45.71578360655738 15.699517377049181 6.63031835893e-05 0.0 0.0 0.0
205 1 48.84375081967214 15.041053770491805 4.86473492083e-05 0.0 0.0 0.0
206 1 50.74476721311476 13.87045180327869 7.65031850567e-05 0.0 0.0 0.0
207 1 54.942150819672136 14.92613442622951 4.08112848512e-05 0.0 0.0 0.0
208 1 57.596000000000004 14.336945573770494 9.11678157733e-05 0.0 0.0 0.0
209 1 61.09104262295083 13.731700327868854 7.50744303148e-05 0.0 0.0 0.0
210 1 62.57196721311476 14.151640655737706 4.15376824827e-05 0.0 0.0 0.0
211 1 65.0228393442623 14.86180786885246 7.70599428479e-05 0.0 0.0 0.0
212 1 67.48280000000001 14.843075409836066 6.71929934764e-05 0.0 0.0 0.0
213 1 70.21137704918034 15.758441311475412 9.33778889541e-05 0.0 0.0 0.0
214 1 72.93641967213115 14.352244590163936 7.93674236047e-05 0.0 0.0 0.0
215 1 75.94775081967214 13.95977180327869 6.47047674745e-05 0.0 0.0 0.0
216 1 78.59705573770493 13.857273442622953 8.10635013987e-05 0.0 0.0 0.0
217 1 81.23676721311476 13.565935737704919 9.84489000787e-05 0.0 0.0 0.0
218 1 82.63185573770492 15.860081311475412 8.23510868154e-05 0.0 0.0 0.0
219 1 2.6494866885245902 15.917187540983608 7.66864360827e-06 0.0 0.0 0.0
220 1 4.24907206557377 17.88540852459017 8.61899495853e-05 0.0 0.0 0.0
221 1 7.825371147540984 17.94594819672131 9.5620828842e-05 0.0 0.0 0.0
222 1 10.489167213114756 17.451380983606562 7.94558597661e-05 0.0 0.0 0.0
223 1 13.042436721311477 17.402151475409838 2.32191671036e-06 0.0 0.0 0.0
224 1 15.384852459016395 17.32328327868853 3.69345954326e-05 0.0 0.0 0.0
225 1 17.968114098360658 17.440727213114755 3.37699198078e-05 0.0 0.0 0.0
226 1 20.683664262295082 18.153015081967215 5.71403954653e-05 0.0 0.0 0.0
227 1 23.99759278688525 18.027492459016397 4.67156684521e-05 0.0 0.0 0.0
228 1 25.83736262295082 16.624577704918035 4.19439091757e-05 0.0 0.0 0.0
229 1 30.058881311475414 17.732973770491807 3.79490886525e-05 0.0 0.0 0.0
230 1 33.020377049180325 17.246636721311475 4.95320715087e-05 0.0 0.0 0.0
231 1 34.50731016393443 16.924196065573774 7.86999757773e-05 0.0 0.0 0.0
232 1 36.93177508196722 16.808165901639345 7.24557488882e-05 0.0 0.0 0.0
233 1 39.469745573770496 16.39685967213115 6.0823267012e-05 0.0 0.0 0.0
234 1 41.99413377049181 17.414118032786885 9.81144719625e-05 0.0 0.0 0.0
235 1 44.96638426229509 17.021140327868856 5.79646133316e-05 0.0 0.0 0.0
236 1 46.93682688524591 16.608016393442625 2.75359632511e-05 0.0 0.0 0.0
237 1 50.794249180327874 16.810135081967214 2.14736408155e-05 0.0 0.0 0.0
238 1 52.578124590163945 15.779041967213116 9.94339777029e-05 0.0 0.0 0.0
239 1 56.133757377049186 16.797411147540988 8.37744503164e-05 0.0 0.0 0.0
240 1 58.4508262295082 16.73677049180328 6.05804137874e-05 0.0 0.0 0.0
241 1 60.78708196721312 16.534752786885246 7.04346889593e-06 0.0 0.0 0.0
242 1 63.32278032786886 16.84234885245902 4.28611892986e-05 0.0 0.0 0.0
243 1 66.16546885245903 17.28465704918033 4.59166084589e-05 0.0 0.0 0.0
244 1 69.6044655737705 17.181098360655742 3.27016889897e-05 0.0 0.0 0.0
245 1 72.21590163934427 16.749443934426232 5.6223593917e-05 0.0 0.0 0.0
246 1 74.65061639344263 16.18964131147541 9.13322081515e-05 0.0 0.0 0.0
247 1 77.45392131147541 16.218977049180328 5.65436922984e-06 0.0 0.0 0.0
248 1 80.01587540983608 16.03988262295082 1.3795706288e-05 0.0 0.0 0.0
249 1 1.4012283278688527 18.13196 5.96634004135e-05 0.0 0.0 0.0
250 1 3.1252255081967215 20.05352655737705 7.07991727002e-05 0.0 0.0 0.0
251 1 5.4268590163934425 18.86727213114754 3.72052557432e-05 0.0 0.0 0.0
252 1 9.350577049180329 19.944615737704922 9.74114173642e-05 0.0 0.0 0.0
253 1 11.918640655737706 19.77794229508197 2.94778848939e-05 0.0 0.0 0.0
254 1 14.334017049180328 19.859183606557377 4.91981839004e-05 0.0 0.0 0.0
255 1 16.751615081967216 19.731237377049183 5.22597556891e-05 0.0 0.0 0.0
256 1 19.226319344262297 19.880440655737708 3.64538648786e-06 0.0 0.0 0.0
257 1 21.67714098360656 19.304581639344264 2.94366524195e-05 0.0 0.0 0.0
258 1 25.710476721311476 19.659438032786884 5.83215127591e-05 0.0 0.0 0.0
259 1 28.26521049180328 19.692510163934426 7.61497677437e-05 0.0 0.0 0.0
260 1 30.853470819672133 20.307803278688525 6.96357870007e-05 0.0 0.0 0.0
261 1 33.33266885245902 20.075540983606558 9.79114480716e-05 0.0 0.0 0.0
262 1 35.84185901639345 19.370372459016394 1.67423678109e-05 0.0 0.0 0.0
263 1 38.43799606557378 18.96482229508197 5.90616800594e-05 0.0 0.0 0.0
264 1 41.265234098360665 18.7557862295082 1.4480465556e-05 0.0 0.0 0.0
265 1 43.967151475409835 18.941141639344266 5.68860910636e-06 0.0 0.0 0.0
266 1 46.705826885245905 19.3755731147541 2.32195186565e-05 0.0 0.0 0.0
267 1 49.53740721311476 19.167445901639347 5.96635076674e-05 0.0 0.0 0.0
268 1 52.92550819672131 18.75381704918033 2.50307279794e-05 0.0 0.0 0.0
269 1 54.467527868852464 18.984110163934428 7.31731723276e-05 0.0 0.0 0.0
270 1 57.107744262295085 19.257775737704918 5.51738835897e-05 0.0 0.0 0.0
271 1 59.739377049180334 19.122912131147544 6.20809989732e-05 0.0 0.0 0.0
272 1 62.14430163934427 20.170869508196724 7.1407296722e-05 0.0 0.0 0.0
273 1 64.77492459016395 19.096757377049183 6.47839895792e-05 0.0 0.0 0.0
274 1 67.1520786885246 18.466215737704918 1.51672415517e-05 0.0 0.0 0.0
275 1 70.89958032786886 19.195064918032788 3.76434613063e-05 0.0 0.0 0.0
276 1 73.37872786885247 18.86893836065574 5.30307474429e-05 0.0 0.0 0.0
277 1 76.08811803278688 18.353568524590166 3.40413337768e-05 0.0 0.0 0.0
278 1 78.92525245901639 18.529885901639346 6.57175165198e-05 0.0 0.0 0.0
279 1 81.51851147540985 18.282425573770492 3.87761375129e-05 0.0 0.0 0.0
280 1 0.03665735213114755 20.575965245901642 3.34849214085e-05 0.0 0.0 0.0
281 1 2.4333363278688527 21.40801967213115 7.03049813822e-05 0.0 0.0 0.0
282 1 4.963904721311477 21.647653770491807 6.36260213882e-05 0.0 0.0 0.0
283 1 7.068499016393443 20.779043278688526 7.3046013056e-05 0.0 0.0 0.0
284 1 10.586363934426231 22.18226098360656 3.984166977e-06 0.0 0.0 0.0
285 1 13.084294426229508 22.274055081967212 6.93102037511e-05 0.0 0.0 0.0
286 1 15.611257704918033 22.25274754098361 9.45249774733e-05 0.0 0.0 0.0
287 1 18.162608524590166 22.200539016393446 6.07548751648e-05 0.0 0.0 0.0
288 1 20.822567213114755 21.92788327868853 6.3102148726e-05 0.0 0.0 0.0
289 1 23.79199016393443 21.772116065573773 6.42979808394e-05 0.0 0.0 0.0
290 1 26.911878688524595 22.098596065573773 4.14456018085e-05 0.0 0.0 0.0
291 1 29.617128524590168 22.262088524590165 3.77629035344e-05 0.0 0.0 0.0
292 1 32.25502229508197 22.590184262295082 8.57445130469e-05 0.0 0.0 0.0
293 1 34.78072327868853 22.06628131147541 3.27701009476e-05 0.0 0.0 0.0
294 1 37.38852393442623 21.504862950819675 5.73042431637e-05 0.0 0.0 0.0
295 1 40.04414032786885 20.965660983606558 6.03098387581e-05 0.0 0.0 0.0
296 1 42.780291147540986 21.034430819672135 3.18720405577e-05 0.0 0.0 0.0
297 1 44.95562950819672 22.39286229508197 4.29486009701e-05 0.0 0.0 0.0
298 1 48.86864327868853 21.264622950819675 5.44115711378e-05 0.0 0.0 0.0
299 1 50.36850229508197 21.61513704918033 8.67400543556e-05 0.0 0.0 0.0
300 1 52.64679344262296 21.709304262295085 1.74130770688e-05 0.0 0.0 0.0
301 1 56.303914754098365 21.379239344262295 6.70095896226e-05 0.0 0.0 0.0
302 1 58.91636065573771 22.566655081967216 6.18089991222e-07 0.0 0.0 0.0
303 1 61.7964131147541 21.657651147540985 5.74017306995e-05 0.0 0.0 0.0
304 1 64.46086557377049 21.435840655737707 9.71657621818e-05 0.0 0.0 0.0
305 1 67.06977704918033 22.28036655737705 4.44339832027e-05 0.0 0.0 0.0
306 1 69.85440000000001 21.275074754098362 3.02214407139e-05 0.0 0.0 0.0
307 1 72.65467540983607 22.215535081967214 6.36961467451e-05 0.0 0.0 0.0
308 1 75.14594098360656 20.757180327868856 5.74678733738e-05 0.0 0.0 0.0
309 1 77.32819672131149 21.653106885245904 3.62393685397e-05 0.0 0.0 0.0
310 1 81.18678032786886 20.54057049180328 9.73093611253e-05 0.0 0.0 0.0
311 1 1.16663331147541 23.371342950819674 1.49077496141e-05 0.0 0.0 0.0
312 1 3.7817047868852462 23.872221639344264 4.30774093314e-05 0.0 0.0 0.0
313 1 6.399331147540984 23.742811147540987 2.32060367809e-05 0.0 0.0 0.0
314 1 8.960780327868854 24.178050491803283 8.78781179004e-05 0.0 0.0 0.0
315 1 11.617860983606558 24.619045901639346 6.61221853824e-05 0.0 0.0 0.0
316 1 14.26741836065574 24.65403672131148 9.89866453648e-05 0.0 0.0 0.0
317 1 16.922630819672133 24.59895016393443 3.11493358593e-06 0.0 0.0 0.0
318 1 19.595818360655738 24.34214885245902 8.24711265682e-05 0.0 0.0 0.0
319 1 22.25350491803279 23.717868196721316 3.47458478634e-05 0.0 0.0 0.0
320 1 24.618288524590167 23.057940327868852 4.84514929716e-05 0.0 0.0 0.0
321 1 27.998310819672135 24.379714754098362 7.00883251856e-05 0.0 0.0 0.0
322 1 30.67654754098361 24.714475409836066 7.77815832819e-05 0.0 0.0 0.0
323 1 33.69217049180328 24.71599016393443 3.93071067482e-05 0.0 0.0 0.0
324 1 36.228626229508194 24.078177704918037 9.04925180908e-05 0.0 0.0 0.0
325 1 39.62425049180329 23.261927213114756 9.7427302334e-05 0.0 0.0 0.0
326 1 41.14945639344263 23.176848524590167 3.72461484223e-05 0.0 0.0 0.0
327 1 43.82259344262295 23.429105573770496 9.36501320532e-05 0.0 0.0 0.0
328 1 46.298459016393444 24.066615081967214 4.79218994171e-05 0.0 0.0 0.0
329 1 48.89373770491803 23.786739016393447 9.82932594701e-05 0.0 0.0 0.0
330 1 51.4824524590164 24.291000655737708 4.86137573398e-05 0.0 0.0 0.0
331 1 53.98583606557378 24.19168327868853 6.93741731946e-05 0.0 0.0 0.0
332 1 55.417783606557386 22.65900459016394 2.65731235726e-05 0.0 0.0 0.0
333 1 60.59571803278689 23.902264262295084 8.89053435906e-05 0.0 0.0 0.0
334 1 63.25663606557378 23.82879868852459 3.28366333076e-05 0.0 0.0 0.0
335 1 66.15335081967214 23.53397704918033 5.7675837986e-05 0.0 0.0 0.0
336 1 68.92232131147541 23.821830819672133 8.8918587033e-05 0.0 0.0 0.0
337 1 72.55975081967213 23.74659803278689 4.75114390697e-05 0.0 0.0 0.0
338 1 75.02779016393443 23.259604590163935 8.1582124074e-05 0.0 0.0 0.0
339 1 76.49104262295083 22.909342950819674 4.77963196483e-06 0.0 0.0 0.0
340 1 78.4632524590164 22.63502098360656 5.82320506298e-05 0.0 0.0 0.0
341 1 81.67907540983607 23.49625967213115 5.56296487551e-05 0.0 0.0 0.0
342 1 82.52329836065574 26.015245245901642 1.67374300172e-05 0.0 0.0 0.0
343 1 2.2762209836065574 25.884723934426233 9.84818744059e-05 0.0 0.0 0.0
344 1 4.848884393442623 26.132739672131148 8.05901712319e-05 0.0 0.0 0.0
345 1 7.420022950819672 26.327385573770496 7.33527189841e-05 0.0 0.0 0.0
346 1 10.107247213114755 26.675930491803282 1.01909681578e-06 0.0 0.0 0.0
347 1 12.88485180327869 26.95020196721312 6.407676938e-05 0.0 0.0 0.0
348 1 15.543750163934428 26.931469508196724 9.55230580915e-05 0.0 0.0 0.0
349 1 18.284394754098365 26.74692196721312 1.11076598928e-05 0.0 0.0 0.0
350 1 22.05219409836066 25.86982885245902 6.14452742209e-05 0.0 0.0 0.0
351 1 23.588659672131147 25.76470491803279 7.62569910309e-05 0.0 0.0 0.0
352 1 26.347733770491807 26.450636065573775 6.9181394675e-05 0.0 0.0 0.0
353 1 29.07176655737705 26.750860327868857 6.44049824186e-05 0.0 0.0 0.0
354 1 31.44720393442623 26.036603278688528 8.57125692715e-05 0.0 0.0 0.0
355 1 35.00647213114755 26.693754098360657 9.37869625269e-05 0.0 0.0 0.0
356 1 37.209732459016394 26.48315278688525 6.56115361064e-05 0.0 0.0 0.0
357 1 39.68216459016394 25.945112131147543 5.49119769519e-05 0.0 0.0 0.0
358 1 42.294055081967215 25.567130491803283 9.30086937862e-05 0.0 0.0 0.0
359 1 44.78809770491804 26.030039344262295 3.45964306615e-05 0.0 0.0 0.0
360 1 47.623060983606564 26.178333770491804 7.74623467445e-06 0.0 0.0 0.0
361 1 50.18188459016394 26.336575081967215 8.14520195309e-05 0.0 0.0 0.0
362 1 52.07371147540984 25.747537704918035 6.17086485231e-05 0.0 0.0 0.0
363 1 55.80354098360656 25.732945573770493 3.4248003569e-05 0.0 0.0 0.0
364 1 58.54272131147541 25.555567868852464 6.40847928475e-05 0.0 0.0 0.0
365 1 61.6772524590164 26.152936393442626 3.60091157285e-05 0.0 0.0 0.0
366 1 64.29424262295082 25.71926229508197 6.75359724018e-05 0.0 0.0 0.0
367 1 66.92940983606559 25.74612393442623 3.67523935837e-06 0.0 0.0 0.0
368 1 70.11342295081967 24.830657049180328 1.41307196824e-06 0.0 0.0 0.0
369 1 72.87179016393443 25.956674754098362 5.72047308076e-05 0.0 0.0 0.0
370 1 76.31028196721311 25.912090491803283 3.28478484086e-05 0.0 0.0 0.0
371 1 77.73617049180328 25.403385573770496 6.16026510269e-05 0.0 0.0 0.0
372 1 80.2153180327869 25.92163344262295 6.29082535018e-05 0.0 0.0 0.0
373 1 1.2561350819672132 28.379927868852462 7.95013048215e-05 0.0 0.0 0.0
374 1 4.199635540983607 28.982749508196726 7.42733268643e-05 0.0 0.0 0.0
375 1 5.712289180327869 28.571493770491806 4.72162509451e-05 0.0 0.0 0.0
376 1 8.494791475409837 28.767099016393445 3.71115226874e-05 0.0 0.0 0.0
377 1 11.378731803278688 29.00900524590164 1.15831923302e-05 0.0 0.0 0.0
378 1 14.28397967213115 29.27464262295082 7.29651588267e-05 0.0 0.0 0.0
379 1 16.969689180327872 29.064192786885247 4.81888573252e-05 0.0 0.0 0.0
380 1 19.65746885245902 28.97951803278689 8.83571623021e-05 0.0 0.0 0.0
381 1 22.209223606557376 28.150543606557378 9.60127067145e-05 0.0 0.0 0.0
382 1 24.170173770491807 29.285043934426234 6.56270801227e-05 0.0 0.0 0.0
383 1 28.31454098360656 28.77952 5.49592923414e-05 0.0 0.0 0.0
384 1 30.856247868852464 28.754021639344263 1.3519773046e-05 0.0 0.0 0.0
385 1 33.69570491803279 29.033190819672132 3.92918570285e-05 0.0 0.0 0.0
386 1 36.130419672131154 29.16492393442623 2.29282234848e-05 0.0 0.0 0.0
387 1 38.62840065573771 28.541501639344265 6.13490872036e-05 0.0 0.0 0.0
388 1 41.23433311475411 28.027192131147544 6.56335740147e-05 0.0 0.0 0.0
389 1 43.74932983606558 28.098688524590166 5.15150365857e-05 0.0 0.0 0.0
390 1 46.41191409836066 28.10818098360656 5.25971460133e-06 0.0 0.0 0.0
391 1 48.00644524590164 29.75663737704918 9.06955705313e-05 0.0 0.0 0.0
392 1 51.63291803278689 28.779116065573774 9.54988531924e-05 0.0 0.0 0.0
393 1 54.53771147540984 28.356701639344266 6.42862999434e-05 0.0 0.0 0.0
394 1 57.82624262295082 27.743024262295084 1.50546771538e-05 0.0 0.0 0.0
395 1 59.150642622950826 26.96317836065574 4.0002761707e-05 0.0 0.0 0.0
396 1 62.627508196721315 28.171901639344266 8.75251752208e-05 0.0 0.0 0.0
397 1 65.24702295081968 27.972206557377053 2.73515977348e-05 0.0 0.0 0.0
398 1 67.6797180327869 28.09237704918033 8.0251095724e-05 0.0 0.0 0.0
399 1 70.12604590163934 27.720959344262297 6.29179792786e-07 0.0 0.0 0.0
400 1 72.84805901639345 28.207902295081972 2.09415321643e-05 0.0 0.0 0.0
401 1 75.31508852459018 27.82068065573771 9.57083956536e-05 0.0 0.0 0.0
402 1 78.29309508196722 27.92454229508197 7.82053382402e-05 0.0 0.0 0.0
403 1 81.06913442622951 28.50428918032787 3.30124259762e-05 0.0 0.0 0.0
404 1 82.51774426229508 30.675032786885247 9.11448072805e-05 0.0 0.0 0.0
405 1 2.596949967213115 31.391259016393445 9.45871887119e-05 0.0 0.0 0.0
406 1 4.656263213114754 31.73414885245902 9.07032203411e-05 0.0 0.0 0.0
407 1 7.05436131147541 30.908506885245906 3.74955379435e-05 0.0 0.0 0.0
408 1 9.708059016393443 30.981013114754102 8.34343960137e-05 0.0 0.0 0.0
409 1 12.468142950819674 31.197622950819675 1.79554806962e-06 0.0 0.0 0.0
410 1 16.562068852459017 31.25159868852459 4.86088414148e-05 0.0 0.0 0.0
411 1 18.11943803278689 31.277955409836068 4.67855474263e-05 0.0 0.0 0.0
412 1 21.712182295081966 30.68457573770492 4.18574415861e-05 0.0 0.0 0.0
413 1 23.22395737704918 30.486900327868856 4.60840624067e-05 0.0 0.0 0.0