ITEM: TIMESTEP
0
ITEM: NUMBER OF ATOMS
2232
ITEM: BOX BOUNDS xy xz yz pp pp pp
0.0 82.68810555352132 0
0.0 83.16 0
-10.0 10.0 0
ITEM: ATOMS id type x y z vx vy vz
1 1 1.484292393442623 0.8400674754098362 5.39529700985e-05 0.0 0.0 0.0
2 1 4.1736524590163935 0.5794540327868853 7.04968429183e-05 0.0 0.0 0.0
3 1 6.7677193442622965 0.42203371803278694 2.53096160948e-05 0.0 0.0 0.0
4 1 9.447672786885247 0.6130664262295084 7.27246364124e-05 0.0 0.0 0.0
5 1 12.846276065573772 0.3471139803278689 7.63401201024e-05 0.0 0.0 0.0
6 1 14.387184918032789 0.34008047213114756 2.44261087485e-05 0.0 0.0 0.0
7 1 17.112934426229508 0.6270476065573771 9.671127541e-05 0.0 0.0 0.0
8 1 19.929367213114755 0.8973100327868853 5.60983977649e-05 0.0 0.0 0.0
9 1 22.550144262295085 1.1095624262295083 7.27625775437e-05 0.0 0.0 0.0
10 1 25.17172918032787 1.1270679344262295 1.15736445384e-05 0.0 0.0 0.0
11 1 28.064909508196724 0.9907148196721313 7.19611753501e-07 0.0 0.0 0.0
12 1 30.89830754098361 0.8706453114754099 8.07338975691e-05 0.0 0.0 0.0
13 1 33.418050491803285 0.9523309508196722 9.91325403237e-05 0.0 0.0 0.0
14 1 35.93355213114755 0.7122676721311476 1.84677270019e-05 0.0 0.0 0.0
15 1 38.46389836065574 0.8610821639344263 4.07316779282e-05 0.0 0.0 0.0
16 1 41.21716590163935 0.6746310819672132 9.46493069883e-05 0.0 0.0 0.0
17 1 43.869550819672135 0.571728786885246 8.53413342168e-05 0.0 0.0 0.0
18 1 46.32850163934426 0.29192593442622955 3.15034713913e-05 0.0 0.0 0.0
19 1 48.801741639344264 1.7726965245901642 3.4032177504e-05 0.0 0.0 0.0
20 1 51.547586885245906 0.8881003278688525 3.80106904301e-05 0.0 0.0 0.0
21 1 54.276163934426236 0.7083596065573771 8.63346381583e-05 0.0 0.0 0.0
22 1 57.09259672131148 0.4603665901639345 1.36786788417e-05 0.0 0.0 0.0
23 1 59.76512786885247 0.4993351540983607 6.90262479925e-05 0.0 0.0 0.0
24 1 62.537127868852465 0.5770455737704918 2.12746317085e-05 0.0 0.0 0.0
25 1 65.11826885245901 1.0592574426229509 4.68190251032e-05 0.0 0.0 0.0
26 1 67.6948655737705 0.9528207213114755 1.47999836142e-05 0.0 0.0 0.0
27 1 70.52846557377049 1.1235789508196723 5.3272033559e-05 0.0 0.0 0.0
28 1 73.37468852459017 1.3402493770491803 1.3818805127e-05 0.0 0.0 0.0
29 1 76.18657704918034 1.1957216393442625 8.78739234076e-05 0.0 0.0 0.0
30 1 78.90101639344262 0.8170886557377051 1.67036076987e-05 0.0 0.0 0.0
31 1 81.62555409836067 0.8096461639344263 5.93565711929e-05 0.0 0.0 0.0
32 1 0.21069371147540986 3.218180918032787 1.9388319587e-05 0.0 0.0 0.0
33 1 2.9828184262295085 2.964161704918033 4.99490731176e-06 0.0 0.0 0.0
34 1 6.331167213114755 2.650345049180328 1.69207695215e-05 0.0 0.0 0.0
35 1 7.8635934426229515 2.7717121967213116 7.62208991252e-05 0.0 0.0 0.0
36 1 10.332188196721313 3.206285049180328 5.49128017781e-05 0.0 0.0 0.0
37 1 12.812497049180328 3.036607344262295 8.12220629887e-05 0.0 0.0 0.0
38 1 15.574247213114756 2.726739147540984 3.27034576815e-05 0.0 0.0 0.0
39 1 18.35190229508197 2.89475062295082 9.01477918102e-05 0.0 0.0 0.0
40 1 21.04074229508197 3.3672428196721316 1.32792524581e-06 0.0 0.0 0.0
41 1 23.763967213114757 3.4913264262295085 2.97263739236e-05 0.0 0.0 0.0
42 1 26.567171147540986 3.122721114754099 9.79934792657e-05 0.0 0.0 0.0
43 1 29.33094098360656 3.091683803278689 5.69745199972e-05 0.0 0.0 0.0
44 1 31.995746885245907 3.30747062295082 7.79399244601e-05 0.0 0.0 0.0
45 1 34.73260459016394 3.240008524590164 7.49416769132e-06 0.0 0.0 0.0
46 1 37.36539868852459 3.191339475409836 1.5652894286e-05 0.0 0.0 0.0
47 1 40.00147475409836 2.9370122622950823 5.14890549425e-05 0.0 0.0 0.0
48 1 42.710662950819675 2.902541508196722 7.64139589854e-05 0.0 0.0 0.0
49 1 45.312960000000004 2.878542754098361 6.26396160346e-05 0.0 0.0 0.0
50 1 47.97004065573771 3.067190229508197 8.52443849803e-05 0.0 0.0 0.0
51 1 50.454489836065584 3.443949967213115 8.73059737611e-05 0.0 0.0 0.0
52 1 53.285009836065576 3.1092499016393447 5.21297818343e-05 0.0 0.0 0.0
53 1 56.02318032786886 2.7385340327868857 5.3277768513e-05 0.0 0.0 0.0
54 1 58.72853114754099 2.7627549508196725 6.13423179064e-05 0.0 0.0 0.0
55 1 61.33542295081968 2.701447803278689 5.90622710948e-05 0.0 0.0 0.0
56 1 63.67672786885247 4.169350557377049 7.85700188134e-06 0.0 0.0 0.0
57 1 66.5168918032787 3.3651979016393447 9.69577086899e-05 0.0 0.0 0.0
58 1 69.29495081967214 3.1973379016393446 4.60629279644e-05 0.0 0.0 0.0
59 1 72.06190163934427 3.3673993442622954 1.33513643462e-05 0.0 0.0 0.0
60 1 74.836931147541 3.4517156065573773 9.86298575304e-05 0.0 0.0 0.0
61 1 77.51249180327869 3.2924442622950822 2.04418451427e-05 0.0 0.0 0.0
62 1 80.14664918032787 3.134601836065574 7.87726907046e-05 0.0 0.0 0.0
63 1 2.3347561311475413 5.124514098360656 9.35749214115e-05 0.0 0.0 0.0
64 1 3.844355016393443 5.345567213114754 7.14000381273e-05 0.0 0.0 0.0
65 1 6.33404524590164 5.47932 6.62043307402e-05 0.0 0.0 0.0
66 1 9.045556065573772 5.424031475409836 4.37370126324e-05 0.0 0.0 0.0
67 1 11.786958032786886 5.546524590163934 9.13010141639e-05 0.0 0.0 0.0
68 1 14.493924590163937 5.063217049180328 7.66549103217e-05 0.0 0.0 0.0
69 1 17.1442393442623 4.970625180327869 1.97735197897e-05 0.0 0.0 0.0
70 1 19.21652393442623 6.557824918032788 7.57700568295e-05 0.0 0.0 0.0
71 1 22.067998032786885 5.749350163934427 2.26970607327e-05 0.0 0.0 0.0
72 1 26.064474754098363 5.259226229508197 3.20421468534e-05 0.0 0.0 0.0
73 1 27.631437377049185 5.284371147540984 6.79836133187e-05 0.0 0.0 0.0
74 1 30.404750163934427 5.487348196721312 2.90172104307e-05 0.0 0.0 0.0
75 1 33.26596918032787 5.510523934426231 9.27798727644e-05 0.0 0.0 0.0
76 1 36.08558295081967 5.559400000000001 5.45876321393e-05 0.0 0.0 0.0
77 1 39.6199586885246 5.12552393442623 2.41790896941e-05 0.0 0.0 0.0
78 1 41.1597062295082 5.130219672131148 5.99958122856e-05 0.0 0.0 0.0
79 1 43.813302950819676 5.231455737704919 9.76721914085e-05 0.0 0.0 0.0
80 1 46.545818360655744 5.290985573770492 8.89735374097e-05 0.0 0.0 0.0
81 1 49.0677324590164 5.628068852459017 7.83673849686e-05 0.0 0.0 0.0
82 1 51.22241967213115 4.779190557377049 9.47327991462e-05 0.0 0.0 0.0
83 1 54.83662295081968 5.113102950819672 3.01631576198e-05 0.0 0.0 0.0
84 1 57.55914098360656 5.010261245901639 4.86436822611e-06 0.0 0.0 0.0
85 1 60.265501639344265 5.09240131147541 7.33119786782e-05 0.0 0.0 0.0
86 1 62.95065573770492 5.519662950819673 7.50289155174e-05 0.0 0.0 0.0
87 1 65.42020983606558 5.688659016393443 9.62606458109e-05 0.0 0.0 0.0
88 1 68.13212459016394 5.457608524590165 6.50308382794e-05 0.0 0.0 0.0
89 1 70.79304262295082 5.494619016393443 3.24484625753e-05 0.0 0.0 0.0
90 1 73.46860327868853 5.636097049180329 5.90744380006e-05 0.0 0.0 0.0
91 1 76.14668852459018 5.707946885245902 4.3460626462e-05 0.0 0.0 0.0
92 1 78.65815081967213 5.584544918032788 1.80339559953e-05 0.0 0.0 0.0
93 1 81.48316721311475 5.4292321311475416 4.38698765905e-05 0.0 0.0 0.0
94 1 0.0975900524590164 7.790077377049181 5.75141412994e-05 0.0 0.0 0.0
95 1 2.436719278688525 7.768618360655738 5.87617260281e-05 0.0 0.0 0.0
96 1 5.101287868852459 7.837287213114755 3.02127393131e-05 0.0 0.0 0.0
97 1 7.737515409836066 7.747159344262296 7.2288635278e-05 0.0 0.0 0.0
98 1 10.345316065573773 7.7596308196721315 6.94728831452e-05 0.0 0.0 0.0
99 1 14.089081311475411 7.305255081967213 5.65502364777e-06 0.0 0.0 0.0
100 1 15.638018360655739 7.331965245901641 8.91319773123e-05 0.0 0.0 0.0
101 1 18.19507475409836 7.736152131147541 6.45807195902e-05 0.0 0.0 0.0
102 1 20.754201311475413 8.18012655737705 1.34666728856e-05 0.0 0.0 0.0
103 1 23.65328918032787 8.06773180327869 9.91363733328e-05 0.0 0.0 0.0
104 1 26.261695737704922 8.819958688524592 6.98656969636e-05 0.0 0.0 0.0
105 1 29.015771147540985 7.64804393442623 9.5075471639e-06 0.0 0.0 0.0
106 1 31.831800000000005 7.632997377049181 3.69743937391e-05 0.0 0.0 0.0
107 1 34.58779409836066 7.705604590163936 6.46727675496e-05 0.0 0.0 0.0
108 1 37.24255213114755 7.941552786885247 6.32910024538e-05 0.0 0.0 0.0
109 1 39.77224196721312 7.766952131147542 6.59259495173e-05 0.0 0.0 0.0
110 1 42.42689901639344 7.5115645901639345 7.11521363445e-05 0.0 0.0 0.0
111 1 45.14749836065574 7.496972459016394 2.93719402322e-05 0.0 0.0 0.0
112 1 47.839266885245905 7.853545573770493 7.9043043943e-05 0.0 0.0 0.0
113 1 50.66751475409836 7.696213114754099 4.36387633214e-05 0.0 0.0 0.0
114 1 53.44052459016394 7.470716721311476 5.58995914966e-05 0.0 0.0 0.0
115 1 56.133757377049186 7.279958688524592 4.71398298548e-06 0.0 0.0 0.0
116 1 58.896163934426234 7.318685901639345 3.56652026542e-05 0.0 0.0 0.0
117 1 61.52779672131148 7.580031475409837 7.04494128162e-05 0.0 0.0 0.0
118 1 64.16144918032788 8.024561311475411 8.63445271453e-05 0.0 0.0 0.0
119 1 66.80923934426231 7.7792216393442635 2.29288459083e-05 0.0 0.0 0.0
120 1 69.45198032786885 7.7664472131147555 4.859406346e-05 0.0 0.0 0.0
121 1 71.99323278688526 7.8630380327868865 2.65620308393e-05 0.0 0.0 0.0
122 1 74.6516262295082 7.9919940983606566 1.52063104842e-05 0.0 0.0 0.0
123 1 77.16510819672132 8.137309508196722 5.68118973128e-05 0.0 0.0 0.0
124 1 80.14715409836066 7.654456393442624 3.98388215269e-05 0.0 0.0 0.0
125 1 1.2657941639344263 10.27336524590164 3.74682463963e-05 0.0 0.0 0.0
126 1 3.81882131147541 10.111286557377051 6.09478932062e-05 0.0 0.0 0.0
127 1 6.4211436065573775 10.133099016393443 6.66984550049e-06 0.0 0.0 0.0
128 1 8.96784918032787 10.133704918032787 3.36986204564e-05 0.0 0.0 0.0
129 1 11.344902295081969 10.134159344262297 1.51459326829e-05 0.0 0.0 0.0
130 1 13.832784918032788 9.892707540983608 7.39189720508e-05 0.0 0.0 0.0
131 1 16.58378032786885 9.96889967213115 5.2238066144e-05 0.0 0.0 0.0
132 1 19.149420327868857 10.259732459016394 5.24763588904e-05 0.0 0.0 0.0
133 1 21.593779016393444 9.461760000000002 9.79712982632e-05 0.0 0.0 0.0
134 1 25.494220327868852 10.156224262295083 4.63480303943e-05 0.0 0.0 0.0
135 1 27.995836721311477 10.116487213114755 3.20234722361e-05 0.0 0.0 0.0
136 1 30.681899672131152 9.79409704918033 4.10901479076e-06 0.0 0.0 0.0
137 1 33.362257049180336 9.878064918032788 5.75014732639e-05 0.0 0.0 0.0
138 1 36.05806491803279 10.092503606557377 3.31822874588e-05 0.0 0.0 0.0
139 1 38.776392131147546 10.216713442622952 2.22130701571e-05 0.0 0.0 0.0
140 1 41.45149836065574 9.947541639344264 4.20870538222e-05 0.0 0.0 0.0
141 1 44.059349508196725 9.72860918032787 7.03027737273e-05 0.0 0.0 0.0
142 1 46.476543606557385 11.008980327868853 3.410009412e-05 0.0 0.0 0.0
143 1 49.32761377049181 9.998083934426232 4.80068451216e-06 0.0 0.0 0.0
144 1 52.183783606557384 9.866401311475412 9.15641778552e-05 0.0 0.0 0.0
145 1 55.671252459016394 9.454741639344263 1.60090042179e-05 0.0 0.0 0.0
146 1 57.218826229508196 9.457872131147543 4.0157082836e-05 0.0 0.0 0.0
147 1 59.96457049180328 9.761529836065574 7.17127463214e-05 0.0 0.0 0.0
148 1 62.72091803278689 10.106439344262295 1.3491238063e-05 0.0 0.0 0.0
149 1 66.30331147540984 10.000911475409836 9.49217756005e-05 0.0 0.0 0.0
150 1 67.83826229508198 10.028883934426231 9.8955283285e-06 0.0 0.0 0.0
151 1 70.38759344262296 10.182429508196721 5.46066530315e-05 0.0 0.0 0.0
152 1 73.07022295081968 10.219944918032787 4.73474493446e-05 0.0 0.0 0.0
153 1 75.82000655737706 10.516079344262296 4.79874746947e-05 0.0 0.0 0.0
154 1 77.97348196721312 9.461558032786886 9.83256940372e-05 0.0 0.0 0.0
155 1 81.5740524590164 9.96501180327869 6.55394890753e-06 0.0 0.0 0.0
156 1 82.15268852459018 12.48793573770492 9.94531579488e-05 0.0 0.0 0.0
157 1 2.293292262295082 12.53029836065574 7.60911514515e-06 0.0 0.0 0.0
158 1 5.050089180327869 12.47904918032787 2.75800298959e-05 0.0 0.0 0.0
159 1 7.749633442622952 12.54140655737705 3.02244993756e-05 0.0 0.0 0.0
160 1 10.385709508196722 12.63617967213115 1.35243053634e-05 0.0 0.0 0.0
161 1 12.902877377049181 12.380640655737706 7.9139011703e-05 0.0 0.0 0.0
162 1 14.948603278688527 13.414258360655738 8.27226644075e-05 0.0 0.0 0.0
163 1 18.243748852459017 12.465870819672132 5.79558179169e-05 0.0 0.0 0.0
164 1 20.924611147540986 12.151003934426232 8.97962172844e-05 0.0 0.0 0.0
165 1 23.686007868852464 12.251381639344263 6.71039342144e-05 0.0 0.0 0.0
166 1 26.782518688524593 12.534792131147542 9.67256305703e-06 0.0 0.0 0.0
167 1 29.50645049180328 12.178925901639346 5.16954729507e-05 0.0 0.0 0.0
168 1 32.13207475409836 12.106823606557377 7.35253434412e-05 0.0 0.0 0.0
169 1 34.78915540983607 12.232800655737705 2.82061982905e-05 0.0 0.0 0.0
170 1 37.52252918032787 12.39553573770492 2.34364760642e-05 0.0 0.0 0.0
171 1 40.20409836065574 12.37397573770492 5.70246348884e-05 0.0 0.0 0.0
172 1 42.86986360655738 12.229720655737706 2.99638784705e-05 0.0 0.0 0.0
173 1 45.68427672131148 12.345599344262297 9.66729315209e-05 0.0 0.0 0.0
174 1 48.2190662295082 12.393718032786886 4.92815647457e-06 0.0 0.0 0.0
175 1 50.8664524590164 12.101269508196722 1.80935950216e-05 0.0 0.0 0.0
176 1 53.423357377049186 12.309497704918034 7.66553625915e-06 0.0 0.0 0.0
177 1 55.857062295081974 12.155901639344263 2.42674095293e-05 0.0 0.0 0.0
178 1 58.506872131147546 11.840529836065574 1.66488261205e-05 0.0 0.0 0.0
179 1 61.17384918032788 12.137270163934428 7.68524994405e-05 0.0 0.0 0.0
180 1 63.681272131147544 12.60957049180328 2.16767316039e-05 0.0 0.0 0.0
181 1 66.20939672131148 12.603713442622952 8.03348027899e-05 0.0 0.0 0.0
182 1 68.9228262295082 12.50788 4.28674283109e-05 0.0 0.0 0.0
183 1 71.47821639344262 12.47137442622951 7.77817724461e-06 0.0 0.0 0.0
184 1 74.16892459016394 12.544840000000002 6.90620114072e-05 0.0 0.0 0.0
185 1 76.82176393442623 11.712634098360656 4.8211166908e-05 0.0 0.0 0.0
186 1 79.54983606557379 11.747271475409837 4.98394344863e-05 0.0 0.0 0.0
187 1 0.6913792131147541 14.651055081967215 9.90600597981e-05 0.0 0.0 0.0
188 1 3.5655948196721314 14.719875409836066 2.56275548522e-05 0.0 0.0 0.0
189 1 6.34136655737705 14.79596655737705 9.72993599443e-05 0.0 0.0 0.0
190 1 9.067065573770492 14.944059016393444 8.35162012116e-05 0.0 0.0 0.0
191 1 11.737728524590166 14.982937704918035 5.68771318581e-05 0.0 0.0 0.0
192 1 14.271104262295083 14.774507540983608 2.61292365568e-06 0.0 0.0 0.0
193 1 16.28481836065574 14.129222295081968 1.57034164167e-06 0.0 0.0 0.0
194 1 19.79096918032787 14.557998688524592 4.7759474234e-05 0.0 0.0 0.0
195 1 22.24431540983607 14.392688524590165 8.81150614906e-06 0.0 0.0 0.0
196 1 24.345178360655737 13.64904524590164 8.14491901325e-05 0.0 0.0 0.0
197 1 28.111109508196723 14.52033180327869 9.27875160085e-05 0.0 0.0 0.0
198 1 30.74541836065574 14.441968524590164 4.23043184713e-05 0.0 0.0 0.0
199 1 33.403710819672135 14.45645967213115 5.33778375874e-05 0.0 0.0 0.0
200 1 36.08755213114755 14.53573180327869 1.26607083805e-05 0.0 0.0 0.0
201 1 38.825823606557385 14.692508852459019 1.02645285465e-05 0.0 0.0 0.0
202 1 41.342183606557384 14.627071475409839 9.73635161055e-05 0.0 0.0 0.0
203 1 43.99088262295082 14.481756065573771 4.8810488958e-05 0.0 0.0 0.0
204 1 47.144045245901644 14.749968524590164 8.2259868491e-05 0.0 0.0 0.0
205 1 49.74311081967214 14.522704918032789 8.21963439337e-06 0.0 0.0 0.0
206 1 52.21458360655738 14.570520655737706 7.34529903514e-05 0.0 0.0 0.0
207 1 54.785121311475415 14.691852459016395 3.89641525298e-05 0.0 0.0 0.0
208 1 58.089809836065584 14.106652459016395 8.01586391242e-05 0.0 0.0 0.0
209 1 59.62829508196722 14.247070163934428 7.89472065324e-05 0.0 0.0 0.0
210 1 62.24629508196722 14.740122622950821 4.41193609351e-06 0.0 0.0 0.0
211 1 64.98800000000001 14.990158032786887 6.65031410091e-05 0.0 0.0 0.0
212 1 67.69032131147543 14.840449836065575 9.77895391239e-06 0.0 0.0 0.0
213 1 70.33710163934427 14.89301180327869 9.12517426445e-05 0.0 0.0 0.0
214 1 72.85967213114755 14.75789573770492 3.07320197002e-05 0.0 0.0 0.0
215 1 75.19390819672132 16.09996786885246 3.12497386392e-05 0.0 0.0 0.0
216 1 77.72506229508198 14.553959344262298 8.45679480206e-05 0.0 0.0 0.0
217 1 80.55411803278689 14.416470163934427 1.08794476364e-05 0.0 0.0 0.0
218 1 81.982531147541 16.716169836065575 9.59568667047e-05 0.0 0.0 0.0
219 1 2.0717140327868853 16.780092459016394 1.28280871984e-05 0.0 0.0 0.0
220 1 4.883410688524591 16.96852786885246 6.87329513029e-05 0.0 0.0 0.0
221 1 7.50328393442623 17.13257573770492 4.9473364792e-06 0.0 0.0 0.0
222 1 10.181066229508197 17.313740327868853 4.67336443403e-05 0.0 0.0 0.0
223 1 14.104986229508198 16.943786885245903 2.93180125935e-05 0.0 0.0 0.0
224 1 15.655640000000002 16.997560655737708 7.17164262943e-05 0.0 0.0 0.0
225 1 18.346348196721312 16.880167213114756 2.42227872784e-05 0.0 0.0 0.0
226 1 21.111228852459018 16.9191468852459 5.05823623818e-05 0.0 0.0 0.0
227 1 23.72412918032787 16.566613114754098 3.1821328038e-05 0.0 0.0 0.0
228 1 26.503046557377054 16.57166229508197 1.45986899534e-05 0.0 0.0 0.0
229 1 29.212285245901644 16.750352786885248 6.33971480969e-05 0.0 0.0 0.0
230 1 31.85341049180328 16.712736393442622 3.12165478422e-05 0.0 0.0 0.0
231 1 34.574565245901645 16.755200000000002 2.76871590625e-05 0.0 0.0 0.0
232 1 37.12914754098361 16.813215081967215 1.55317694938e-05 0.0 0.0 0.0
233 1 39.919577049180326 17.11596393442623 6.55458235572e-05 0.0 0.0 0.0
234 1 42.94257180327869 16.845529836065577 1.72258198802e-05 0.0 0.0 0.0
235 1 44.91922491803279 15.70234491803279 2.50258757396e-05 0.0 0.0 0.0
236 1 48.336914098360666 16.930608524590166 2.13747023728e-05 0.0 0.0 0.0
237 1 50.82858360655738 16.96766950819672 6.04371915932e-05 0.0 0.0 0.0
238 1 53.29662295081968 16.989532459016395 9.91561096579e-05 0.0 0.0 0.0
239 1 55.7752655737705 17.132626229508197 3.41529022462e-06 0.0 0.0 0.0
240 1 58.238255737704925 16.899051147540984 4.10384258111e-05 0.0 0.0 0.0
241 1 60.93704262295083 16.81801180327869 2.01981700289e-05 0.0 0.0 0.0
242 1 63.65047213114755 17.08940524590164 5.86671055405e-05 0.0 0.0 0.0
243 1 66.38864262295083 17.1901868852459 6.65569608121e-05 0.0 0.0 0.0
244 1 69.07632131147541 17.209222295081968 6.22752414568e-05 0.0 0.0 0.0
245 1 71.79076065573771 17.25996655737705 8.55707023734e-05 0.0 0.0 0.0
246 1 74.55720655737706 17.501367868852462 9.14268781865e-05 0.0 0.0 0.0
247 1 77.08230163934428 17.143128524590168 9.73263077768e-05 0.0 0.0 0.0
248 1 79.55034098360656 16.68658163934426 9.10390603702e-05 0.0 0.0 0.0
249 1 0.647920918032787 18.93235606557377 2.81951828815e-06 0.0 0.0 0.0
250 1 3.309702360655738 19.00602360655738 2.7904261006e-05 0.0 0.0 0.0
251 1 5.943895081967214 19.39056918032787 5.79966987503e-05 0.0 0.0 0.0
252 1 8.786583606557379 19.513112786885248 8.46533140203e-05 0.0 0.0 0.0
253 1 11.015998688524592 18.61546950819672 9.64608947116e-05 0.0 0.0 0.0
254 1 14.551687213114755 19.772388196721312 8.10727003675e-06 0.0 0.0 0.0
255 1 17.064260327868855 19.277972459016393 7.05653264356e-05 0.0 0.0 0.0
256 1 19.867969180327872 19.144421639344266 5.011459281e-05 0.0 0.0 0.0
257 1 22.631940983606558 19.10337180327869 9.46493974166e-05 0.0 0.0 0.0
258 1 25.24418491803279 18.758108852459017 1.80920418598e-05 0.0 0.0 0.0
259 1 27.930651803278693 18.90392918032787 5.97604517873e-05 0.0 0.0 0.0
260 1 30.38132196721312 19.02177704918033 7.64165081269e-05 0.0 0.0 0.0
261 1 32.972157377049186 18.93200262295082 3.96139824754e-05 0.0 0.0 0.0
262 1 35.544664262295086 19.146643278688526 1.27240680999e-05 0.0 0.0 0.0
263 1 38.14968786885247 19.05994885245902 2.88545029398e-05 0.0 0.0 0.0
264 1 40.513360655737706 18.553819016393444 1.85369726134e-05 0.0 0.0 0.0
265 1 44.42223409836066 18.66989967213115 3.90503024761e-05 0.0 0.0 0.0
266 1 46.707695081967216 19.055152131147544 9.87926842809e-05 0.0 0.0 0.0
267 1 49.34483147540984 19.339622950819674 6.7925765951e-05 0.0 0.0 0.0
268 1 51.896485245901644 19.40490885245902 8.43822677608e-05 0.0 0.0 0.0
269 1 54.426124590163944 19.472315409836067 8.56328097771e-05 0.0 0.0 0.0
270 1 57.025947540983616 19.42682229508197 6.61710645046e-05 0.0 0.0 0.0
271 1 59.657580327868864 19.13775672131148 2.83612647794e-05 0.0 0.0 0.0
272 1 62.360406557377054 19.212383606557378 9.19662670555e-06 0.0 0.0 0.0
273 1 65.05363934426231 19.391730491803283 3.69725568574e-05 0.0 0.0 0.0
274 1 67.69032131147543 19.50685180327869 7.88989627576e-05 0.0 0.0 0.0
275 1 70.35426885245901 19.53144131147541 5.9421699105e-05 0.0 0.0 0.0
276 1 73.07375737704918 19.631970491803283 6.93145599755e-05 0.0 0.0 0.0
277 1 76.81217049180329 19.413441967213117 1.94693404445e-05 0.0 0.0 0.0
278 1 78.34762622950821 19.293624918032787 4.32270888858e-05 0.0 0.0 0.0
279 1 80.8197049180328 19.217483278688526 1.05500909573e-05 0.0 0.0 0.0
280 1 0.2461268393442623 21.298553442622953 6.4886037986e-05 0.0 0.0 0.0
281 1 1.7805278032786886 21.22468393442623 2.31266283815e-05 0.0 0.0 0.0
282 1 4.432332065573771 21.45684524590164 5.2898276723e-05 0.0 0.0 0.0
283 1 6.596451147540984 20.782628196721316 7.89370425673e-05 0.0 0.0 0.0
284 1 10.240646557377051 21.470579016393444 6.52022986236e-05 0.0 0.0 0.0
285 1 12.906916721311477 21.982161967213116 1.14186625133e-06 0.0 0.0 0.0
286 1 15.964346885245902 21.93687081967213 4.43091410963e-05 0.0 0.0 0.0
287 1 18.423348196721314 21.38797442622951 3.67179220357e-05 0.0 0.0 0.0
288 1 21.1650531147541 21.38575278688525 1.49746498554e-05 0.0 0.0 0.0
289 1 24.99738098360656 20.968185573770494 1.58990120267e-05 0.0 0.0 0.0
290 1 26.538996721311477 21.082852459016397 4.15477509188e-05 0.0 0.0 0.0
291 1 29.20339868852459 21.41912786885246 8.03812073135e-05 0.0 0.0 0.0
292 1 31.8142793442623 21.29759409836066 8.52217359853e-06 0.0 0.0 0.0
293 1 34.36921508196722 22.273297704918033 3.09306906725e-05 0.0 0.0 0.0
294 1 37.15257573770492 21.401253770491802 8.25836247059e-05 0.0 0.0 0.0
295 1 39.60344786885246 21.245385573770495 8.27885069501e-05 0.0 0.0 0.0
296 1 42.16939081967214 20.89860786885246 8.77222405171e-05 0.0 0.0 0.0
297 1 45.32028131147541 21.428519344262295 2.97410730032e-06 0.0 0.0 0.0
298 1 47.96287081967213 21.504105573770495 5.4249880079e-06 0.0 0.0 0.0
299 1 50.51048524590165 21.749647213114756 4.27017201003e-06 0.0 0.0 0.0
300 1 53.04820327868853 21.82775803278689 4.99393028457e-05 0.0 0.0 0.0
301 1 55.629849180327874 21.782971803278688 2.37188771681e-05 0.0 0.0 0.0
302 1 58.27309508196722 21.576510819672134 6.05937658687e-05 0.0 0.0 0.0
303 1 60.979455737704924 21.437203934426233 4.37903084816e-05 0.0 0.0 0.0
304 1 63.74893114754099 21.584640000000004 6.37533754294e-05 0.0 0.0 0.0
305 1 66.29573770491804 21.798573770491807 1.78456566918e-05 0.0 0.0 0.0
306 1 68.87788852459016 21.8488131147541 2.1835260821e-06 0.0 0.0 0.0
307 1 71.48023606557378 21.856689836065573 5.38149883105e-05 0.0 0.0 0.0
308 1 74.10076065573772 22.04638754098361 5.30715860162e-06 0.0 0.0 0.0
309 1 76.73037377049181 21.912129836065574 6.49273174712e-05 0.0 0.0 0.0
310 1 79.6028524590164 21.746213770491806 9.17266991849e-05 0.0 0.0 0.0
311 1 0.5996760000000001 24.04914491803279 4.85104267631e-06 0.0 0.0 0.0
312 1 3.327147278688525 23.608048524590167 9.22740028326e-05 0.0 0.0 0.0
313 1 6.095521967213116 23.628144262295084 5.88197090753e-05 0.0 0.0 0.0
314 1 8.721247213114756 23.763007868852462 8.77981936055e-05 0.0 0.0 0.0
315 1 11.276132459016393 23.922511475409838 6.94035280397e-05 0.0 0.0 0.0
316 1 13.722914754098362 23.276569836065576 3.92239191977e-05 0.0 0.0 0.0
317 1 17.335603278688527 24.046973770491807 6.33013993432e-05 0.0 0.0 0.0
318 1 19.75512 23.570028196721314 3.18113717169e-05 0.0 0.0 0.0
319 1 21.840582950819673 22.768874754098363 7.91647111314e-05 0.0 0.0 0.0
320 1 25.298564590163938 23.796786885245904 1.64231038766e-05 0.0 0.0 0.0
321 1 27.938982950819675 23.569119344262297 9.6108288594e-05 0.0 0.0 0.0
322 1 30.58616721311476 23.747506885245905 5.46265010096e-05 0.0 0.0 0.0
323 1 34.39138098360656 23.790626885245906 1.71349057542e-05 0.0 0.0 0.0
324 1 35.91305245901639 23.754777704918034 2.68661684065e-05 0.0 0.0 0.0
325 1 38.62885508196722 23.758312131147544 6.27793089728e-05 0.0 0.0 0.0
326 1 41.82932852459017 23.131860327868853 2.58037720032e-06 0.0 0.0 0.0
327 1 43.021843934426236 22.179635409836067 4.77242512528e-05 0.0 0.0 0.0
328 1 46.416458360655746 23.750283934426232 5.53042425042e-05 0.0 0.0 0.0
329 1 49.05970426229509 24.003197377049183 8.92866979446e-05 0.0 0.0 0.0
330 1 51.66573770491804 24.18229180327869 4.37729966799e-05 0.0 0.0 0.0
331 1 54.21304918032788 24.162600000000005 9.09371088175e-05 0.0 0.0 0.0
332 1 56.86386885245902 23.9770931147541 1.81563564166e-05 0.0 0.0 0.0
333 1 59.548013114754106 23.743568524590167 4.14482562369e-05 0.0 0.0 0.0
334 1 62.296281967213126 23.687522622950823 5.18587495705e-05 0.0 0.0 0.0
335 1 64.91024262295083 24.10615016393443 3.07010026181e-05 0.0 0.0 0.0
336 1 67.48885901639345 24.220665573770493 7.12509502351e-05 0.0 0.0 0.0
337 1 70.0932262295082 24.224452459016394 1.49742853521e-05 0.0 0.0 0.0
338 1 72.72788852459017 24.27671147540984 2.40526560357e-05 0.0 0.0 0.0
339 1 75.43980327868853 24.282669508196726 6.47388756793e-05 0.0 0.0 0.0
340 1 78.14060983606558 23.96734819672131 9.89461371681e-05 0.0 0.0 0.0
341 1 80.81617049180328 24.19971147540984 7.39395096109e-05 0.0 0.0 0.0
342 1 82.06028852459016 26.579844590163937 7.16105635567e-05 0.0 0.0 0.0
343 1 3.073824852459017 25.741731147540985 3.89069393306e-05 0.0 0.0 0.0
344 1 4.638141704918033 25.83019278688525 4.04883929552e-05 0.0 0.0 0.0
345 1 7.395231475409837 26.07684524590164 9.85855050815e-05 0.0 0.0 0.0
346 1 10.153447213114756 26.236651803278694 4.29058541795e-06 0.0 0.0 0.0
347 1 12.826129836065576 25.956725245901644 5.94420172986e-05 0.0 0.0 0.0
348 1 15.627819016393444 26.242660327868855 8.87953574466e-05 0.0 0.0 0.0
349 1 19.61702491803279 25.93137836065574 6.28094043301e-05 0.0 0.0 0.0
350 1 21.135262950819676 25.67947475409836 2.32408040444e-05 0.0 0.0 0.0
351 1 23.71887803278689 26.059779016393446 8.32134870876e-05 0.0 0.0 0.0
352 1 26.44992918032787 25.96142098360656 2.42323602211e-05 0.0 0.0 0.0
353 1 29.13927409836066 25.993836721311478 7.46636499299e-05 0.0 0.0 0.0
354 1 31.62826754098361 26.302745573770494 5.24315545779e-05 0.0 0.0 0.0
355 1 34.039958032786885 26.172628196721313 2.71580326522e-05 0.0 0.0 0.0
356 1 36.93743016393443 25.949302950819675 2.77803437469e-05 0.0 0.0 0.0
357 1 39.72154819672132 26.132689180327873 2.94053626132e-05 0.0 0.0 0.0
358 1 42.121979016393446 26.00459147540984 9.79915355918e-05 0.0 0.0 0.0
359 1 44.71503606557378 25.77172327868853 1.60312948447e-05 0.0 0.0 0.0
360 1 47.440432131147546 26.15929836065574 1.92313713114e-05 0.0 0.0 0.0
361 1 50.24040459016394 26.442001967213116 5.94932825134e-05 0.0 0.0 0.0
362 1 52.846740983606566 26.5782793442623 4.10536501282e-05 0.0 0.0 0.0
363 1 55.50059016393443 26.371262950819673 6.67525063144e-05 0.0 0.0 0.0
364 1 58.33520000000001 26.110624262295087 8.95373732056e-05 0.0 0.0 0.0
365 1 61.128406557377055 25.886491147540987 6.11280232521e-05 0.0 0.0 0.0
366 1 63.35812459016394 27.334545573770495 5.47016306577e-06 0.0 0.0 0.0
367 1 66.21293114754098 26.577219016393443 4.28121272769e-05 0.0 0.0 0.0
368 1 68.8304262295082 26.60201049180328 2.07295257952e-05 0.0 0.0 0.0
369 1 71.42570491803279 26.586459016393444 8.06049408121e-05 0.0 0.0 0.0
370 1 74.14216393442624 26.531422950819675 6.19082610781e-05 0.0 0.0 0.0
371 1 76.82731803278689 26.36560786885246 2.47423560669e-05 0.0 0.0 0.0
372 1 79.50136393442624 26.345512131147544 1.4812940942e-05 0.0 0.0 0.0
373 1 0.637408524590164 28.79582885245902 6.686494858e-05 0.0 0.0 0.0
374 1 3.2528182950819673 28.24183278688525 5.00195708866e-05 0.0 0.0 0.0
375 1 6.1166275409836075 28.25718229508197 5.0820396236e-05 0.0 0.0 0.0
376 1 8.900291147540983 28.43920524590164 8.16072643253e-05 0.0 0.0 0.0
377 1 12.40169573770492 28.197097049180332 7.55165125874e-05 0.0 0.0 0.0
378 1 13.951895081967216 28.211386229508197 9.26073328444e-05 0.0 0.0 0.0
379 1 16.147935081967216 27.715304262295085 2.34919710547e-05 0.0 0.0 0.0
380 1 19.745021639344266 28.62602491803279 7.88077293426e-05 0.0 0.0 0.0
381 1 22.344592131147543 28.227796065573774 5.12705325636e-06 0.0 0.0 0.0
382 1 25.028685901639346 28.246982950819675 9.59202745983e-05 0.0 0.0 0.0
383 1 27.668498360655743 28.241226885245904 9.94146826554e-05 0.0 0.0 0.0
384 1 30.322196065573774 28.569676065573773 2.07165650026e-05 0.0 0.0 0.0
385 1 33.1616531147541 28.684999344262298 8.16812548828e-05 0.0 0.0 0.0
386 1 35.742794098360655 28.06697967213115 9.08933054368e-05 0.0 0.0 0.0
387 1 38.404065573770495 28.168013770491807 5.93475477721e-05 0.0 0.0 0.0
388 1 40.98313639344263 28.54801508196722 3.59249550985e-05 0.0 0.0 0.0
389 1 43.319392131147545 28.303786229508198 3.11304988721e-05 0.0 0.0 0.0
390 1 45.900886557377056 28.213203934426232 4.84908471795e-05 0.0 0.0 0.0
391 1 48.64036983606558 28.45591803278689 1.94918290982e-06 0.0 0.0 0.0
392 1 51.2976524590164 28.887269508196724 1.16525388793e-05 0.0 0.0 0.0
393 1 54.32968524590164 28.800676065573775 1.49380094563e-06 0.0 0.0 0.0
394 1 57.007770491803285 28.346350819672136 5.22878153391e-05 0.0 0.0 0.0
395 1 59.74291147540984 28.160440000000005 6.2075838726e-05 0.0 0.0 0.0
396 1 62.43412459016394 28.5710393442623 1.01132931742e-05 0.0 0.0 0.0
397 1 65.06979672131149 28.92125049180328 8.7746738677e-05 0.0 0.0 0.0
398 1 67.78221639344262 28.960028196721314 7.78614258231e-05 0.0 0.0 0.0
399 1 70.24015737704919 28.97790229508197 9.83784728183e-05 0.0 0.0 0.0
400 1 72.91622295081969 28.80840131147541 5.05595780194e-05 0.0 0.0 0.0
401 1 75.70841967213116 28.710194754098364 5.91432892634e-05 0.0 0.0 0.0
402 1 78.4597180327869 28.59052918032787 8.35395779271e-05 0.0 0.0 0.0
403 1 80.73235409836066 30.063476065573774 5.9252499991e-05 0.0 0.0 0.0
404 1 0.14721390163934428 31.285630163934428 8.15490538577e-07 0.0 0.0 0.0
405 1 2.6879109508196724 30.62797442622951 4.39707371285e-05 0.0 0.0 0.0
406 1 4.6141177049180335 31.774996721311478 2.855119284e-05 0.0 0.0 0.0
407 1 7.883588196721313 30.57293836065574 7.76711008749e-05 0.0 0.0 0.0
408 1 10.264680655737706 31.946870819672135 9.42605752554e-05 0.0 0.0 0.0
409 1 12.793815081967214 30.795405245901645 7.06738773208e-05 0.0 0.0 0.0
410 1 15.665031475409837 30.55637704918033 3.03782944937e-05 0.0 0.0 0.0
411 1 18.44465573770492 30.929612459016397 9.09597399677e-05 0.0 0.0 0.0
412 1 21.080176393442624 30.746731147540988 4.96873594402e-05 0.0 0.0 0.0