# input file

2232 atoms
1 atom types

0.0 82.68810555352132 xlo xhi
0.0 83.16 ylo yhi
-10.0 10.0 zlo zhi
0.0 0.0 0.0 xy xz yz

Masses

1 12.0100 #C

Atoms

1 1 0.6204483278688525 0.9125989508196722 8.913252110943776e-05
2 1 3.532164196721312 1.053400393442623 1.8164082116007253e-05
3 1 6.198272786885247 0.4837488393442623 4.433738661232711e-05
4 1 8.740080655737705 83.10900327868853 9.366672042317281e-05
5 1 11.117537704918034 0.9829037377049181 3.627507308772692e-05
6 1 13.934778360655738 0.28864144262295083 1.0425819294002216e-06
7 1 16.64401704918033 0.5145114754098361 7.23316077384546e-05
8 1 20.576015737704918 0.1281436524590164 3.7076794000135065e-05
9 1 22.12257967213115 0.2624715409836066 9.899676114153417e-05
10 1 24.783548196721313 0.49149781639344264 2.9255339327990904e-05
11 1 27.63350754098361 0.48272183606557384 3.912835042624675e-05
12 1 30.424593442622957 0.6679156721311477 2.8145794843873495e-05
13 1 34.24561114754099 0.18656216393442623 8.836326168475208e-05
14 1 35.763748196721316 0.4225906426229509 6.706687214506523e-05
15 1 38.38361639344262 0.8581132459016395 4.6234236895008945e-05
16 1 41.8297324590164 0.8140540983606558 6.115311350713527e-05
17 1 44.466767868852465 0.4442218360655738 5.6600237330967155e-05
18 1 46.67724852459017 1.6315517377049182 4.0809139421756416e-05
19 1 50.49432786885246 0.24365476065573774 1.8340436374928106e-05
20 1 52.045436065573774 0.44923314754098365 7.644491009509967e-05
21 1 54.7280655737705 1.0116032786885245 6.986343503405506e-05
22 1 57.08098360655738 2.333069704918033 4.476448798398014e-06
23 1 60.016072131147546 1.867919016393443 8.187951328051978e-05
24 1 62.467449180327876 1.8070360000000003 3.3834987666226915e-05
25 1 64.82036721311475 0.9718056393442623 6.659376273640212e-05
26 1 67.07028196721312 2.0391064262295084 1.3948056218129201e-05
27 1 69.91398032786887 1.090395737704918 2.3667322474613275e-05
28 1 72.40221639344263 2.577788327868853 6.508909699492616e-05
29 1 75.11918032786886 1.4686045901639344 8.82272715775868e-05
30 1 77.99468852459017 1.0003688524590164 3.87152534799027e-05
31 1 80.67883278688525 0.7378417704918034 4.131468942281469e-05
32 1 82.68739672131149 2.9562647868852463 3.866125233972616e-05
33 1 1.3658335737704919 2.250066229508197 2.0602775005144604e-05
34 1 5.071901639344262 2.9937095081967215 9.046492549197653e-05
35 1 7.821584262295083 2.5691087868852462 7.545241695307665e-05
36 1 10.558139016393444 2.402334360655738 1.0788128806650454e-05
37 1 12.642339672131149 3.9967998688524595 8.942878521078517e-05
38 1 15.271195409836068 2.745143409836066 3.2925243431793495e-05
39 1 17.883994754098364 2.7800332459016395 3.5358765528353655e-05
40 1 20.531179016393445 2.4776681311475413 7.922070649221891e-05
41 1 23.466015081967214 2.70964262295082 7.670464050482887e-05
42 1 26.33288918032787 2.5786062950819675 8.004881379810374e-05
43 1 28.824609180327872 3.6256396721311477 5.545397069235299e-05
44 1 31.60630360655738 2.775953508196722 8.262064223944135e-05
45 1 34.37300196721312 2.655045836065574 3.323596098047964e-05
46 1 37.139498360655736 2.9437933114754102 1.170387108364912e-05
47 1 39.387999344262305 2.014936 7.991999981953256e-05
48 1 43.345344918032794 2.9135689180327873 6.203494553432373e-05
49 1 45.90462295081968 2.973285573770492 8.5944257740067e-05
50 1 48.53282229508197 4.172910229508197 8.886101771985498e-05
51 1 50.892203278688534 2.6543843934426232 9.909950342511287e-06
52 1 53.33348196721312 4.086761114754099 6.0360244643208786e-05
53 1 56.273114754098366 3.6676135081967214 5.7501477735374396e-05
54 1 58.84870163934427 4.119126360655739 9.21787207663817e-05
55 1 61.44953442622951 4.329232852459017 5.952640399804268e-05
56 1 64.77795409836067 3.5376476065573774 1.1730854618255405e-06
57 1 66.30735081967214 3.360800065573771 7.359316564230556e-05
58 1 68.98190163934427 3.2316824262295083 9.415871329449071e-05
59 1 71.61100983606558 3.901375409836066 4.786441658373927e-05
60 1 74.06289180327869 4.0385111475409845 9.105759379004707e-06
61 1 77.70940983606557 3.065731016393443 9.926863173553702e-05
62 1 79.29232786885247 3.1526880000000004 2.759681583364523e-05
63 1 0.2652162754098361 5.787219016393443 2.2864190791832596e-05
64 1 3.7601700327868857 5.3905049180327875 2.7250687579192023e-05
65 1 6.510716065573772 4.977300196721312 8.548591146291998e-05
66 1 9.242019672131148 4.748128 6.846481853297472e-05
67 1 11.792461639344264 5.285027540983608 6.68156759639657e-05
68 1 14.380721967213116 5.352181639344263 3.589512381584901e-05
69 1 16.969285245901638 5.069982950819672 5.071237972937676e-05
70 1 19.724269508196723 4.824042426229508 5.425268046482207e-05
71 1 22.245274754098364 5.675783606557378 2.2090600754471323e-05
72 1 25.12532721311476 4.86872262295082 1.6564518035149356e-06
73 1 27.955594754098364 4.877467803278689 4.388917052660319e-05
74 1 31.427815081967218 4.7376660983606556 7.643156324593767e-05
75 1 32.946305573770495 4.848005836065575 6.366147515385983e-05
76 1 35.60040721311476 5.06584262295082 1.4461788046702506e-06
77 1 39.7291724590164 4.501672459016394 1.7435799593772218e-05
78 1 41.31456459016393 4.700019409836066 3.464210359325864e-05
79 1 44.181388196721315 5.333600655737706 1.5385860881918624e-05
80 1 48.338933770491806 5.669169180327869 3.648290212313008e-05
81 1 49.854899672131154 5.426202622950821 4.858668439788489e-05
82 1 52.63770491803279 5.466747540983607 8.322343563251422e-06
83 1 54.883580327868856 5.900219672131148 6.0272415934664e-05
84 1 57.25265573770493 6.211097704918033 9.881502698016411e-05
85 1 59.85904262295083 6.5961481967213125 9.540528345245863e-05
86 1 62.77090491803279 6.754894426229509 8.95687646199761e-05
87 1 65.24550819672132 6.201403278688526 6.748290470546564e-05
88 1 68.79306229508198 5.053068196721312 2.5112260439021374e-06
89 1 69.54589508196722 7.0276006557377055 6.532868815015116e-05
90 1 72.50420983606558 6.4059455737704925 7.536320944162212e-05
91 1 75.08181639344262 6.24856262295082 2.925486409260938e-05
92 1 77.65386885245901 5.721933114754099 1.0633149864263436e-05
93 1 80.40163278688524 5.638217704918033 9.313750200340561e-05
94 1 81.97697704918033 8.041324590163935 2.4020630311084048e-05
95 1 1.3839348852459017 6.95352918032787 7.514549489828579e-05
96 1 5.444278688524591 7.371601311475411 4.72176795772493e-05
97 1 8.140288524590165 7.065570491803279 2.0991915661618454e-05
98 1 10.248119344262296 8.675299672131148 7.724585942014229e-06
99 1 13.01729180327869 7.658192786885246 6.364611881909074e-05
100 1 15.706232786885248 7.55488655737705 9.83790045254795e-05
101 1 18.41425967213115 7.184276721311476 3.963386432214889e-05
102 1 21.288354098360657 6.891373770491804 3.876631935887912e-05
103 1 24.035815081967215 7.21608655737705 6.766211632655562e-05
104 1 27.25502098360656 6.904905573770493 1.8711027767303435e-05
105 1 28.76533180327869 7.234213114754099 1.9521482637123377e-05
106 1 31.56656655737705 7.265164590163935 2.4009983654711742e-06
107 1 34.22566688524591 7.98300655737705 7.165372618655922e-05
108 1 37.06572983606558 7.116314754098361 8.576444592162992e-06
109 1 39.516803934426235 6.898897049180328 2.431549534098606e-05
110 1 42.31536262295082 7.14984131147541 6.213635246454987e-05
111 1 45.36991475409836 7.89176786885246 4.0718910712520085e-05
112 1 47.773021639344265 7.6782380327868855 7.325450881461475e-05
113 1 50.684177049180335 7.498840655737705 4.4037100166990146e-06
114 1 53.35165901639345 8.205019016393443 7.62166855697941e-05
115 1 55.785868852459025 8.537356065573771 3.35165141539862e-05
116 1 58.25643278688525 8.68479213114754 7.685285576637222e-05
117 1 60.481606557377056 8.009363278688525 5.7146939922421624e-05
118 1 64.2412262295082 8.832985573770493 3.8099830630896394e-06
119 1 66.76329180327869 8.389465573770494 8.519239958978146e-05
120 1 69.24900327868853 8.513220983606558 1.4518489781199363e-05
121 1 71.01924590163935 10.000810491803279 4.9826218083777965e-05
122 1 74.27647213114754 8.64672131147541 9.996324279048148e-05
123 1 76.83994098360657 8.223196065573772 9.195306268320463e-05
124 1 79.38523278688525 7.838953442622952 4.789753370570571e-06
125 1 0.893704918032787 10.039689180327871 5.473075534411199e-06
126 1 4.249874885245902 9.547394098360657 9.19350357104869e-05
127 1 7.123737049180329 9.48291606557377 5.092729515555782e-05
128 1 9.879478688524593 10.18944786885246 7.828709163845293e-05
129 1 12.329088524590166 9.964708852459017 2.6586566060163853e-05
130 1 14.559917377049183 11.153588852459018 9.584570934850298e-05
131 1 17.05512131147541 9.629140327868853 8.874206900850803e-05
132 1 19.749515409836068 9.136946229508197 9.135500419750825e-05
133 1 22.47758754098361 9.196880000000002 5.039210194666476e-05
134 1 24.093173770491806 10.936423606557378 7.180043054421544e-05
135 1 27.923633442622954 9.185822295081968 8.575528223120688e-07
136 1 30.60883803278689 10.389092459016394 9.701810327609853e-05
137 1 34.44131737704918 9.484632786885248 1.562097043565147e-05
138 1 35.94996196721312 9.355727213114754 9.958201886096593e-05
139 1 38.6495062295082 9.401018360655739 8.684526510792143e-05
140 1 41.10305442622951 9.179157377049181 9.657886825560508e-05
141 1 43.02315672131148 8.531953442622951 8.424723529717884e-05
142 1 46.83064262295082 10.227266229508198 6.388576965211164e-05
143 1 49.389718688524596 9.58884786885246 5.65111115394284e-05
144 1 51.609186885245904 11.028924590163935 5.807001255082174e-05
145 1 54.48570491803279 10.839731803278688 1.9522889885697225e-05
146 1 56.95576393442624 11.058512786885245 8.005153204941697e-05
147 1 59.67373770491804 10.856242622950822 4.929640265557499e-05
148 1 62.55480000000001 10.912137049180329 4.098526766050563e-05
149 1 66.28765901639345 10.821706229508198 1.0368579028054892e-05
150 1 67.81705573770492 10.866441967213117 1.619009681928134e-05
151 1 70.19824918032788 11.276536393442624 9.48516036330987e-05
152 1 72.4072655737705 10.59328131147541 8.670133472450501e-05
153 1 76.11942295081968 10.680935081967215 2.0685606634676235e-05
154 1 78.55918688524591 10.311385573770494 7.667710718778898e-06
155 1 80.90099672131149 11.453762622950821 8.826444763724541e-05
156 1 82.64952786885246 12.568924590163936 7.351223386138062e-06
157 1 2.016834491803279 11.145611147540986 6.347827406940797e-05
158 1 5.9773711475409845 11.582264262295084 3.915853604042421e-05
159 1 8.172199344262294 13.214260327868853 1.7136037506369795e-05
160 1 12.052797377049181 12.361857704918034 5.5653048064406476e-05
161 1 13.635412459016393 12.403917377049181 6.633424427442858e-06
162 1 16.90808918032787 12.114700327868855 5.397072039964787e-05
163 1 18.349327213114755 11.590342950819673 4.3792919714450374e-05
164 1 20.983636065573773 11.368734426229508 6.244900877635995e-05
165 1 25.606867540983608 10.914611147540985 9.389297166743228e-05
166 1 27.31121836065574 11.907128524590165 9.385575791228019e-05
167 1 29.885542950819673 11.735001967213115 5.6579989294999855e-06
168 1 32.331264918032794 12.251078688524592 6.75394171927187e-05
169 1 34.802384262295085 11.879055081967214 3.325767946392108e-05
170 1 37.43583475409836 11.580244590163936 6.37862569735949e-05
171 1 40.291398688524595 11.67829967213115 8.770891252335536e-05
172 1 43.14282229508197 11.341872786885247 2.998420308754689e-05
173 1 44.526752131147546 10.659728524590165 8.84942895622168e-05
174 1 48.10379344262296 12.174028196721313 4.446418955425573e-05
175 1 50.92350819672132 12.383417704918035 4.6033763520843885e-05
176 1 53.068400000000004 14.14845967213115 4.120033331927437e-05
177 1 55.61268196721312 13.442836721311476 6.975818413300068e-05
178 1 58.15393442622951 13.23980918032787 6.609011128853388e-05
179 1 60.78758688524591 12.984623606557378 6.970678974529874e-05
180 1 63.532321311475414 13.158315409836067 7.268747519630875e-05
181 1 66.20939672131148 13.427133770491805 9.701996635561983e-05
182 1 69.07076721311476 13.54437573770492 4.242357272286834e-05
183 1 71.89527868852458 13.338621639344264 9.565738096215868e-05
184 1 74.68242622950821 12.867987540983608 3.606804596087504e-05
185 1 77.55944918032787 12.923276065573772 7.681021826492545e-05
186 1 80.21380327868853 12.846881967213116 6.637998057175579e-05
187 1 1.633864262295082 14.157447213114756 9.510510673952376e-05
188 1 4.3875508852459015 13.759218360655739 3.8393792174136065e-05
189 1 7.1570616393442625 14.386427540983608 2.051863665852114e-05
190 1 9.451156721311476 15.24801967213115 7.794633009607898e-06
191 1 11.76368131147541 15.129767868852461 6.23202378970668e-05
192 1 14.435404590163936 15.091343606557379 5.877120000690723e-05
193 1 17.108945573770495 14.767842622950822 2.792849257445086e-05
194 1 20.647209180327874 13.4465731147541 2.7950652843228508e-05
195 1 21.906323278688525 12.575084590163936 3.204758155973542e-07
196 1 25.19944918032787 14.65812393442623 5.1685335533798897e-05
197 1 28.074502950819674 14.03096524590164 8.99601701917028e-05
198 1 30.816712786885248 14.320232786885247 7.507761277675645e-05
199 1 33.7930531147541 14.420105573770494 9.274496456175629e-05
200 1 37.22240590163935 13.698577704918034 2.8651847572827638e-05
201 1 38.76543540983607 13.662678032786888 4.192891708584832e-05
202 1 40.88210229508197 15.454884590163935 4.685707870253807e-05
203 1 43.5566531147541 14.314577704918035 6.300729813355359e-05
204 1 46.48209770491804 14.302863606557379 6.503476622592501e-05
205 1 49.235870163934436 14.370825573770494 1.4787514995204543e-05
206 1 52.02826885245902 15.25529049180328 9.524190096031299e-05
207 1 54.20093114754099 16.07805442622951 6.16579679125479e-05
208 1 56.85074098360656 15.779243934426232 6.81232471157285e-05
209 1 59.50913442622951 15.43589967213115 3.3806570510079293e-06
210 1 62.38262295081968 15.227520000000002 9.249665692355657e-06
211 1 65.04101639344263 16.321980327868854 9.313980858131114e-05
212 1 67.85896393442623 15.70305180327869 3.043690181704698e-05
213 1 71.60091147540983 15.246656393442624 7.349991352541944e-05
214 1 73.16918688524592 15.206161967213117 4.4962514974163275e-05
215 1 75.89523934426231 14.953400000000002 5.493741714427385e-05
216 1 78.69450491803279 15.237517377049182 3.8621641599092765e-06
217 1 81.64676065573771 15.15329704918033 1.8991627554227854e-05
218 1 0.3000010885245902 16.760198688524593 1.6832261296538986e-05
219 1 2.8694794754098365 16.175806557377047 6.478531249061632e-05
220 1 5.466343606557378 16.225742950819672 3.1944010587755456e-05
221 1 7.807749508196722 17.197154754098364 9.44083234849274e-05
222 1 10.386971803278689 17.713433442622954 7.502685729294546e-05
223 1 13.17583606557377 17.45557180327869 3.553179800267771e-05
224 1 15.95561180327869 17.206647213114756 1.0729284230923908e-05
225 1 18.889740983606558 16.721168524590166 7.675530736473675e-05
226 1 21.3515193442623 15.853971803278691 2.4435390396334535e-05
227 1 24.34568327868853 15.92713442622951 3.811237553951709e-05
228 1 26.924501639344264 16.28289967213115 7.354984414310936e-05
229 1 29.266412459016394 16.32516131147541 5.220668521523775e-05
230 1 32.066132459016394 16.196609180327872 1.1977604352436245e-05
231 1 35.027779672131146 16.57120786885246 1.1619092974856782e-05
232 1 37.25881049180328 16.563735081967216 1.511472811283825e-05
233 1 39.95113442622951 16.703193442622954 4.8210749419864484e-05
234 1 42.82901573770492 16.895011803278692 2.378864981684903e-06
235 1 45.345628196721314 16.485876721311474 5.4888059393115053e-05
236 1 48.638653114754106 16.408573770491806 6.143197384177929e-05
237 1 50.15891081967214 16.69784131147541 8.882539329894107e-05
238 1 51.26382295081967 19.102008524590165 1.3879832061849119e-05
239 1 55.53290491803279 18.29408918032787 6.742629293345186e-05
240 1 58.4008393442623 17.931204590163937 7.572152699719481e-06
241 1 61.066806557377056 17.398213114754103 5.263464748229826e-05
242 1 64.0453180327869 17.472335081967216 4.2814514009689074e-05
243 1 66.48710163934427 18.10312918032787 5.68470400547132e-06
244 1 69.18487868852459 18.023301639344265 2.5333288384584807e-05
245 1 71.75541639344263 17.731509508196723 3.5918878355815642e-06
246 1 75.5029180327869 17.058504262295084 4.2273416751468364e-05
247 1 77.04140327868853 17.19452918032787 2.4959162000559976e-05
248 1 79.25243934426231 16.690419016393445 3.252739169063477e-05
249 1 1.6007466885245905 18.76608655737705 1.0631484960354088e-05
250 1 4.178772327868852 18.534480655737706 2.8968441417010516e-05
251 1 6.21584393442623 20.334311475409837 7.238807976513227e-05
252 1 9.01021180327869 19.761835409836067 8.107532113725166e-05
253 1 11.146217049180327 19.051466229508197 9.787159216879254e-05
254 1 14.771680000000002 19.440000655737705 7.224230455954374e-05
255 1 16.842752786885246 18.455057049180333 7.428044467074142e-05
256 1 20.661750819672132 18.5162531147541 8.09005972132379e-05
257 1 23.19320786885246 17.778214426229507 7.49140892399539e-05
258 1 25.87093967213115 18.38078360655738 5.051334961160071e-05
259 1 28.304392131147544 18.789514754098363 4.2357892328007046e-05
260 1 30.588641311475413 18.336653770491804 9.525465415438462e-05
261 1 33.344130491803284 18.08969836065574 9.678487070113074e-05
262 1 35.784500327868855 19.08827475409836 8.757621079571059e-05
263 1 38.297830819672136 18.900394754098365 7.218076051191487e-05
264 1 40.57592 18.092677377049185 7.792511399910089e-05
265 1 44.14165114754099 19.05681836065574 8.622647454200825e-05
266 1 46.22433704918033 19.18794557377049 3.8723721162617174e-05
267 1 48.61931475409836 19.10104918032787 4.1861778479497124e-06
268 1 52.67557377049181 19.7527468852459 2.6839526355250054e-05
269 1 54.61041967213115 20.59096131147541 9.485190344246185e-05
270 1 57.357173770491805 20.251656393442627 8.290460969178155e-05
271 1 60.89210491803279 19.58309442622951 4.348137062240332e-05
272 1 62.40281967213116 19.292564590163934 4.4377895901428014e-05
273 1 64.52751475409836 21.02226229508197 4.549294914629516e-05
274 1 68.22351475409836 20.276902295081968 3.222283850744876e-05
275 1 70.87231475409837 20.189248524590166 1.1953024736794816e-05
276 1 73.30097049180328 19.83489704918033 2.4464762716513023e-05
277 1 75.70185573770493 19.601069508196726 5.598292890080414e-05
278 1 78.35721967213115 19.605209836065576 7.38079472022146e-05
279 1 81.5200262295082 19.22732918032787 2.4893292713424666e-05
280 1 0.1786904918032787 21.13617180327869 2.0826252409127443e-05
281 1 2.825556655737705 20.99242163934426 2.577975760737028e-05
282 1 5.4699285245901645 21.680776393442624 3.155782255510331e-05
283 1 8.00037573770492 22.100969180327873 3.166385172130409e-05
284 1 10.848365901639344 21.90127409836066 8.720877340832101e-05
285 1 13.732659672131149 21.791252459016395 5.426054202095344e-05
286 1 16.404635409836068 21.387520000000002 2.0178888140349217e-05
287 1 19.288474754098363 20.80428918032787 2.8291060642594347e-05
288 1 22.89071147540984 20.18707737704918 5.100373405431237e-05
289 1 24.40723278688525 20.24191147540984 7.183482189108028e-05
290 1 27.00554098360656 21.008932459016396 9.346847931637986e-05
291 1 30.62151147540984 20.70345704918033 6.071698450859631e-06
292 1 32.959736393442626 19.971073442622952 6.72533357114772e-05
293 1 33.3535724590164 22.039167213114755 8.300194078367282e-05
294 1 36.025750163934426 20.593889836065575 3.3417309671482286e-05
295 1 39.95391147540984 20.875028196721313 4.953925383777094e-05
296 1 42.53065967213115 21.136474754098362 1.21253099669284e-05
297 1 45.05434098360656 21.786657704918035 2.7009304335856356e-06
298 1 47.63735016393443 21.598020327868856 8.2278710829236e-05
299 1 49.84828524590164 22.701821639344264 4.461952455681351e-05
300 1 52.29688524590165 21.277245901639347 7.44977887633681e-06
301 1 56.05549508196722 22.53762229508197 8.862974390910732e-05
302 1 58.05244590163935 21.631193442622955 1.8677065273120355e-05
303 1 61.494977049180335 22.458602622950824 9.034969815212622e-05
304 1 64.0528918032787 22.45905704918033 8.470293273504171e-05
305 1 65.94784918032786 21.544801967213115 7.429700632550355e-05
306 1 69.52115409836065 22.494956721311475 8.264310126680472e-05
307 1 73.09900327868853 22.148784918032792 9.519259418618165e-05
308 1 74.63041967213115 22.156964590163938 4.57245286591058e-05
309 1 77.1191606557377 21.94924131147541 4.93958107763867e-05
310 1 79.20699672131148 20.93258885245902 2.1665864319562566e-05
311 1 1.4859788196721313 23.34993442622951 7.0727942807290115e-06
312 1 3.654869377049181 24.60667540983607 6.84954275572121e-05
313 1 6.330662295081968 24.243689836065574 5.333697249107783e-06
314 1 9.03061049180328 24.093022295081973 5.513510916060064e-05
315 1 12.608510163934428 24.011478032786886 2.3274220348540732e-05
316 1 15.927336393442625 23.805521967213117 6.117223956217502e-05
317 1 18.494188196721314 22.954078688524593 2.50764100756828e-05
318 1 20.92688327868853 23.049053770491803 1.6090378945378637e-05
319 1 23.216585573770494 22.598818360655738 1.4376867586837307e-05
320 1 25.513962622950825 23.9548262295082 4.649813297527035e-05
321 1 28.38194754098361 23.449807213114756 1.823559147180335e-05
322 1 30.837363934426232 23.077682622950825 9.630624714930525e-06
323 1 33.14509180327869 24.532452459016397 5.768745736605494e-05
324 1 35.55920590163935 23.01345704918033 4.029901650689355e-05
325 1 38.41583016393443 22.9253993442623 6.477501553220705e-05
326 1 41.0772531147541 23.342360655737707 3.3935779262652364e-05
327 1 43.41870950819673 24.832272786885248 3.0377667592129643e-05
328 1 46.35516131147541 24.145685245901642 2.0287947620762825e-05
329 1 49.135189508196724 24.08888196721312 6.852523494504614e-05
330 1 51.82983606557378 24.034754754098365 4.794979584491998e-05
331 1 54.606380327868855 24.552901639344263 7.882661282386482e-05
332 1 57.48744262295083 24.602131147540987 3.120859717812457e-05
333 1 60.175626229508204 24.849843934426232 5.9049920363739556e-05
334 1 63.09859672131148 24.77107672131148 8.119694685299437e-05
335 1 66.02813114754099 24.388500327868858 4.794478714626249e-05
336 1 67.5757049180328 24.438285245901643 8.883500754476433e-05
337 1 70.23359344262295 24.885844590163938 2.2549939156526246e-05
338 1 72.95611147540986 24.7255331147541 1.2880909432657762e-05
339 1 75.7796131147541 24.514022950819676 2.429760717064683e-05
340 1 78.93585573770493 23.989615081967212 6.363574692626708e-05
341 1 81.59980327868854 23.505853114754103 6.291498599563479e-05
342 1 0.32091479344262297 25.872908852459016 3.6324577310099085e-05
343 1 2.942389639344263 25.945314098360658 4.48702224858911e-05
344 1 4.268885049180328 28.024566557377053 3.757095777302612e-05
345 1 7.825219672131148 26.413070163934428 2.1242748676456304e-05
346 1 10.014039344262295 25.253222950819673 6.906915855534408e-05
347 1 13.562249836065574 25.228330491803284 6.617676310127387e-05
348 1 18.28368786885246 25.30351278688525 4.353559908168973e-05
349 1 19.802430819672132 25.419492459016396 1.1703590294948363e-05
350 1 22.303239344262295 25.29730229508197 1.1614321098636982e-05
351 1 24.895236065573773 25.347188196721316 2.9607943766656354e-05
352 1 27.408566557377053 25.607069508196723 5.263685797008032e-05
353 1 30.135578360655742 25.626458360655743 3.082438244558006e-06
354 1 32.72070819672132 26.002470819672133 6.690536332391788e-05
355 1 35.57374754098361 25.448979672131152 4.371658523389853e-05
356 1 37.0834524590164 25.038279344262296 4.121726534589267e-05
357 1 39.37633573770493 26.48461704918033 9.131289053705638e-05
358 1 42.40241049180329 26.015346229508197 8.497950338311725e-05
359 1 44.965475409836074 26.491382950819677 3.7526817900270785e-05
360 1 47.9181855737705 26.432913442622954 1.8839842191753633e-05
361 1 50.57965901639345 26.3332931147541 7.247830172855296e-05
362 1 53.19967868852459 26.448919344262297 6.0094759454825665e-05
363 1 55.87927868852459 26.66557967213115 4.7047936188779066e-05
364 1 58.52201967213115 27.015992786885246 8.557271682644866e-05
365 1 61.54900327868853 26.85078360655738 3.65931543129687e-05
366 1 64.26293770491804 27.479558032786887 6.074493567133387e-05
367 1 66.5704131147541 27.326870819672134 7.221354513676118e-05
368 1 69.11217049180328 26.90430491803279 7.081006683905356e-05
369 1 71.77056393442624 26.996149508196723 1.2584987883793654e-05
370 1 74.38099016393443 26.750607868852462 3.278178451546121e-05
371 1 76.74400655737705 25.724563934426232 5.088784916840722e-05
372 1 80.48948852459017 26.06149573770492 7.848190647130492e-05
373 1 1.9932598688524592 28.22259540983607 8.773918716348439e-06
374 1 5.679469508196722 28.569019672131148 5.2996626486264076e-05
375 1 7.711613114754099 28.893833442622956 1.5802233752882922e-06
376 1 10.110226229508196 27.941002622950823 3.1209252501201966e-05
377 1 12.651983606557378 27.789880655737708 6.926516258136055e-05
378 1 15.215099016393445 27.6354262295082 3.079351894438821e-05
379 1 17.913633442622952 27.797000000000004 5.7536500325532184e-05
380 1 21.794332459016395 27.609978360655738 1.8696621139437497e-05
381 1 23.339684590163937 27.6276 8.635501302745274e-06
382 1 26.06189967213115 27.821135081967213 6.099655348990567e-05
383 1 28.81582360655738 27.800483934426232 9.920044967442257e-05
384 1 30.40050885245902 29.4464662295082 2.24220720470695e-05
385 1 33.24673180327869 28.889693114754103 7.170953285730457e-05
386 1 35.61712000000001 28.54549049180328 1.1103991218185327e-05
387 1 38.39376524590164 27.694400655737706 8.223358619749648e-05
388 1 40.93895606557378 28.10661573770492 8.523942764381004e-05
389 1 43.76164983606558 28.54968131147541 5.706351325004072e-05
390 1 45.79505573770492 27.787709508196727 2.115473003104179e-05
391 1 49.22415606557378 28.66293442622951 8.984457916986468e-05
392 1 51.79348196721312 28.70580196721312 8.624475431883432e-05
393 1 54.55285901639345 28.82930491803279 9.014184957276826e-05
394 1 57.19105573770492 29.109584918032787 6.06525803935422e-05
395 1 59.190026229508206 28.40583016393443 9.122521496494342e-05
396 1 62.42301639344263 30.416110819672134 3.4829538245398394e-05
397 1 65.89937704918033 29.806876721311475 6.630873302071767e-05
398 1 68.5608 29.357752131147542 2.9663401307599304e-05
399 1 70.99551475409837 29.12331868852459 8.163790348616815e-05
400 1 73.50192786885246 30.27377442622951 6.676648584218806e-05
401 1 75.9689573770492 28.58487409836066 5.3221280471609544e-05
402 1 78.89495737704918 28.365386229508196 5.348134968776907e-06
403 1 82.06836721311477 28.4215331147541 2.5775151392544005e-05
404 1 1.014546950819672 30.62343016393443 7.216628424313962e-05
405 1 3.553900918032787 30.68800918032787 6.058175813168181e-05
406 1 5.5915127868852466 30.098113442622957 9.682810809224685e-05
407 1 9.114527868852461 30.6614 3.701168989083373e-05
408 1 11.501275409836067 30.228180327868856 1.7041594551272745e-05
409 1 14.019402622950821 30.06473836065574 1.704464831722954e-05
410 1 16.52733049180328 29.98698098360656 3.3980999502209266e-05
411 1 19.125386229508198 30.121592131147544 4.7528475822991444e-05
412 1 21.651642622950824 30.11871409836066 6.503593844993449e-05
413 1 25.373746885245904 29.7890531147541 3.779738401667543e-06
414 1 26.910060983606563 29.917807213114756 6.829656120024681e-05
415 1 29.434752131147544 30.676598032786888 7.926268315627585e-05
416 1 31.920665573770492 31.191109508196725 5.52811655712263e-05
417 1 34.5571455737705 31.149049836065576 9.238802621449051e-05
418 1 37.10258885245902 30.17526491803279 2.69623662033321e-05
419 1 39.4903462295082 30.202076065573774 3.4573705871788364e-05
420 1 41.58883606557378 29.48468852459017 4.806240247128351e-05
421 1 45.09746098360656 30.717748852459017 5.996302869994704e-05
422 1 47.69864721311476 30.918403278688526 4.337474572933579e-05
423 1 50.258076721311475 31.027819016393444 9.445656456022515e-05
424 1 53.01184918032787 30.941175081967216 7.310119931912112e-05
425 1 55.817678688524595 31.264423606557383 8.309996076088998e-05
426 1 58.89161967213115 31.347432131147546 8.906567132327133e-05
427 1 61.63887868852459 31.710417704918036 2.5300197004568405e-05
428 1 63.681272131147544 31.259727868852462 7.819556732453462e-05
429 1 67.25811147540983 32.96604786885246 8.276952344200118e-07
430 1 69.97608524590164 31.706630819672135 9.521375216306631e-05
431 1 72.88542295081967 31.70011737704918 8.103638913780132e-06
432 1 75.67004590163936 31.18626229508197 3.057292821736668e-05
433 1 78.04215081967213 31.54778360655738 1.3969559904910889e-06
434 1 79.83460983606558 29.64510098360656 7.235292572694619e-05
435 1 2.384399672131148 33.074504262295086 1.4623361095655186e-05
436 1 5.777676065573771 32.80119213114754 1.4468364024169667e-05
437 1 7.337014426229509 32.97145049180328 1.95486010154058e-05
438 1 10.005506229508198 32.79422426229509 6.787462773124553e-06
439 1 12.694396721311477 32.519195409836065 4.2117285041113675e-05
440 1 15.213382295081969 32.42139278688525 9.863945855272203e-05
441 1 17.764834098360655 32.378323278688526 2.7966108223999664e-05
442 1 20.40934229508197 32.50445180327869 7.310583192428802e-05
443 1 22.93923409836066 32.52257836065574 8.43014860982111e-05
444 1 25.454180327868855 32.241389508196725 8.909207241767703e-05
445 1 27.618965901639346 33.76422229508197 5.729363741450772e-05
446 1 30.55678098360656 33.30939213114754 8.007972365446258e-06
447 1 33.44188262295082 33.44269049180328 3.618969383883392e-05
448 1 36.12577442622951 32.819924590163936 2.6229623585155737e-05
449 1 38.741350819672135 32.5871068852459 8.412512464486409e-05
450 1 41.22176065573771 32.30516065573771 3.687173457195558e-05
451 1 42.864410491803284 34.05985180327869 8.530454029454911e-05
452 1 46.82438163934427 34.18133508196721 1.6529452159565683e-05
453 1 49.37467213114754 33.36892196721312 4.868333068565329e-05
454 1 51.80812459016394 33.1619055737705 2.6373474279670597e-05
455 1 54.474596721311485 33.1832131147541 9.356293659183182e-05
456 1 56.69775081967214 32.52520393442623 4.039561032276228e-05
457 1 60.385672131147544 33.67798229508197 2.515020908218375e-05
458 1 63.201600000000006 34.04066491803279 2.3579231944598e-05
459 1 66.22151475409837 34.10680918032787 2.935915381563956e-05
460 1 68.84355409836067 34.21506360655738 3.949439180778244e-05
461 1 71.58424918032787 33.754426885245906 2.2265172764856523e-05