# input file

2232 atoms
1 atom types

0.0 82.68810555352132 xlo xhi
0.0 83.16 ylo yhi
-10.0 10.0 zlo zhi
0.0 0.0 0.0 xy xz yz

Masses

1 12.0100 #C

Atoms

1 1 1.5334562622950823 0.06879962622950819 6.439844191739863e-05
2 1 4.359603672131148 0.45774505573770496 6.82484734046406e-05
3 1 7.264861639344263 0.7886920655737706 3.756513317665644e-06
4 1 9.911389508196722 0.7732415737704919 5.047741173434236e-05
5 1 12.291421639344263 0.4950766754098361 5.127122739455836e-05
6 1 15.109672131147542 0.14133463606557378 7.36283354117689e-05
7 1 17.5607462295082 0.662624131147541 3.980772330476977e-05
8 1 20.14789573770492 0.412490262295082 2.930798713306696e-05
9 1 24.477870819672134 0.8907057049180328 6.886945754310084e-05
10 1 24.11761180327869 82.56571147540984 1.29414379108302e-05
11 1 27.414878032786888 0.38119544262295085 9.011573077156829e-05
12 1 30.1186131147541 0.4447469508196722 5.550514049037193e-05
13 1 32.80533245901639 0.920425180327869 5.837118005479747e-06
14 1 35.908912131147545 1.0014847213114755 5.9983821725075027e-05
15 1 39.667269508196725 0.34059902295081973 2.1113249291474324e-05
16 1 41.2203468852459 0.5026968983606558 3.7361510956949398e-06
17 1 44.01749180327869 1.0203434098360658 2.29423191938281e-05
18 1 46.12249508196722 2.834887540983607 3.434488963141404e-05
19 1 49.5441731147541 2.01747068852459 7.613666855433498e-05
20 1 52.03584262295083 1.0321130491803279 9.124458589239067e-05
21 1 55.03808524590165 0.896820262295082 5.326613229375662e-05
22 1 57.74293114754099 1.5546224262295083 9.068844961040362e-05
23 1 60.70730491803279 1.871529180327869 9.64794171296181e-05
24 1 63.381855737704925 1.5639331147540985 3.391271510912436e-05
25 1 66.22252459016394 1.3145238032786886 5.0018395280544104e-05
26 1 69.02027540983607 1.0050696393442624 2.7904921747598766e-05
27 1 71.70391475409836 0.6759691147540985 1.4027651359630622e-05
28 1 73.96039344262296 0.20317952131147543 2.3610410218205236e-05
29 1 76.62383606557377 0.5644327213114754 8.519361374428617e-05
30 1 79.09742950819673 0.829292524590164 1.8689119713711932e-05
31 1 81.64676065573771 0.22041388852459018 3.399123743783037e-05
32 1 0.23248142950819675 2.4997532459016396 2.293248200998511e-05
33 1 2.7704902950819674 2.3076369836065576 3.3443796805878966e-05
34 1 5.024055606557378 1.858981967213115 6.4483405192324545e-06
35 1 8.674542295081968 3.0712800655737706 7.462495208901449e-05
36 1 11.269467540983609 3.1152584262295084 3.0942142557340405e-06
37 1 13.750786229508197 2.5001874754098363 7.637903030164639e-05
38 1 16.105370491803278 2.756024393442623 6.180641909701111e-05
39 1 18.565381639344263 2.7963269508196724 3.505302079300654e-05
40 1 21.01645573770492 2.8495251147540985 3.8340015840475174e-05
41 1 23.34185573770492 2.914008196721312 3.87853437875777e-05
42 1 25.95879540983607 2.8003460983606563 7.869937444984876e-06
43 1 28.40784983606558 2.815200786885246 3.2694639204867214e-05
44 1 31.07194885245902 2.8356752131147545 2.0621390977462795e-05
45 1 33.63365049180328 2.207244131147541 8.845688796288766e-05
46 1 37.12409836065574 3.1574089836065578 7.186166438713859e-05
47 1 39.73790754098361 2.8600476065573774 2.7050822195096782e-05
48 1 42.59412786885247 2.9708215737704924 3.4945674511988356e-05
49 1 45.157142295081975 3.9998192786885247 4.669218213703208e-05
50 1 47.387617704918036 3.669335278688525 5.202725203197897e-05
51 1 51.955055737704924 3.42913062295082 8.028498069026529e-05
52 1 53.39710163934427 2.919880393442623 9.155099187080066e-05
53 1 55.94340327868853 3.3616786229508198 5.1913185113048834e-05
54 1 58.258452459016404 2.9985062295081972 6.784826930502432e-05
55 1 61.892852459016396 4.038021377049181 2.0339075980029166e-05
56 1 64.85369180327869 3.6797921311475412 6.958128611262513e-05
57 1 68.90111475409837 2.8973913442622954 8.432984160785822e-05
58 1 70.45777704918034 3.0892147540983608 7.138517798230449e-06
59 1 73.79023606557378 2.7845068196721314 8.982002858961164e-05
60 1 75.3100393442623 2.5821356721311477 5.396238875588489e-05
61 1 77.87653770491804 3.9030163934426234 2.624810626770271e-05
62 1 80.55462295081968 2.8214062295081974 7.73404632677655e-05
63 1 2.0199245901639347 4.680100393442624 4.7744421401485716e-05
64 1 4.37793724590164 5.816150819672131 2.1241750942924077e-05
65 1 7.17912655737705 5.122898360655738 1.7201490628010686e-06
66 1 9.799600655737706 5.44816655737705 5.297710530341081e-05
67 1 13.40840131147541 5.008968655737705 2.1459197206024418e-05
68 1 14.943251147540986 5.118101639344263 6.0493740219049025e-05
69 1 17.357819672131146 5.188588196721311 3.75074584595313e-06
70 1 19.717958032786886 6.267396065573771 3.8686068401620355e-05
71 1 22.50712524590164 5.3547062295081975 6.434844734907367e-05
72 1 25.24691147540984 6.061389508196722 2.6913265959633492e-05
73 1 27.710709508196725 6.503748196721313 8.63110453168277e-05
74 1 30.56460721311476 4.897351475409836 9.081681947341554e-05
75 1 32.76145508196721 6.078506229508197 6.246267480152046e-06
76 1 35.90633704918034 5.374953442622952 4.7696525127065686e-06
77 1 38.5471593442623 5.274575737704919 5.249048388874362e-05
78 1 41.17152131147541 5.004050754098361 8.983823236612621e-07
79 1 43.79628721311476 5.674319344262296 5.4677686835247265e-05
80 1 46.46972721311476 6.364693770491804 1.0046657780320323e-05
81 1 49.186438688524596 6.2603272131147545 1.3331299027062816e-05
82 1 51.655134426229516 6.11688 1.4214991502830088e-05
83 1 54.350386885245904 5.471089836065574 7.514993534625921e-05
84 1 57.098655737704924 5.688558032786886 2.2495243671840637e-05
85 1 60.20895081967214 6.0131698360655745 4.178400938295872e-05
86 1 62.56136393442623 5.432514098360656 6.82013554398537e-05
87 1 65.75345573770493 4.9181288524590165 3.0350357690349994e-05
88 1 69.28838688524591 5.651547540983607 5.4495850953728766e-05
89 1 71.71653770491804 5.60716524590164 6.0873061910081965e-05
90 1 74.18154754098362 5.5146137704918035 4.246800060210769e-05
91 1 78.03255737704919 5.413579672131148 7.261887658324086e-05
92 1 79.55084590163935 5.32148262295082 1.3937471100459997e-05
93 1 82.00424262295083 5.134763934426229 7.404789700736963e-05
94 1 0.7623000000000001 7.122626229508198 5.583245611651738e-05
95 1 3.5608384918032794 7.116668196721312 5.855952161330308e-05
96 1 6.0415967213114765 7.5300950819672146 7.102171963793203e-05
97 1 8.418952786885246 7.656779016393443 5.210577228405553e-05
98 1 10.829280000000002 7.837792131147542 8.362732519949391e-05
99 1 13.42157967213115 7.6071455737704925 1.7991626822245656e-05
100 1 16.245384262295083 7.718379016393444 7.4331626583528215e-06
101 1 19.162598688524593 7.699899016393443 9.729091863055374e-05
102 1 21.861335081967216 8.771234098360656 6.0510772295076924e-05
103 1 24.569513442622956 7.496921967213115 7.950237552992516e-05
104 1 27.093649180327873 7.8993416393442635 1.728419972440941e-05
105 1 29.143363934426233 7.116668196721312 4.991300199801805e-05
106 1 31.80135344262295 7.252238688524591 5.7346986995756246e-05
107 1 33.89322885245902 7.082333770491804 8.369989895138981e-05
108 1 37.525306229508196 7.587352786885246 1.0517231895761138e-05
109 1 39.99718295081967 7.406541639344263 8.159365086355914e-05
110 1 42.2312937704918 8.646418360655739 5.859157258817394e-05
111 1 45.063530491803284 8.235617049180329 1.2731743560057963e-05
112 1 47.97211081967213 8.56356131147541 5.1722198960428825e-05
113 1 50.67811803278689 8.607337704918034 7.314185041753953e-05
114 1 53.195639344262304 7.945036721311476 5.7767119326339246e-05
115 1 55.795462295081975 7.751047213114755 4.942727995755265e-05
116 1 57.744950819672134 7.082788196721312 5.6036231259483816e-05
117 1 61.108714754098365 7.243604590163935 2.615585201586749e-05
118 1 64.74109508196722 7.72968918032787 4.769923415983112e-05
119 1 68.40528524590165 7.922618360655738 2.8374881683596842e-05
120 1 69.9271081967213 7.941653770491804 2.104768137987081e-05
121 1 72.91319344262295 7.993862295081969 1.0881695513346334e-05
122 1 75.56148852459017 7.87596393442623 6.339790626792353e-05
123 1 77.99771803278689 7.851020983606558 1.372411122607511e-05
124 1 80.73285901639345 7.686922622950821 2.8998389586013754e-06
125 1 1.8348872786885249 9.242625573770493 9.877799463673515e-05
126 1 4.445560918032787 9.67660262295082 7.288350064721454e-05
127 1 7.078344918032788 10.10315737704918 5.07355075622622e-05
128 1 9.72169180327869 10.230851147540985 4.502794110973551e-06
129 1 12.39593967213115 10.017977704918035 5.285480930673559e-06
130 1 14.357596721311477 11.149398032786888 9.78116410588398e-05
131 1 17.928427540983606 9.95148 5.9432377239836965e-06
132 1 20.835392131147543 9.927496393442624 5.200969757187472e-05
133 1 23.911251803278688 10.05079737704918 3.516959373786536e-05
134 1 25.443173114754103 10.02893442622951 5.692602934257598e-05
135 1 27.997502950819673 10.466395409836066 9.07434232492662e-05
136 1 30.61843147540984 9.79561180327869 1.1683994043247626e-05
137 1 33.37896983606557 9.764458360655738 4.887750866427077e-06
138 1 36.07982688524591 9.74436262295082 8.445241965571373e-05
139 1 38.792700983606565 9.929314098360656 8.199934334196247e-06
140 1 41.52279278688525 9.992125901639346 9.270401230199843e-06
141 1 43.63481442622951 11.707736393442625 9.382522122429529e-05
142 1 46.35420196721312 10.426405901639345 8.762640708118829e-05
143 1 49.778909508196726 10.82781573770492 5.5406417672678335e-05
144 1 53.14868196721312 10.239384262295083 1.5943529490224963e-05
145 1 54.68009836065574 10.136229508196722 5.245670224315572e-05
146 1 57.357173770491805 10.016361967213115 8.753716357454325e-05
147 1 60.16754754098361 9.980260327868855 6.308090700756062e-05
148 1 62.834019672131156 9.870036721311475 7.14646343710418e-05
149 1 65.4772655737705 10.277909508196721 9.0077726366769e-05
150 1 68.2260393442623 10.311890491803279 6.801525278370305e-05
151 1 70.5516918032787 9.329067540983608 1.4004154465437924e-05
152 1 74.23405901639345 10.189801311475412 6.625015544283436e-05
153 1 76.83539672131148 10.317949508196723 3.4614849199596545e-05
154 1 79.46046557377049 10.088262295081968 6.489441966313598e-05
155 1 0.3062454098360656 9.392939672131149 7.423850881001673e-05
156 1 0.6199434098360657 11.950955409836068 6.0294293090580433e-05
157 1 3.24741062295082 11.734244590163934 5.5708487013931274e-05
158 1 5.489973770491804 13.279243278688526 5.262201225633304e-05
159 1 8.3368531147541 12.52479475409836 3.5198420414050406e-05
160 1 11.005698360655739 12.483492459016395 2.9657457711654268e-05
161 1 13.56356262295082 12.464103606557378 1.3352841762886937e-05
162 1 15.766721967213115 11.740758032786887 7.741063750688979e-05
163 1 19.293725901639345 11.992712131147542 6.960067790312687e-05
164 1 21.686582950819673 13.664798688524593 1.558836494418856e-05
165 1 24.281508196721315 13.821121311475412 5.006683959082045e-05
166 1 26.87542360655738 12.558169836065575 4.657997094220005e-05
167 1 29.704883278688527 12.32242360655738 2.232818086590638e-06
168 1 32.41205180327869 11.98700655737705 6.498795687594898e-05
169 1 35.0136924590164 12.05860393442623 5.184693193628958e-05
170 1 37.46683672131148 12.118487213114756 8.618904370937165e-06
171 1 40.11482885245902 12.207150819672133 1.0491668651225895e-05
172 1 42.735908852459026 12.947714098360658 1.801263631537964e-05
173 1 46.13855147540984 12.416439344262297 8.450909598835339e-05
174 1 47.382871475409836 11.558230163934429 3.3688132677175964e-06
175 1 51.00480000000001 13.176694426229508 4.867017803320007e-05
176 1 53.37084590163935 12.993762622950822 2.633044233001961e-05
177 1 56.034793442622956 12.39275868852459 7.781075425070934e-05
178 1 58.74771803278689 12.198668196721313 6.742153601432783e-05
179 1 61.3303737704918 12.322171147540985 2.0297666352144794e-05
180 1 64.03622950819673 12.37852 8.230155495382718e-06
181 1 66.80217049180328 12.488794098360657 3.079862957266436e-05
182 1 70.78748852459017 11.795491147540984 4.113839767076694e-05
183 1 72.3264786885246 12.0944531147541 6.320350463525005e-05
184 1 75.00557377049182 12.503436721311477 7.378508823898506e-05
185 1 77.77252459016394 12.505153442622952 4.3571455087846995e-06
186 1 80.75911475409836 12.443805901639346 4.037276975517027e-05
187 1 2.11479868852459 14.184763278688525 2.6986643872449547e-05
188 1 4.734444721311475 14.623638032786886 2.236777937626333e-07
189 1 7.03355868852459 14.885993442622953 4.7859226853817676e-05
190 1 9.59697704918033 14.853830163934427 6.261730942708943e-05
191 1 12.471525901639344 14.894577049180329 1.8022829097339765e-05
192 1 15.062613770491806 14.55961442622951 2.8534984789589236e-05
193 1 17.740042622950824 14.331391475409838 4.77637521459801e-05
194 1 21.065331803278692 15.076095081967214 6.549303222821422e-05
195 1 24.06126295081967 15.330169836065576 1.2601489574553115e-05
196 1 26.43882098360656 15.037165901639346 9.669276755731887e-05
197 1 28.789416393442625 14.472768524590165 5.906014026689152e-05
198 1 31.399842622950825 14.34517573770492 3.745461177086854e-05
199 1 33.98426557377049 14.37476393442623 5.3958520628985575e-05
200 1 36.5250131147541 14.568299016393443 4.421241998709124e-05
201 1 38.945943606557385 14.462771147540984 6.547996370255423e-05
202 1 41.1575855737705 15.977979672131148 1.86982892965345e-05
203 1 43.95851737704918 15.430648524590167 2.060201805792723e-05
204 1 46.39414098360656 14.907149508196724 5.011188567531822e-06
205 1 49.314738360655745 14.9434531147541 9.747855293623071e-05
206 1 52.41251147540984 15.578791475409837 4.761058244277884e-05
207 1 55.07797377049181 14.91962098360656 3.3923204157082956e-05
208 1 57.665678688524594 14.530480655737707 6.030705715688312e-07
209 1 59.50761967213115 16.046598032786886 6.0610747864637654e-05
210 1 62.98953442622951 14.63085836065574 5.010334146737576e-05
211 1 65.76405901639346 14.596473442622953 8.772200823356059e-05
212 1 68.38609836065574 14.585516721311476 9.847020522946496e-05
213 1 71.1439606557377 15.29225049180328 4.364771999996995e-05
214 1 73.83921311475412 14.609045901639345 1.6841310329428483e-07
215 1 76.42338360655738 14.69937573770492 5.201095795623438e-05
216 1 78.49758688524591 13.858737704918035 4.6364308132188485e-05
217 1 82.25872131147541 14.486047868852461 2.687192810813899e-06
218 1 0.6149901639344263 16.658710163934426 2.6651532676098068e-05
219 1 2.9792638032786884 16.681481967213116 1.1216436089856052e-05
220 1 5.568892459016394 17.266934426229508 4.31974389226156e-05
221 1 8.326855737704918 17.22522819672131 1.725362609374137e-06
222 1 10.38156918032787 16.17817967213115 7.610058282144324e-05
223 1 13.808801311475412 17.036994754098362 9.456698860546555e-05
224 1 16.32051606557377 16.69410491803279 5.1349061110725325e-05
225 1 18.36846360655738 15.754553442622953 9.971391157828773e-05
226 1 21.710162622950822 16.449724590163935 1.3762811895195161e-05
227 1 25.218131147540987 17.609420327868854 4.4512360590340895e-05
228 1 28.508126557377054 17.00826491803279 5.238121715436015e-05
229 1 29.996473442622953 16.699406557377053 9.936944010789459e-05
230 1 32.47521704918034 16.688651803278688 3.473387568963002e-05
231 1 35.08907672131148 16.88809442622951 9.974714449388725e-05
232 1 38.0948537704918 17.03542950819672 8.409817101511528e-05
233 1 40.749258360655745 17.451885901639347 9.139965058541068e-06
234 1 43.23118295081967 17.6168931147541 5.153204774449382e-05
235 1 46.370965245901644 17.14812721311476 3.9653673794633614e-05
236 1 47.85264721311476 16.84916524590164 4.715723158416014e-05
237 1 49.96759737704918 16.33677442622951 5.786265492002139e-05
238 1 53.93281967213115 17.448805901639343 5.96722411884776e-05
239 1 56.30795409836066 17.092333770491805 7.732648054628715e-05
240 1 58.78053770491804 17.412704262295083 8.826496562876599e-05
241 1 60.88655081967214 16.71182754098361 6.523956949217354e-05
242 1 64.63708196721312 16.76979213114754 7.287660570466198e-05
243 1 67.49744262295083 16.872845901639348 4.15727710116221e-05
244 1 70.32498360655738 16.570198032786887 8.908369028180328e-05
245 1 72.84704918032787 17.106017049180327 1.7869691140469557e-05
246 1 75.61702950819672 16.965700327868856 6.23994798116892e-05
247 1 78.27744262295083 16.73949704918033 3.7185852623004525e-05
248 1 80.74396721311476 16.586557377049182 3.479219872330337e-05
249 1 1.4276708852459017 19.145280000000003 6.381563715057535e-05
250 1 4.107129508196722 19.225208524590165 5.866844470193765e-05
251 1 6.156617049180329 18.68373442622951 2.7881678822087475e-06
252 1 9.859231475409837 19.12998098360656 9.212416215995776e-05
253 1 12.282131147540985 19.34436918032787 5.7349655362710676e-05
254 1 15.11780131147541 19.241719344262297 8.872502661324935e-05
255 1 17.854507540983608 18.730085901639345 7.139124207178403e-05
256 1 20.448473442622955 18.95038163934426 3.413842026195367e-05
257 1 23.08858885245902 19.386277377049183 2.690836350544559e-05
258 1 25.682201311475414 19.898112786885246 8.887719239477732e-05
259 1 28.678132459016396 19.724824918032787 1.6769908685381174e-05
260 1 31.266948196721312 19.110036721311477 4.26184029035383e-05
261 1 33.70156196721312 19.08711344262295 3.368571323428378e-05
262 1 35.762283934426236 18.275912131147543 4.6361087090346754e-05
263 1 39.274645245901645 19.524675409836068 4.757736136938832e-05
264 1 42.71798426229509 19.72139147540984 7.941065245959513e-05
265 1 44.22491213114755 19.94047540983607 7.33622048954168e-05
266 1 46.75919672131148 19.931184918032788 5.252359743001106e-05
267 1 49.24536262295083 19.165779672131148 2.1438440038571774e-05
268 1 51.489016393442625 18.311458360655738 7.5703927187834e-05
269 1 54.993652459016396 19.735478688524594 8.438238890787074e-05
270 1 57.23548852459017 19.65741836065574 9.100968289512591e-05
271 1 59.460157377049185 18.782597377049182 4.4680906227261844e-05
272 1 63.25411147540984 18.66485049180328 2.587997796099595e-06
273 1 65.48281967213116 18.043801311475413 2.6910199989057637e-05
274 1 69.12731803278689 18.759623606557376 1.2075134908966557e-05
275 1 71.45398032786885 19.1168531147541 6.630060431307034e-05
276 1 73.46809836065574 18.511102950819673 7.176283658455251e-05
277 1 77.1040131147541 19.135131147540985 7.471569287053415e-05
278 1 80.24258360655739 18.975829508196725 6.630922377732525e-05
279 1 81.77601967213116 18.97052786885246 7.04546740015349e-05
280 1 0.23539076721311478 21.623670163934428 9.329531699940017e-05
281 1 2.9823488524590167 21.408373114754102 5.710373462129276e-05
282 1 5.624736393442624 21.55702098360656 6.999116369349996e-05
283 1 8.396332459016396 21.40564655737705 4.0494336372839944e-05
284 1 10.299065573770493 22.983919344262297 7.03747432530629e-05
285 1 14.064794754098362 21.440586885245907 2.448829379048756e-05
286 1 16.901070819672135 21.15389442622951 3.971735728224726e-05
287 1 19.0614131147541 21.21196 1.4476082065813956e-05
288 1 21.68254360655738 21.45073573770492 6.098431620088434e-05
289 1 24.484737704918036 21.88228918032787 7.576062941894941e-05
290 1 26.657652459016397 21.05462754098361 4.7701587084083573e-05
291 1 30.150372459016396 21.65361180327869 6.40622033383332e-05
292 1 32.48395213114754 21.545155409836067 9.630235853704954e-05
293 1 35.167540983606564 21.21852393442623 1.930734430990222e-06
294 1 37.616898360655746 21.342077377049183 6.218497923819623e-05
295 1 39.77905836065574 20.981262950819676 1.3553720404425374e-05
296 1 43.238201311475414 22.471528524590166 3.3604912708464564e-05
297 1 45.87710491803279 22.261381639344265 8.014349553256543e-05
298 1 48.5396386885246 21.828969836065575 9.494471558596981e-05
299 1 50.950268852459025 21.16899147540984 9.977467693837361e-06
300 1 53.04618360655738 22.67319278688525 5.993497085886033e-05
301 1 56.07973114754098 22.321113442622952 1.99221493725925e-05
302 1 58.84819672131148 21.638312786885248 3.72733430666254e-05
303 1 62.260937704918035 20.8648793442623 1.999038479765447e-06
304 1 64.9688131147541 20.79464524590164 6.876404754677616e-05
305 1 68.47698360655738 20.995703606557377 3.8838872582485844e-05
306 1 69.96497704918033 21.381006557377052 9.502811481158994e-05
307 1 72.43200655737706 21.385550819672133 7.504064404818722e-05
308 1 75.20501639344263 21.17156655737705 8.195790427391484e-05
309 1 77.63720655737706 21.62558885245902 9.150413378085787e-06
310 1 80.12089836065576 21.91510885245902 2.3171651499294257e-05
311 1 1.8737558688524591 23.662579672131148 9.254666563688526e-05
312 1 3.969059672131148 24.991422950819675 3.4591481758918174e-05
313 1 6.62280786885246 23.747355409836068 7.487968165863268e-05
314 1 9.293319344262295 24.150633442622954 5.783999860433187e-06
315 1 11.523542295081969 23.923773770491806 4.770394508951338e-05
316 1 15.397475409836067 23.318528524590167 2.161135999083228e-05
317 1 17.89454754098361 23.842229508196723 3.024407237255882e-05
318 1 20.508003278688527 23.61021967213115 3.131893175467724e-05
319 1 22.496673442622953 22.75392918032787 6.4020273088162274e-06
320 1 26.070483278688528 23.864395409836067 1.291422039890544e-05
321 1 28.663035409836066 24.01178098360656 9.76755160332741e-05
322 1 30.91744393442623 24.05793049180328 3.240704330526515e-05
323 1 33.58553180327869 23.58224721311476 2.9605964201010184e-05
324 1 36.5397062295082 23.73341967213115 9.521370501456879e-05
325 1 39.26833377049181 23.723422295081967 1.5415181796395172e-05
326 1 41.85038360655738 24.62399409836066 8.46347471733963e-05
327 1 44.602691803278695 24.637121967213115 5.752471142414866e-05
328 1 47.35045573770492 24.296453770491805 3.7315159207533114e-05
329 1 49.94866295081968 23.962702950819672 2.2594829510965197e-05
330 1 52.38070163934427 24.070553442622952 1.8850066601716286e-05
331 1 54.63364590163935 24.12134819672131 5.734359614933559e-05
332 1 56.90123278688525 23.67328393442623 1.4133535219466887e-05
333 1 60.0988786885246 22.490462950819673 6.541220884380034e-05
334 1 63.61512786885247 23.04259081967213 7.179651018895707e-05
335 1 65.96653114754099 23.387096393442626 9.837007849954441e-05
336 1 67.9296524590164 25.155723278688527 5.429287123046606e-05
337 1 71.22474754098361 23.88848 8.265561220876559e-05
338 1 73.89778360655738 23.435871475409837 4.3152013956655746e-05
339 1 76.35875409836066 23.801432131147546 6.978514636053888e-05
340 1 78.80912131147542 24.142453770491805 9.332273141405614e-05
341 1 80.91412459016395 23.243598688524592 5.8687022534747535e-05
342 1 0.31875374426229514 26.008479344262298 3.142212395259601e-05
343 1 3.08284268852459 26.26543213114754 8.419528012334096e-05
344 1 5.5700032786885245 26.382674098360656 9.402900304754718e-05
345 1 7.8115868852459025 26.193986229508198 3.383713161503449e-05
346 1 9.833581639344263 25.576925901639346 4.41071069714769e-05
347 1 13.469092459016395 25.6888662295082 5.223799095131046e-05
348 1 16.06336131147541 25.88825836065574 2.8894421626107783e-07
349 1 18.768863606557378 25.133759344262298 4.940733565922478e-05
350 1 21.730813770491807 25.669830819672132 8.764508290186562e-05
351 1 25.145120000000006 26.05579016393443 6.775171509508536e-05
352 1 26.679212459016398 26.10375737704918 9.299776502106698e-05
353 1 29.287568524590167 26.560809180327873 8.148042648476937e-05
354 1 33.11338295081968 25.809188196721315 9.110050108359949e-05
355 1 34.32791278688525 24.90356721311476 5.73306520381106e-05
356 1 37.69617049180329 25.92027016393443 9.049669090855846e-05
357 1 40.2819062295082 26.388985573770494 3.200409423996878e-05
358 1 43.39492786885246 26.8284662295082 6.885999316264795e-05
359 1 46.10295475409836 26.648765901639347 6.715589641814173e-05
360 1 48.63981442622951 26.475579016393446 6.429944049462555e-05
361 1 51.248170491803286 26.517638688524595 5.5146318345711503e-05
362 1 54.44531147540984 26.28406360655738 9.360205229919113e-05
363 1 55.57279344262296 25.28700196721312 3.347225726020283e-05
364 1 60.32710163934427 25.235449836065577 3.4826124415830206e-05
365 1 61.845895081967214 25.090740327868858 1.4960962188873106e-05
366 1 64.35533770491804 25.62928590163935 5.539686075327724e-05
367 1 67.03291803278688 26.385501639344263 1.4973078590386247e-05
368 1 69.20961967213115 25.986212459016397 4.992422392241184e-05
369 1 73.21160000000002 25.777933770491806 4.7574882692766945e-05
370 1 74.73998688524591 25.987828196721313 1.4160235121528275e-05
371 1 77.45644590163936 26.385855081967215 9.403745661174758e-05
372 1 80.28095737704918 26.19120918032787 8.540856382287364e-05
373 1 1.5542386885245902 28.401841311475412 5.6537353247312285e-05
374 1 4.360557967213115 28.742206557377052 2.0262037778086896e-05
375 1 7.035628852459017 28.83465704918033 1.4756826609127127e-05
376 1 9.50846491803279 28.414464262295084 6.761406475267274e-05
377 1 12.077942295081968 28.156956065573773 1.2835338243798233e-06
378 1 14.636412459016395 28.135648524590167 3.046092101429825e-05
379 1 17.095565245901643 28.494897704918035 8.337474524797274e-06
380 1 19.297159344262298 28.050620327868856 1.503283294236094e-05
381 1 22.02947278688525 28.283993442622954 8.33172104662399e-05
382 1 24.89271147540984 28.640011147540985 2.8282541592068435e-05
383 1 27.691017704918035 28.613502950819676 1.244033109983752e-05
384 1 29.867012459016397 27.98851540983607 5.551725149209598e-05
385 1 33.57644327868853 28.522264262295085 5.632870895819208e-05
386 1 36.09760000000001 28.089902950819674 5.993277063083726e-05
387 1 38.7354937704918 28.407900327868855 9.201904109837488e-05
388 1 40.94208655737705 27.774177704918035 4.3965613114075325e-06
389 1 44.60107606557377 28.94270950819672 3.2460906669333955e-05
390 1 47.11925377049181 28.930641967213116 5.695905148104505e-05
391 1 49.52034098360656 28.802897704918035 7.881412043368548e-05
392 1 51.97323278688525 29.02682885245902 1.474131533172627e-05
393 1 53.76670163934427 28.286013114754102 1.126643488077863e-05
394 1 57.2804262295082 26.816297704918036 4.2461546596227195e-05
395 1 60.64469508196722 28.105302950819674 2.457118223348973e-05
396 1 63.03750163934426 27.70045967213115 6.990200839485872e-07
397 1 65.22026229508197 29.163762622950824 1.698825235779109e-05
398 1 68.03164590163935 28.764422950819675 4.370634683706912e-05
399 1 70.5708786885246 28.834051147540986 2.9234954916317747e-05
400 1 72.96469508196722 28.82385180327869 8.327877972325016e-06
401 1 75.88564590163935 28.439609180327874 9.12036052903116e-05
402 1 78.79750819672132 28.480608524590167 4.27488048306709e-06
403 1 81.51548196721313 28.423704262295086 1.4758887694280709e-05
404 1 0.2672536196721312 30.71805180327869 3.2408911862885e-05
405 1 3.048169967213115 30.72623147540984 1.1750261640925753e-05
406 1 5.81812 31.09578098360656 7.32309943602287e-05
407 1 9.268780327868853 30.80479672131148 8.975882211000424e-05
408 1 10.806407213114756 30.637820327868855 6.37235448273944e-06
409 1 13.335188196721312 30.510025573770495 4.8295593944977295e-06
410 1 16.000499016393444 30.6993193442623 3.384535961660006e-05
411 1 18.628344918032788 30.80201967213115 1.561000365426014e-05
412 1 21.027513442622954 30.300636065573777 2.413499266859568e-05
413 1 24.918613770491806 31.110423606557383 2.4371552597860724e-05
414 1 26.447455081967217 30.805402622950822 8.47118262786083e-06
415 1 29.320741639344266 30.84155475409836 6.64142216018815e-05
416 1 32.137679344262295 30.793284590163935 4.3088863187539754e-05
417 1 34.936389508196726 30.684777704918034 6.60413467648008e-05
418 1 37.55120852459017 30.50371409836066 4.9488325800395164e-05
419 1 40.17415672131148 30.592276721311478 5.462534289960419e-06
420 1 42.733687213114756 30.85690426229508 9.891679277930866e-05
421 1 45.487257704918036 31.29179016393443 6.38865327393984e-05
422 1 48.39578754098361 31.351925901639348 4.767980340926953e-05
423 1 51.09871475409837 31.25397180327869 9.849698251215922e-05
424 1 52.910865573770494 30.222121311475412 7.150253089149977e-05
425 1 56.68613770491804 29.79374885245902 7.595087063693969e-05
426 1 59.17639344262296 30.37021377049181 3.820149821198038e-06
427 1 61.84740983606558 30.3612262295082 2.4406833767937988e-05
428 1 64.52852459016394 30.517548852459022 6.659277676442976e-05
429 1 66.02914098360655 32.426795409836075 9.240636874269828e-05
430 1 69.34897704918033 31.22756459016394 8.151114069920263e-06
431 1 71.93314754098361 32.032959344262295 9.705591091581513e-05
432 1 74.60668852459017 30.685232131147544 6.800506671448075e-05
433 1 77.25245901639344 30.55248918032787 6.777913675756457e-05
434 1 79.90933770491804 30.77500655737705 3.5953146799442325e-05
435 1 1.5421004590163936 32.88697770491804 3.79086108045283e-05
436 1 4.158272655737705 33.08268393442623 7.893463687012222e-05
437 1 6.797408524590165 33.55134885245902 2.974866822313317e-05
438 1 9.29432918032787 33.5914393442623 7.412528654892849e-05
439 1 12.887679344262297 32.81043213114754 8.590574678237191e-05
440 1 14.44252393442623 32.857389508196725 4.106553367336177e-05
441 1 17.263753442622953 33.082431475409834 6.386202632899005e-05
442 1 20.027119344262296 33.03143475409836 6.700377382422817e-05
443 1 22.743679344262297 33.252841311475414 6.282039377791808e-05
444 1 25.074936393442627 33.47263213114754 2.7642472682659602e-05
445 1 27.923532459016396 33.00780459016394 3.173628705559587e-05
446 1 31.669216393442625 32.762666885245906 7.85344091735345e-05
447 1 33.23395737704918 32.87738426229509 6.274876612852687e-06
448 1 37.10556786885246 32.70111737704918 5.526949986136559e-05
449 1 38.640064262295084 32.85663213114754 1.1272178036424807e-05
450 1 41.10204459016394 33.07369639344263 9.672040911892173e-05
451 1 43.960335081967216 33.213912131147545 6.144448175433237e-05
452 1 46.187780983606565 32.653099672131155 9.029210390118717e-05
453 1 49.858838032786885 33.49626229508197 8.716791280779729e-05
454 1 53.7000524590164 32.712780983606564 2.2291294080807433e-06
455 1 55.190570491803285 32.2800662295082 3.9572753360383455e-05
456 1 57.60761311475411 32.49147540983606 5.394364876182212e-06
457 1 60.42758032786886 32.68218295081967 3.730038069816456e-05
458 1 63.05113442622951 32.72752459016394 2.40247602430243e-05
459 1 65.2808524590164 34.31412852459017 8.253791370098496e-06
460 1 67.3520262295082 33.213003278688525 9.303588199747144e-05
461 1 71.06822295081969 33.29055868852459 8.729137794262666e-05