# input file

2232 atoms
1 atom types

0.0 82.68810555352132 xlo xhi
0.0 83.16 ylo yhi
-10.0 10.0 zlo zhi
0.0 0.0 0.0 xy xz yz

Masses

1 12.0100 #C

Atoms

1 1 1.4557544262295083 0.29007339016393446 2.2243124238486314e-05
2 1 3.6907488524590164 1.4937444590163935 9.54703063534006e-05
3 1 6.603721967213115 0.7630472786885247 9.58870624873663e-05
4 1 9.359160655737707 0.6399230163934426 2.5371316511700626e-05
5 1 12.09667475409836 0.16681128524590166 4.7178360154971426e-05
6 1 15.7319331147541 82.95146885245903 8.428877187186204e-05
7 1 17.25113049180328 0.028156855081967216 7.304609340380135e-05
8 1 19.802784262295084 0.49739778360655745 3.449031900491917e-06
9 1 22.355851803278693 0.2597868918032787 2.8591780295100158e-05
10 1 25.162842622950823 0.27905456393442624 7.950442131950494e-05
11 1 27.934792131147546 0.6059824262295082 8.72168203942743e-05
12 1 30.34931016393443 1.9778598688524593 3.8493785906196755e-05
13 1 33.16241049180328 1.517783606557377 6.37364616591131e-05
14 1 36.01772196721311 1.3097977704918033 3.9390619514809204e-05
15 1 39.809555409836065 0.9241666229508197 7.770447061574784e-05
16 1 41.35213049180329 0.9098471475409837 8.997109366585377e-06
17 1 43.91564983606558 1.248334098360656 7.357397189116539e-05
18 1 46.563086557377055 1.062367737704918 8.30404672343268e-06
19 1 49.31701049180328 0.6791652459016394 3.373382346433529e-06
20 1 51.94142295081968 0.8497568524590164 2.611048965917018e-07
21 1 54.62304262295083 1.6066946229508199 6.246053676262084e-05
22 1 58.45638032786886 0.8430111475409837 6.894610252826536e-05
23 1 59.993855737704926 0.9380518688524592 5.671180327666531e-05
24 1 63.242498360655745 0.35433430819672135 9.097410079586527e-05
25 1 65.90392131147541 0.27078653114754103 9.284951997841221e-05
26 1 68.26946229508198 1.6946059016393444 6.952271803823406e-05
27 1 72.26790819672131 0.38695302295081974 6.607294996655489e-06
28 1 73.84173770491805 0.6531367213114755 4.894338434461697e-05
29 1 76.8192393442623 0.7241080000000001 5.922229060480068e-05
30 1 80.18249836065574 0.2615238098360656 7.232450504221489e-06
31 1 81.73663606557378 0.28365537704918037 6.620646091239668e-05
32 1 0.2820956852459017 2.8268896393442624 2.810177272490575e-05
33 1 2.936174098360656 2.83800793442623 1.2226809338523059e-05
34 1 5.538647868852459 2.9137506885245905 4.5166563251344594e-05
35 1 8.12428262295082 2.920511540983607 5.496417028258799e-05
36 1 11.438968524590166 2.4418946885245902 9.312654536043674e-05
37 1 12.957004590163935 2.4307208524590167 7.183625446219729e-05
38 1 15.535368524590165 2.441864393442623 6.645317187587835e-05
39 1 18.32064786885246 2.61532393442623 1.3743274008821538e-05
40 1 21.258866885245904 2.7431540327868857 3.0055494930124827e-05
41 1 23.99592655737705 2.4337554098360656 2.0932343258996066e-06
42 1 26.283962622950824 3.829096393442623 1.536216086593183e-05
43 1 29.174416393442627 2.9746892459016396 6.962469853712949e-05
44 1 31.9173331147541 5.581565901639345 1.87031502503313e-05
45 1 35.408740327868856 3.4129278032786887 3.79398873714805e-05
46 1 36.95222426229509 3.486297442622951 3.521707404070227e-05
47 1 39.68539606557378 3.5310180327868856 5.616906350512956e-05
48 1 42.52354032786886 3.4630409180327875 2.774459044065022e-05
49 1 45.33098557377049 3.4439196721311482 1.082354652482903e-05
50 1 48.11318491803279 3.0875838688524593 7.101440246070393e-05
51 1 50.52916721311476 3.1062203934426234 4.049858363546658e-05
52 1 53.09061639344263 4.173899868852459 4.6798943023261674e-05
53 1 55.9519868852459 3.589785442622951 8.43286724384291e-05
54 1 58.47152786885247 3.4498979016393445 2.9969145696131328e-05
55 1 60.93249836065574 2.1747223606557378 3.0840569608995994e-05
56 1 64.70221639344263 2.575485901639344 9.829028107428568e-05
57 1 67.29900983606558 2.9090095081967218 6.87138177969317e-05
58 1 69.75240655737704 3.3827438032786885 2.123470768517266e-05
59 1 72.25427540983607 2.929938360655738 7.041151001532004e-05
60 1 75.10706229508197 2.8300908196721317 2.644451302263058e-05
61 1 77.70385573770493 3.2294860327868857 8.523950522293304e-05
62 1 80.2496524590164 3.0537897049180334 6.524883047411556e-06
63 1 1.808308393442623 5.185508196721312 7.42162892487804e-05
64 1 4.687012721311476 5.1021967213114765 9.769209818045725e-05
65 1 6.241392786885247 5.136783606557378 5.9715099508705305e-05
66 1 9.007283278688524 5.348697704918033 3.526238322898344e-05
67 1 11.733537704918033 5.1021967213114765 8.83232540665539e-05
68 1 14.5030131147541 4.737438885245902 8.679219149380986e-05
69 1 16.94621049180328 5.702089836065575 8.017133821884734e-05
70 1 19.80212786885246 4.717555213114754 4.438283643546811e-05
71 1 22.674000655737707 4.886056459016394 9.075331018855943e-05
72 1 25.55173049180328 5.2057049180327875 5.2324392491422205e-05
73 1 28.718677377049183 4.989428327868853 8.955673664630477e-05
74 1 30.028838688524594 4.225613573770492 3.380288686988636e-05
75 1 33.73877442622951 6.894706229508197 8.926543428104773e-05
76 1 35.91532459016394 5.990499016393443 5.821852516372553e-05
77 1 38.54524065573771 5.729658360655738 4.0123617291109594e-05
78 1 41.30487016393443 5.701433442622951 8.66446673293862e-05
79 1 44.272020983606566 5.622969180327869 3.1228219315520114e-06
80 1 47.20307016393443 5.370257704918033 5.8850213604739827e-05
81 1 48.76160065573771 5.58217180327869 2.5155638289994344e-05
82 1 53.29611803278689 5.673006557377049 1.6250140937342673e-05
83 1 54.81036721311476 5.760559344262295 9.174849441751069e-05
84 1 57.48996721311476 5.846546885245902 9.368665341577422e-05
85 1 59.63031475409837 4.4767648524590165 9.021523179789813e-05
86 1 63.69339016393443 5.237767213114755 5.978758793880768e-06
87 1 65.27378360655739 4.980976 7.835701350025537e-07
88 1 68.11596721311476 5.501940327868852 4.39612995121504e-05
89 1 71.02732459016394 5.508150819672132 3.986865511375807e-05
90 1 73.80235409836067 5.040187737704918 5.174641901147441e-05
91 1 76.4117704918033 5.378184918032788 6.078440425345475e-05
92 1 79.02977049180329 5.53056918032787 6.7054831322136e-05
93 1 81.79470163934427 5.237615737704919 8.710192437527534e-05
94 1 0.2978087344262295 7.553573770491805 2.7276783357091018e-05
95 1 2.8965026885245906 8.271213770491803 8.439620977904702e-05
96 1 5.191011803278689 8.014311475409837 6.858792437997571e-05
97 1 7.832944918032787 7.412600655737705 4.504525742480663e-05
98 1 10.616507540983607 7.419568524590164 1.9286953494418893e-05
99 1 13.346700327868854 7.116567213114755 2.7814231738389852e-05
100 1 16.240587540983608 7.068549508196722 2.401266085066982e-05
101 1 18.903777704918035 6.9501462295081975 9.223792463693366e-05
102 1 21.09345573770492 8.112820983606557 7.009727322462652e-05
103 1 23.882875409836068 7.21224918032787 9.974113133113075e-05
104 1 26.51455868852459 7.759832786885246 7.799100280527219e-05
105 1 29.073180327868855 7.736354098360656 3.7740826948779874e-05
106 1 31.45609049180328 7.135350163934427 4.6731705744495705e-05
107 1 35.113363278688524 8.83116786885246 6.024828069748345e-06
108 1 37.59084459016394 8.136198688524592 6.261244369783909e-05
109 1 40.13007737704918 8.87509573770492 3.731039060270397e-05
110 1 42.87753836065574 7.716409836065575 9.760158588377668e-05
111 1 45.41409508196722 8.635764590163935 1.1001655913704867e-05
112 1 47.6502255737705 8.404360655737706 3.47886650058358e-05
113 1 49.49529704918033 7.01740131147541 1.3851837902303844e-05
114 1 53.31076065573771 8.12468655737705 3.5020628250906906e-06
115 1 56.16102295081968 8.052382295081967 3.6549049492188016e-05
116 1 59.02946229508198 7.492175737704919 2.2313386232771715e-05
117 1 61.84387540983607 7.661727213114755 2.473461157606115e-05
118 1 64.02360655737705 7.79164262295082 7.347596524497344e-05
119 1 66.7052262295082 7.367915409836066 6.314258398896888e-05
120 1 69.49035409836067 7.571801311475411 2.3819263938596538e-05
121 1 73.22018360655738 7.250471475409837 6.248538641915229e-05
122 1 74.72635409836067 7.527822950819673 9.90327701717391e-05
123 1 77.73869508196722 7.839104918032787 3.684031850251095e-05
124 1 80.43596721311476 7.6061862295081974 6.834797350499529e-05
125 1 1.3295855081967214 10.154810491803278 4.622643370146259e-05
126 1 4.102898295081968 10.631301639344263 3.3150529292637754e-05
127 1 7.63956131147541 9.63701704918033 9.449033810066986e-05
128 1 9.18153049180328 9.579708852459017 3.210095684113107e-05
129 1 11.847548196721313 9.488975081967213 5.017373047904922e-05
130 1 14.653074754098363 9.183802622950822 6.305016517476142e-05
131 1 17.452845245901642 9.294632131147543 2.5631401747348573e-06
132 1 20.219493114754098 9.37824655737705 5.282663116068877e-05
133 1 22.6834931147541 9.636613114754098 5.3905986177792375e-05
134 1 25.22918885245902 9.738909508196722 7.981980644574371e-05
135 1 27.984728524590167 10.106035409836066 5.296640111881918e-05
136 1 30.60944393442623 10.01742229508197 4.212138557545413e-05
137 1 33.25789049180329 10.710624262295083 8.851127992594617e-05
138 1 36.06871868852459 10.803680655737706 6.663355560328035e-05
139 1 40.382233442622955 10.376873442622951 6.0848137210018044e-05
140 1 41.86522819672132 10.05897704918033 8.650272691878853e-05
141 1 43.82829901639345 11.745201311475412 6.536731472693424e-05
142 1 46.68482229508197 11.058815737704919 3.2279875002583756e-05
143 1 50.102360000000004 9.90533049180328 4.836230049661095e-05
144 1 51.655639344262305 10.152033442622953 9.211941488973179e-05
145 1 54.516000000000005 10.197526557377051 5.5808087949340795e-05
146 1 57.47078032786886 9.842569180327871 1.3581011095898666e-05
147 1 60.26701639344263 9.789906229508198 9.719881486228689e-05
148 1 62.95721967213115 10.307800655737706 1.569249827404905e-05
149 1 65.47625573770492 9.808588196721313 3.919740120990367e-05
150 1 67.97459016393444 9.642116721311476 1.556751690707654e-05
151 1 70.61228196721312 9.910076721311476 4.856674909424388e-05
152 1 73.15454426229508 9.747998032786887 8.450227636915316e-05
153 1 75.36558032786887 8.951186885245903 9.114870014276618e-05
154 1 79.0141180327869 9.973241967213115 3.4320327719232194e-05
155 1 81.48266229508197 9.979300983606558 1.772874116262434e-05
156 1 82.47028196721313 12.451127213114756 3.870348397375048e-05
157 1 2.497698229508197 12.517725901639345 2.8383458113607097e-05
158 1 5.257257049180328 12.735194098360658 9.001186387238438e-05
159 1 7.8709147540983615 12.309497704918034 7.67952686195477e-05
160 1 10.59641180327869 11.881428196721313 2.5297223834292672e-05
161 1 13.266771803278688 11.480523278688526 9.669527181410147e-05
162 1 15.911431475409836 11.396908852459017 3.8133866231600092e-06
163 1 18.59865573770492 11.525763934426232 4.6112730463738286e-05
164 1 21.13768655737705 11.898544918032789 8.983080513111861e-05
165 1 23.62163081967213 12.019826229508197 7.179509931623792e-05
166 1 26.27482360655738 12.067288524590165 5.7045541985614646e-05
167 1 29.127055081967217 12.444765245901639 8.926729040995476e-05
168 1 31.77646098360656 12.691417704918035 6.553178774048376e-05
169 1 34.66711672131148 12.938423606557379 9.208377497238358e-05
170 1 36.86446950819673 12.117275409836067 1.4804238081890476e-05
171 1 40.37723475409837 13.129585573770493 4.247273158091959e-05
172 1 43.028660327868856 13.064451147540986 5.2475686717826546e-05
173 1 45.31886754098361 13.348921967213116 8.167563169820471e-05
174 1 47.75368327868853 13.119083278688526 4.787063437218639e-05
175 1 50.27999016393443 12.80058098360656 1.5651123602856855e-05
176 1 53.33247213114755 12.380640655737706 8.19037329788401e-05
177 1 56.165567213114755 12.013918688524592 2.3863798246618428e-05
178 1 58.825980327868855 12.017150163934428 8.439935026519473e-05
179 1 61.52628196721312 12.286675409836066 3.8966089535790965e-05
180 1 65.16371147540984 12.214320655737707 8.790401439611465e-05
181 1 66.70371147540985 12.125758032786887 4.3309294526991915e-05
182 1 69.25253770491804 12.034115409836067 2.0147585983486183e-05
183 1 72.09169180327869 12.162920000000002 5.995535698172843e-05
184 1 74.77331147540984 11.853203278688525 2.7492141007537363e-05
185 1 77.40746885245902 12.092231475409836 8.159880951094912e-05
186 1 79.99214426229508 12.425275409836066 4.774976918357554e-06
187 1 1.1587969836065575 14.712655081967215 6.022211648353204e-06
188 1 3.856296327868853 14.791270819672132 1.0043724699791168e-05
189 1 6.639066229508197 14.788847213114755 9.620947057260351e-05
190 1 9.249845901639345 14.333057704918035 5.4405972845080676e-05
191 1 12.856475409836067 13.724278032786886 1.6752193258970518e-05
192 1 14.396929836065576 13.714836065573772 2.4867324332434395e-05
193 1 16.991602622950822 13.694285901639345 5.7830891979611124e-05
194 1 19.67695868852459 14.058786229508197 6.223108031624281e-05
195 1 22.136969836065575 14.35290098360656 9.259664040388355e-05
196 1 25.545873442622952 14.163304262295084 2.2736784545198908e-05
197 1 26.88809704918033 13.456419016393443 6.754234692176746e-05
198 1 30.213234754098362 14.814547540983607 2.1804176555393264e-05
199 1 32.31672327868853 14.159618360655738 8.77151819247226e-05
200 1 36.217770491803286 14.976272786885247 2.8947923834998124e-05
201 1 38.762910819672136 15.299874754098362 6.018414043591014e-05
202 1 41.47982426229509 15.381166557377052 4.412001874585103e-06
203 1 43.98022885245902 15.712039344262296 1.3343232538946504e-05
204 1 46.4727062295082 15.640340983606558 2.824361839690243e-05
205 1 49.21733967213115 15.28073836065574 1.4448364023684014e-05
206 1 51.21787540983607 14.040457704918035 6.156376089404011e-05
207 1 54.922459016393454 14.254593442622953 3.9898162659929495e-05
208 1 57.354649180327876 14.308013770491804 5.46191449255873e-05
209 1 59.70352786885246 14.356889836065575 7.415639332115499e-06
210 1 62.221554098360656 14.54689049180328 8.541496050850146e-05
211 1 64.85874098360657 14.959408524590167 6.081378392973225e-05
212 1 68.87738360655739 14.227428852459019 8.052310913284327e-05
213 1 70.41586885245903 14.151691147540985 1.2298711729826584e-05
214 1 73.23028196721312 14.258380327868855 8.447948371192803e-05
215 1 75.9144262295082 14.348760655737706 6.763156229030212e-05
216 1 78.5864524590164 14.663375081967216 2.3709671695381074e-07
217 1 81.2089967213115 14.915531147540985 5.7822269096248813e-05
218 1 0.7521460983606558 16.912835409836067 8.46353769533003e-05
219 1 2.3120095737704918 16.985190163934426 4.531201951782863e-05
220 1 5.083262295081968 16.93848524590164 8.356402922547419e-05
221 1 7.759731803278689 16.841692459016397 3.3345751982990393e-06
222 1 10.265942950819674 16.594585573770495 3.066121766366572e-05
223 1 12.765792131147544 16.43922229508197 4.470261293319766e-06
224 1 16.390346229508197 15.907291147540985 4.7433870911436275e-05
225 1 17.924287213114756 16.05573704918033 2.7928653674997673e-05
226 1 20.6968931147541 16.63159606557377 9.346155507812144e-05
227 1 23.185028196721312 16.901929180327873 5.0156904525789805e-05
228 1 25.69224918032787 18.15569114754099 4.5078440654142154e-05
229 1 28.462986885245904 16.83108918032787 3.485394627496009e-05
230 1 31.308250491803282 17.078398032786886 9.73156226495412e-05
231 1 34.57784721311476 16.985341639344263 9.485181762291556e-05
232 1 37.32929704918033 17.51949442622951 6.228904725909647e-05
233 1 39.9772386885246 17.571601967213116 2.806471685309653e-06
234 1 42.647649180327875 17.937869508196723 7.868770001617327e-05
235 1 45.236414426229516 18.093081311475412 4.021754897608254e-06
236 1 48.019926557377055 17.592505573770495 9.689669040946079e-05
237 1 50.74830163934426 17.06835016393443 4.084041826229385e-05
238 1 54.21254426229509 16.51384918032787 9.547437188234545e-05
239 1 55.74850491803279 16.67870491803279 8.996653938174309e-05
240 1 58.197862295081976 16.81876918032787 2.6371832684122777e-05
241 1 60.700236065573776 16.796047868852458 1.6766709167253236e-05
242 1 63.29854426229509 16.9532793442623 9.138903277962881e-05
243 1 65.59693114754099 16.33207868852459 2.0173810621561197e-05
244 1 69.91448524590166 16.471940983606558 6.052154379385145e-05
245 1 71.46508852459017 16.33409836065574 8.406858635348098e-05
246 1 74.21285245901639 16.587920655737705 6.0809862343104876e-05
247 1 77.03534426229508 16.831796065573773 9.173716476996074e-05
248 1 79.73514098360657 17.193216393442622 3.858328410243056e-05
249 1 0.7461476721311476 19.39915278688525 5.359451917475715e-05
250 1 4.528372524590164 18.976687868852462 6.790931562440047e-05
251 1 6.073709508196722 19.127304918032788 3.837484275879042e-05
252 1 9.632068852459017 18.994208524590167 6.812768644991158e-05
253 1 11.154396721311477 18.840511475409837 3.268106356834184e-05
254 1 13.721500983606559 18.820920655737705 1.5802991663301438e-05
255 1 16.300167868852462 18.512163278688526 1.9088073787865233e-05
256 1 19.207132459016396 18.465761311475415 9.867303397892225e-05
257 1 22.03023016393443 19.19698360655738 4.067215771176764e-05
258 1 24.904021639344265 19.504579672131147 7.689978954282397e-05
259 1 27.45648327868853 19.27625573770492 6.654922883148252e-06
260 1 30.01202491803279 19.083579016393443 7.580834698084933e-05
261 1 32.06148721311475 18.449099016393447 9.444699523520237e-05
262 1 35.043028196721316 20.55112327868853 1.532881946439564e-05
263 1 39.25773049180328 19.7629462295082 7.607768144852288e-05
264 1 40.80848524590164 19.94804918032787 4.3539405804916754e-05
265 1 43.56417639344263 20.366272786885247 6.892713269900605e-05
266 1 47.50273901639345 19.74896 4.07936522241838e-05
267 1 49.02188590163935 19.44833180327869 9.851334018052138e-05
268 1 51.57636721311476 19.481757377049185 9.602497499709147e-05
269 1 54.245868852459026 19.23535737704918 2.0725138619838436e-05
270 1 57.13955409836066 19.229904262295083 5.770903956065501e-05
271 1 59.79441311475411 19.16946557377049 8.764920752074314e-05
272 1 62.389691803278694 19.095141639344263 8.737976351193799e-05
273 1 64.29929180327869 20.463419016393445 9.636284359914494e-05
274 1 67.03291803278688 19.173252459016396 4.9978987380204414e-05
275 1 69.79835409836066 19.236771147540985 2.2889548927156013e-05
276 1 72.53854426229508 18.722007213114757 8.533167432773575e-05
277 1 75.32670163934428 18.867423606557377 7.947912767300546e-05
278 1 77.9739868852459 19.309176393442623 5.714992685307129e-05
279 1 80.90251147540985 19.716190819672132 5.969080079118654e-05
280 1 82.24912786885245 21.901223606557377 2.620478274907574e-05
281 1 1.90675731147541 21.733641311475413 6.360567718909492e-05
282 1 4.323022360655738 21.546468196721314 5.104419260025289e-05
283 1 6.962213770491804 21.745910819672133 5.842523248238027e-05
284 1 9.57077180327869 21.507589508196727 3.0025529490168936e-05
285 1 12.394980327868854 21.1920662295082 4.6250592166969234e-05
286 1 15.221814426229509 20.984342950819673 7.855165512788585e-05
287 1 17.976748196721314 20.49871278688525 2.945487742347779e-05
288 1 20.365060983606558 21.81306491803279 4.1136041236747483e-05
289 1 23.348874098360657 21.596101639344266 5.167290681274305e-05
290 1 27.10369704918033 21.52960393442623 6.54329823845834e-08
291 1 28.656370491803283 21.525867540983608 5.6313680844874315e-05
292 1 31.283862950819675 21.445181639344263 3.8877693558861296e-05
293 1 33.92917901639345 21.653056393442625 2.144219081810377e-05
294 1 36.34400000000001 22.24118491803279 2.2967295337561923e-06
295 1 38.79381180327869 22.23356065573771 8.55454798387447e-05
296 1 41.645841311475415 22.361001967213117 6.154177251913604e-05
297 1 44.880447213114756 22.614016393442625 3.827722108833698e-06
298 1 47.46411278688525 22.11409704918033 1.4941797666854296e-05
299 1 50.2011724590164 21.85199409836066 7.93038420289623e-05
300 1 52.86289836065574 21.621246557377052 3.5464281676555166e-05
301 1 55.736386885245906 21.34490491803279 7.119753930085808e-05
302 1 59.42784262295082 21.279669508196722 7.673780122974116e-06
303 1 60.97996065573771 21.479768524590167 2.9085235757204944e-05
304 1 63.69389508196722 21.911877377049183 5.585215598046812e-06
305 1 66.25938360655739 21.514456393442625 4.4423423399134436e-05
306 1 68.64714098360656 22.454159344262298 7.675536784350545e-06
307 1 71.24140983606559 21.187370491803282 8.553530931798778e-05
308 1 73.8775868852459 20.97485049180328 6.0692675005433744e-05
309 1 76.4880131147541 21.366565901639344 8.558136217064432e-05
310 1 78.60059016393443 20.728551475409837 5.054474880945901e-05
311 1 0.9169160000000002 24.309531147540984 1.6019256042380505e-05
312 1 3.5118412459016395 24.039046557377052 2.564697258044213e-06
313 1 5.919911475409837 25.12017704918033 5.375987634473638e-05
314 1 8.669897049180328 23.92044131147541 3.0516986825943038e-05
315 1 11.354344262295083 23.476163934426232 7.40849927163158e-05
316 1 14.011323934426231 23.21098098360656 2.677143398803529e-05
317 1 16.842803278688528 22.89606360655738 6.0359320273197404e-05
318 1 19.603240655737704 23.14362491803279 8.69573884135382e-05
319 1 21.67951409836066 24.860447213114757 2.6437293052115985e-05
320 1 24.454846557377053 24.09802098360656 3.153171780358615e-05
321 1 27.07224065573771 24.013093770491807 1.560601595552923e-05
322 1 29.881907540983608 23.90822229508197 6.650260169967059e-05
323 1 32.48602229508197 23.959723934426233 8.601828057854173e-05
324 1 35.08650163934427 24.299331803278694 1.6586150262382815e-05
325 1 37.59453049180328 25.50982229508197 6.108041172665106e-05
326 1 40.31220131147541 24.42142098360656 1.4164687184556502e-05
327 1 42.4826924590164 23.6591462295082 6.69180155242202e-05
328 1 46.364754754098364 24.623034754098363 7.661664647129329e-05
329 1 48.97093967213115 24.223341639344266 6.349339054446169e-05
330 1 51.56475409836066 24.045004590163938 2.6159362284798628e-05
331 1 54.08379016393443 23.50827672131148 1.7007526481482893e-05
332 1 56.74723278688525 23.668992131147544 2.7747327438482894e-05
333 1 59.042085245901646 23.98638360655738 3.2716289036704784e-05
334 1 61.763593442622955 24.02369704918033 4.27073409398e-06
335 1 66.10689836065573 23.743568524590167 8.725976040342447e-05
336 1 67.65699672131149 23.620923934426234 8.590981094264583e-06
337 1 70.3593180327869 23.810066229508198 9.499255249241299e-05
338 1 72.94853770491804 23.339836065573774 7.302862622386352e-05
339 1 75.49685901639344 24.498168524590167 2.3805720373981678e-05
340 1 78.26179016393444 23.585680655737708 7.940134027388553e-05
341 1 80.88837377049181 23.94553573770492 5.0711450360690726e-05
342 1 82.24054426229509 26.38772327868853 6.108877210693502e-05
343 1 2.4691047213114756 26.529403278688527 7.58237428791563e-05
344 1 5.383739016393442 26.571715409836067 5.2720838815686856e-05
345 1 8.000123278688525 26.232965901639346 3.127721522600217e-05
346 1 10.624333770491804 25.871141639344266 9.90871846821323e-06
347 1 13.074549508196723 25.615350163934426 6.760804951855483e-05
348 1 15.77348786885246 25.118157377049183 4.30756807364767e-05
349 1 17.92413573770492 26.402264918032788 2.9526633295707794e-05
350 1 20.77323672131148 26.086792131147543 1.946260693486659e-05
351 1 23.184573770491802 26.50188524590164 3.73269116443051e-05
352 1 25.933246557377053 26.376514098360655 6.503939011765973e-05
353 1 28.632639344262298 26.228421639344266 4.095015594101129e-05
354 1 31.232310819672136 26.377069508196723 1.356418196547219e-05
355 1 33.87000262295083 26.49421049180328 3.9341758578073615e-05
356 1 36.78282426229509 26.80271540983607 9.370748884257197e-05
357 1 39.51867213114755 26.863053114754102 8.161278262732981e-05
358 1 42.22361901639345 26.475680000000004 7.152819118553811e-06
359 1 44.92785901639345 26.64174754098361 2.8086136999753378e-05
360 1 47.613820983606566 26.72026229508197 7.748045741207248e-05
361 1 50.22520655737705 26.492796721311475 1.127885178192275e-05
362 1 53.84748852459017 25.85392393442623 4.3584812741671125e-05
363 1 55.379409836065584 25.80565377049181 6.247037571582719e-05
364 1 57.63386885245902 27.41099016393443 9.818231737142928e-05
365 1 60.23621639344263 26.299766557377055 9.565355974870266e-05
366 1 62.52248524590164 25.382532459016396 7.741558569243488e-05
367 1 66.14476721311476 26.54475278688525 5.700151906236295e-06
368 1 68.90464918032788 25.953089836065576 2.8342606202596246e-05
369 1 71.81600655737707 25.888914754098362 3.7156440126646765e-05
370 1 75.4640393442623 26.023323934426234 8.841308806017224e-05
371 1 76.99394098360656 26.01181180327869 5.2354670080532755e-05
372 1 79.60133770491804 26.116430819672132 4.560623921839221e-05
373 1 0.677064786885246 28.519992131147543 1.7555985819947807e-05
374 1 4.123296983606558 28.68459540983607 7.985063467533493e-05
375 1 7.893838032786887 28.27717704918033 2.166776458191525e-05
376 1 9.440351475409837 28.323680000000003 7.02582243161081e-05
377 1 12.046435409836066 28.211184262295085 4.1429520211749883e-05
378 1 14.552545573770493 27.59331606557377 6.1519754843477605e-06
379 1 17.29313967213115 27.791243934426234 5.1988716908332847e-05
380 1 19.447927868852464 28.282175737704918 3.0340289938710164e-05
381 1 21.596101639344266 29.828335737704922 8.74119715597254e-05
382 1 24.323870819672134 28.598910819672135 9.738767964527873e-05
383 1 27.09183147540984 28.567555409836068 9.709695710118934e-05
384 1 29.721141639344268 28.72917967213115 1.8028532268294097e-05
385 1 32.74479278688525 28.828345573770495 7.92865149088191e-05
386 1 35.46200918032787 28.69878360655738 7.150592421359656e-05
387 1 38.227344262295084 29.033544262295084 9.064474005598471e-05
388 1 41.09012852459017 28.884946885245906 8.896840039484032e-05
389 1 43.76922360655738 28.833495737704922 8.757353965360526e-06
390 1 46.3210793442623 28.98522360655738 6.05551820597001e-05
391 1 48.84637639344263 28.945082622950824 1.6570385245588626e-06
392 1 51.326432786885256 28.809057704918036 6.433617121913791e-05
393 1 53.9232262295082 28.40451737704918 8.4160532953446e-05
394 1 56.769449180327875 28.683181639344266 6.347936870166674e-05
395 1 59.351600000000005 28.992393442622955 6.918040667263937e-05
396 1 62.08320655737705 28.223150819672135 6.510017748983798e-05
397 1 64.70423606557378 29.35633836065574 7.919301169342299e-05
398 1 68.67895081967214 28.06203147540984 6.430911742320768e-05
399 1 70.23864262295083 27.91605967213115 4.38983110144215e-05
400 1 72.81372459016394 29.269997377049183 2.2900956257242777e-05
401 1 75.38678688524591 28.35968065573771 1.806955123572609e-05
402 1 78.08355409836065 28.404163934426233 7.044304129506935e-05
403 1 80.64702295081969 28.610776393442627 1.9984864275442606e-05
404 1 0.15575055081967215 30.59919409836066 5.672902925465543e-05
405 1 1.4866907540983607 29.813491147540987 7.274662320488083e-05
406 1 5.283613770491804 30.839535081967217 2.907586821840449e-05
407 1 8.006939672131148 30.754506885245906 6.568489052951522e-05
408 1 10.885022950819673 30.669377704918038 7.399586067642257e-05
409 1 14.3366931147541 30.028030819672136 3.837144503109741e-05
410 1 15.8705331147541 29.86575016393443 2.7453051467586353e-05
411 1 18.112773114754102 31.713750163934428 6.637720569765448e-05
412 1 21.0288262295082 31.252760000000006 4.473656095740119e-06
413 1 23.530695081967217 30.953646557377052 4.612711907836151e-05
414 1 25.672759344262296 31.9535862295082 5.1305571311261724e-05
415 1 28.275056393442625 30.97525704918033 6.466388826963845e-05
416 1 30.520224918032792 30.06398098360656 9.00291459092457e-05
417 1 34.24187475409836 30.999291147540987 3.9616349967043865e-05
418 1 36.86765049180328 31.03418098360656 4.558040849805042e-05
419 1 39.7483593442623 31.022113442622956 5.863488331681384e-05
420 1 42.60836655737705 31.13390229508197 9.895352546374425e-05
421 1 45.17244131147542 31.313804590163937 4.783795374325639e-05
422 1 47.742221639344265 31.388481967213117 6.094082856058859e-05
423 1 50.355980327868856 31.282348196721316 4.821541286285165e-05
424 1 53.10222950819673 30.832971147540988 7.66305773002424e-05
425 1 55.599049180327874 31.67184196721312 5.160946065812369e-05
426 1 57.780800000000006 32.23729967213115 6.851057447462189e-05
427 1 61.15870163934427 30.837717377049184 5.098649157956366e-05
428 1 63.93373114754099 30.685232131147544 4.085411945605203e-05
429 1 66.32300327868853 31.017468196721314 8.786535381463421e-05
430 1 68.73550163934428 30.551529836065576 1.4528158662823044e-05
431 1 72.98539672131149 30.781116065573773 9.776754280798679e-05
432 1 74.50822950819673 30.949051803278692 9.438114310812194e-05
433 1 77.01817704918034 30.65731016393443 4.471390697890882e-05
434 1 79.26203278688524 32.15671475409836 5.8495377856862554e-05
435 1 0.7381194754098361 33.20997377049181 4.624939369973902e-05
436 1 3.6265788196721314 32.65097901639344 4.5145042837041086e-05
437 1 6.572265573770493 32.990940327868856 2.0544840800882848e-05
438 1 9.430859016393445 32.855521311475414 5.7499182410947004e-05
439 1 12.172311475409838 33.08248196721312 8.148931111769358e-05
440 1 14.657972459016396 32.71050885245902 5.202712845718675e-05
441 1 17.464761311475414 33.113534426229506 9.598466887162e-05
442 1 19.86145573770492 33.44849704918033 3.9536674550460454e-05
443 1 22.59376918032787 33.48621442622951 8.739081633718415e-05
444 1 25.1505731147541 33.37932327868853 8.167465004793622e-05
445 1 26.98660655737705 34.98056983606558 3.0351144633075456e-05
446 1 29.960169836065578 32.931309508196726 9.420612299164787e-05
447 1 32.749286557377054 33.144738360655744 6.962363144327795e-05
448 1 35.68927278688525 33.3357993442623 1.4337214041095559e-05
449 1 38.4485993442623 33.0685462295082 1.8521925409938913e-05
450 1 41.209541639344266 33.14206229508197 1.76226096634607e-05
451 1 43.885354754098366 33.62062360655738 9.276347799048125e-05
452 1 46.520471475409835 33.765383606557386 7.89613388415018e-06
453 1 49.24410032786886 33.701612459016395 8.732114426616234e-05
454 1 51.99948852459017 33.23516918032787 8.107998498414519e-05
455 1 54.78865573770493 33.015933770491806 2.6927188843432904e-05
456 1 57.105219672131156 33.59133836065574 4.8727194322680136e-05
457 1 59.1632655737705 32.855521311475414 2.2403853385256933e-05
458 1 62.565403278688535 32.93736852459016 5.0948108845426013e-05
459 1 65.0647475409836 33.27768327868853 8.737330098165501e-05
460 1 67.73172459016395 33.17281180327869 3.1426104444323945e-05
461 1 70.20935737704919 32.81245180327869 9.856066796120534e-05