ITEM: TIMESTEP
0
ITEM: NUMBER OF ATOMS
2232
ITEM: BOX BOUNDS xy xz yz pp pp pp
0.0 82.68810555352132 0
0.0 83.16 0
-10.0 10.0 0
ITEM: ATOMS id type x y z vx vy vz
1 1 1.1805791475409837 0.27273753442622956 7.13784776644e-05 0.0 0.0 0.0
2 1 3.929327672131148 0.11229730491803279 9.71824517294e-06 0.0 0.0 0.0
3 1 6.498951475409837 0.8298529836065575 3.77464942358e-05 0.0 0.0 0.0
4 1 9.338408524590166 0.7380639344262296 4.66034977249e-05 0.0 0.0 0.0
5 1 12.273093114754099 0.5997012459016394 3.76155109776e-05 0.0 0.0 0.0
6 1 16.01847409836066 0.37135408524590163 3.85628797084e-05 0.0 0.0 0.0
7 1 17.56539147540984 0.5689466885245903 6.59538559303e-05 0.0 0.0 0.0
8 1 20.408332459016396 0.7711512131147542 1.7088441009e-05 0.0 0.0 0.0
9 1 22.670971147540985 1.9678422950819674 8.29407778395e-05 0.0 0.0 0.0
10 1 25.464632131147543 1.0923851147540984 6.36177936289e-05 0.0 0.0 0.0
11 1 28.114694426229512 1.2101067540983608 4.62747265917e-05 0.0 0.0 0.0
12 1 30.753042622950822 1.2154386885245902 1.67987083527e-05 0.0 0.0 0.0
13 1 33.22895868852459 1.0509717377049181 1.01593343492e-05 0.0 0.0 0.0
14 1 35.816714098360656 0.6992811803278689 2.41209384223e-05 0.0 0.0 0.0
15 1 38.564579016393445 0.8648387540983608 9.29703938073e-05 0.0 0.0 0.0
16 1 41.290782950819676 0.6354544918032787 2.7405171419e-05 0.0 0.0 0.0
17 1 43.971493770491804 0.6656031475409837 1.40610153144e-06 0.0 0.0 0.0
18 1 47.30678032786885 0.44670754754098363 4.28218647781e-05 0.0 0.0 0.0
19 1 48.84637639344263 0.5579950163934427 3.61625121675e-05 0.0 0.0 0.0
20 1 51.379449180327875 0.8960729836065575 9.3056753637e-05 0.0 0.0 0.0
21 1 53.98583606557378 1.0413732459016396 3.5836610533e-06 0.0 0.0 0.0
22 1 56.701285245901644 1.3769518688524591 6.4755199352e-05 0.0 0.0 0.0
23 1 60.23571147540984 1.2797198032786887 4.10716063606e-05 0.0 0.0 0.0
24 1 62.8208918032787 1.00924531147541 4.84767492683e-05 0.0 0.0 0.0
25 1 65.29246557377049 0.6946409836065575 5.39522724598e-05 0.0 0.0 0.0
26 1 67.82311475409836 0.6349495737704919 8.12980660345e-05 0.0 0.0 0.0
27 1 70.50271475409836 0.5410550163934427 9.74609758447e-05 0.0 0.0 0.0
28 1 73.23179672131148 0.5322290491803279 7.84778328948e-05 0.0 0.0 0.0
29 1 76.02853770491804 0.6745351475409838 1.27272770255e-05 0.0 0.0 0.0
30 1 78.68339672131148 0.8054755409836066 9.62309459119e-05 0.0 0.0 0.0
31 1 81.18627540983607 0.6493649836065574 6.7015743383e-05 0.0 0.0 0.0
32 1 0.2038349049180328 2.6829375081967215 9.547734314e-05 0.0 0.0 0.0
33 1 2.7271430819672133 2.359870754098361 9.55721340427e-05 0.0 0.0 0.0
34 1 4.9555584262295085 3.828137049180328 5.83776424478e-05 0.0 0.0 0.0
35 1 7.138581639344263 2.2347268196721313 1.61584243734e-06 0.0 0.0 0.0
36 1 10.873308852459017 2.7129397377049185 6.31561131368e-06 0.0 0.0 0.0
37 1 13.400625573770492 2.991659540983607 3.98320353018e-05 0.0 0.0 0.0
38 1 15.972728524590165 2.87134262295082 5.97128680422e-05 0.0 0.0 0.0
39 1 18.881561311475412 2.8642838688524592 3.97773714727e-06 0.0 0.0 0.0
40 1 21.76913704918033 3.2265171147540985 3.2418235139e-05 0.0 0.0 0.0
41 1 24.249092459016396 3.56796793442623 5.29773568157e-05 0.0 0.0 0.0
42 1 26.692946229508202 3.511447409836066 8.83163554997e-05 0.0 0.0 0.0
43 1 30.27185573770492 3.298770885245902 3.71824151829e-05 0.0 0.0 0.0
44 1 31.798626885245906 3.5081805901639345 3.91682513301e-05 0.0 0.0 0.0
45 1 35.2984662295082 3.040752721311476 6.15419084709e-05 0.0 0.0 0.0
46 1 36.82973114754098 2.9173911475409837 8.6883108569e-05 0.0 0.0 0.0
47 1 39.58703803278689 2.9258737704918034 8.63522569172e-05 0.0 0.0 0.0
48 1 42.36787409836066 2.93140262295082 6.92155510179e-05 0.0 0.0 0.0
49 1 44.84500196721312 3.2527324590163937 9.75037825953e-05 0.0 0.0 0.0
50 1 47.30420524590164 3.2275269508196724 8.02187982634e-05 0.0 0.0 0.0
51 1 49.993701639344266 3.1556518688524595 5.03888225552e-05 0.0 0.0 0.0
52 1 52.638714754098366 3.323905704918033 1.65078999132e-05 0.0 0.0 0.0
53 1 55.299632786885255 3.4118018360655737 1.36649785933e-05 0.0 0.0 0.0
54 1 57.62023606557377 2.6073967213114755 3.57920912869e-05 0.0 0.0 0.0
55 1 61.384904918032795 3.427237180327869 2.59013008402e-05 0.0 0.0 0.0
56 1 64.1256 3.2669913442622955 5.72305318951e-05 0.0 0.0 0.0
57 1 66.52699016393444 3.100646098360656 3.97035338008e-05 0.0 0.0 0.0
58 1 69.17780983606559 2.89283193442623 7.83211392126e-05 0.0 0.0 0.0
59 1 71.80893770491804 2.7968318688524594 8.96657105037e-05 0.0 0.0 0.0
60 1 74.49914098360657 2.7878948196721316 4.87201794397e-05 0.0 0.0 0.0
61 1 77.30547540983606 3.0992424262295084 6.24323123967e-05 0.0 0.0 0.0
62 1 80.24157377049181 3.1990091803278693 1.29941225583e-05 0.0 0.0 0.0
63 1 1.7709697049180328 4.876720524590165 6.40685946729e-05 0.0 0.0 0.0
64 1 4.348571213114754 5.227870819672131 2.51314619154e-05 0.0 0.0 0.0
65 1 6.687942295081967 5.149053114754099 8.29602119864e-05 0.0 0.0 0.0
66 1 9.399251147540985 4.941642885245902 5.50861567803e-05 0.0 0.0 0.0
67 1 12.037649836065576 5.2291331147541 1.60321715575e-05 0.0 0.0 0.0
68 1 14.637169836065576 5.27800918032787 3.53766388172e-05 0.0 0.0 0.0
69 1 17.369937704918033 4.963601770491804 4.51053783581e-05 0.0 0.0 0.0
70 1 20.100332459016396 5.1370865573770494 6.75411964257e-05 0.0 0.0 0.0
71 1 22.80517836065574 5.816908196721312 3.11300711131e-05 0.0 0.0 0.0
72 1 25.178848524590165 6.006959344262296 8.34223154639e-05 0.0 0.0 0.0
73 1 27.633356065573775 5.905571803278689 3.04870242824e-05 0.0 0.0 0.0
74 1 30.192432131147545 5.932736393442624 9.78062339939e-06 0.0 0.0 0.0
75 1 32.811391475409835 6.046292459016394 6.60142821693e-05 0.0 0.0 0.0
76 1 35.283924590163934 5.660888524590164 4.01385531709e-05 0.0 0.0 0.0
77 1 38.01315803278688 5.128149508196722 4.8257393229e-05 0.0 0.0 0.0
78 1 40.80182032786886 5.0851304918032785 4.41943731117e-05 0.0 0.0 0.0
79 1 43.43410950819672 5.511937704918033 2.41786313846e-05 0.0 0.0 0.0
80 1 46.04852459016394 5.6905272131147555 8.29592094891e-05 0.0 0.0 0.0
81 1 48.77321377049181 5.5160780327868855 9.77758794777e-06 0.0 0.0 0.0
82 1 51.41883278688525 5.581565901639345 9.27525373509e-05 0.0 0.0 0.0
83 1 54.13933114754099 5.665634754098361 5.55355358779e-06 0.0 0.0 0.0
84 1 56.91183606557378 5.431302295081967 1.81982302658e-05 0.0 0.0 0.0
85 1 59.509639344262304 5.208784918032788 9.00682582989e-05 0.0 0.0 0.0
86 1 62.38060327868853 5.475179672131148 2.49814691947e-05 0.0 0.0 0.0
87 1 65.27075409836067 5.703907540983607 9.47690108552e-05 0.0 0.0 0.0
88 1 67.9296524590164 5.308102295081968 3.44577393144e-05 0.0 0.0 0.0
89 1 70.50776393442624 5.183034098360657 3.15841033342e-05 0.0 0.0 0.0
90 1 73.08940983606558 5.0698819672131155 2.95963415679e-05 0.0 0.0 0.0
91 1 75.79728524590165 5.066499016393443 1.7786873288e-05 0.0 0.0 0.0
92 1 78.17696393442623 4.393564459016393 4.64164637636e-05 0.0 0.0 0.0
93 1 81.93557377049181 5.153950819672131 6.86205926666e-05 0.0 0.0 0.0
94 1 1.0569802622950821 7.31813049180328 9.8366224444e-05 0.0 0.0 0.0
95 1 2.601524524590164 7.335651147540984 3.10113062764e-05 0.0 0.0 0.0
96 1 5.1987875409836075 7.679146885245903 6.88737201848e-05 0.0 0.0 0.0
97 1 7.900957377049181 7.263195409836066 3.91250238107e-05 0.0 0.0 0.0
98 1 10.619840000000002 7.39048524590164 4.85237038547e-05 0.0 0.0 0.0
99 1 13.283838032786887 7.6150222950819675 7.80211745523e-05 0.0 0.0 0.0
100 1 15.933698360655738 7.3188373770491815 5.16826118998e-05 0.0 0.0 0.0
101 1 18.503731147540986 7.27576786885246 6.79844784772e-05 0.0 0.0 0.0
102 1 21.130971147540983 7.624009836065575 6.24516485197e-05 0.0 0.0 0.0
103 1 23.78239672131148 8.471514754098362 7.26076816382e-05 0.0 0.0 0.0
104 1 27.08748918032787 8.252077377049181 7.05898222715e-05 0.0 0.0 0.0
105 1 28.616936393442625 8.221428852459017 5.3458837528e-05 0.0 0.0 0.0
106 1 31.350966557377053 8.32180655737705 5.12473326618e-05 0.0 0.0 0.0
107 1 34.56815278688525 8.21016918032787 2.40479920388e-05 0.0 0.0 0.0
108 1 37.14202295081968 7.535295737704919 4.80593392813e-05 0.0 0.0 0.0
109 1 39.678276721311484 7.229062950819673 8.12666148558e-05 0.0 0.0 0.0
110 1 41.66921901639345 8.799307540983607 1.78732883689e-05 0.0 0.0 0.0
111 1 44.58178819672132 7.959780327868853 6.72356442549e-05 0.0 0.0 0.0
112 1 47.43194950819672 7.864350819672132 1.67415300626e-05 0.0 0.0 0.0
113 1 50.1933462295082 7.90676393442623 6.38875879396e-06 0.0 0.0 0.0
114 1 52.83563278688525 7.911358688524591 8.46477498152e-05 0.0 0.0 0.0
115 1 55.75052459016394 7.7664472131147555 5.30109687061e-05 0.0 0.0 0.0
116 1 58.595232786885255 7.671573114754099 9.750917458e-05 0.0 0.0 0.0
117 1 61.37127213114755 7.274354098360656 9.10245359341e-05 0.0 0.0 0.0
118 1 62.875927868852465 6.91232786885246 1.78140263271e-05 0.0 0.0 0.0
119 1 66.59111475409836 7.7615495081967225 3.06043838306e-05 0.0 0.0 0.0
120 1 69.22325245901641 7.616385573770493 8.55063859805e-05 0.0 0.0 0.0
121 1 71.84024262295083 7.49596262295082 2.26235124873e-05 0.0 0.0 0.0
122 1 74.44460983606558 7.309900327868853 9.65556872664e-05 0.0 0.0 0.0
123 1 77.2968918032787 7.148579016393443 1.35279358217e-06 0.0 0.0 0.0
124 1 81.13426885245902 7.480158688524591 3.00224797933e-06 0.0 0.0 0.0
125 1 0.4669643540983607 9.717753442622953 9.28640723025e-05 0.0 0.0 0.0
126 1 3.3765989508196728 9.844386885245903 1.22685990999e-05 0.0 0.0 0.0
127 1 7.272081967213116 9.57607344262295 2.51119029491e-05 0.0 0.0 0.0
128 1 8.815313442622951 9.500234754098361 2.88240930536e-05 0.0 0.0 0.0
129 1 11.52692524590164 9.77132524590164 7.81299247027e-05 0.0 0.0 0.0
130 1 15.405907540983609 9.594755409836067 7.50857862585e-06 0.0 0.0 0.0
131 1 16.955753442622953 9.628281967213114 8.09539539439e-05 0.0 0.0 0.0
132 1 19.565725245901643 9.725226229508197 3.08620594346e-06 0.0 0.0 0.0
133 1 21.69021836065574 11.150862295081968 4.92772937586e-05 0.0 0.0 0.0
134 1 25.016769836065574 11.193325901639346 7.85130403177e-06 0.0 0.0 0.0
135 1 27.448152131147545 10.778232786885246 7.68338101916e-05 0.0 0.0 0.0
136 1 30.084177704918034 10.476544262295082 4.17097502525e-06 0.0 0.0 0.0
137 1 32.32964918032787 9.507909508196722 2.00304806011e-05 0.0 0.0 0.0
138 1 36.27613901639345 10.107398688524592 5.93662217898e-05 0.0 0.0 0.0
139 1 38.829812459016395 9.721439344262295 7.96045685189e-05 0.0 0.0 0.0
140 1 40.69482819672132 11.18307606557377 7.45280496148e-05 0.0 0.0 0.0
141 1 43.45768918032787 10.250845901639345 9.07065264999e-05 0.0 0.0 0.0
142 1 46.25796459016394 10.053725901639345 8.14928904884e-05 0.0 0.0 0.0
143 1 48.782049836065575 10.130725901639344 6.77584256163e-05 0.0 0.0 0.0
144 1 51.40065573770492 10.3042662295082 8.58144372277e-05 0.0 0.0 0.0
145 1 54.43016393442623 9.910834098360656 1.44164527741e-05 0.0 0.0 0.0
146 1 57.1496524590164 9.931030819672133 5.15200559739e-05 0.0 0.0 0.0
147 1 59.82016393442623 10.608479344262296 9.33976836819e-05 0.0 0.0 0.0
148 1 62.20438688524591 10.353697704918034 9.0758997167e-05 0.0 0.0 0.0
149 1 65.05262950819673 9.939664918032788 1.06426574696e-05 0.0 0.0 0.0
150 1 67.87259672131148 10.010656393442623 3.7633655568e-05 0.0 0.0 0.0
151 1 70.5592655737705 9.901493114754098 5.36862688068e-06 0.0 0.0 0.0
152 1 73.24391475409837 9.75329967213115 7.52760664812e-05 0.0 0.0 0.0
153 1 75.7993049180328 9.326997377049182 3.33524547318e-05 0.0 0.0 0.0
154 1 77.85280655737705 10.667554754098363 8.2411804316e-05 0.0 0.0 0.0
155 1 80.55563278688525 9.94532 8.75520836097e-05 0.0 0.0 0.0
156 1 82.11582950819673 12.217855081967215 3.50346590942e-05 0.0 0.0 0.0
157 1 1.9867110819672134 11.986501639344263 4.22593324663e-05 0.0 0.0 0.0
158 1 4.521596524590164 12.232750163934428 3.65739262112e-05 0.0 0.0 0.0
159 1 6.967868852459017 12.071428852459016 7.88009567893e-06 0.0 0.0 0.0
160 1 9.672058360655738 11.858656393442624 1.61994689999e-05 0.0 0.0 0.0
161 1 12.291219672131149 12.049969836065575 5.56132488318e-05 0.0 0.0 0.0
162 1 14.89957573770492 12.162566557377051 4.15945468325e-05 0.0 0.0 0.0
163 1 18.095302950819672 12.082436065573772 9.52754090663e-05 0.0 0.0 0.0
164 1 20.771419016393445 12.352264262295083 6.31989104396e-05 0.0 0.0 0.0
165 1 22.848803278688525 12.128686557377051 9.48754325398e-05 0.0 0.0 0.0
166 1 26.81109704918033 13.339278032786886 7.34801304148e-05 0.0 0.0 0.0
167 1 29.41990754098361 12.845619672131148 6.07779386585e-07 0.0 0.0 0.0
168 1 32.024224262295085 12.299096393442623 2.60824512162e-05 0.0 0.0 0.0
169 1 34.77718885245902 12.263297704918035 6.35950365557e-05 0.0 0.0 0.0
170 1 37.39140196721312 12.300308196721312 5.72477508438e-05 0.0 0.0 0.0
171 1 39.97930885245902 12.545294426229509 5.60842273737e-05 0.0 0.0 0.0
172 1 42.3481318032787 12.658547540983607 1.1455196359e-06 0.0 0.0 0.0
173 1 44.98173377049181 12.269154754098361 6.00718833823e-05 0.0 0.0 0.0
174 1 47.627857704918036 12.515251803278689 4.98100374701e-05 0.0 0.0 0.0
175 1 50.123465573770495 12.546506229508198 2.67032443846e-05 0.0 0.0 0.0
176 1 52.16914098360657 11.654568524590164 1.01624932939e-05 0.0 0.0 0.0
177 1 55.30417704918034 13.441019016393444 1.51528937037e-05 0.0 0.0 0.0
178 1 58.06809836065574 12.45935737704918 6.10829004393e-05 0.0 0.0 0.0
179 1 60.89210491803279 12.909996721311478 4.23803761178e-05 0.0 0.0 0.0
180 1 64.06500983606558 12.32227213114754 8.06676630338e-05 0.0 0.0 0.0
181 1 66.76884590163935 12.154336393442623 9.62018133166e-05 0.0 0.0 0.0
182 1 69.37321311475411 12.258147540983607 8.22129627074e-06 0.0 0.0 0.0
183 1 71.94627540983608 12.12636393442623 1.45896296169e-05 0.0 0.0 0.0
184 1 74.68343606557379 11.921367213114754 9.20037504041e-05 0.0 0.0 0.0
185 1 77.28275409836067 12.072943606557377 9.49402822346e-06 0.0 0.0 0.0
186 1 79.5564 13.597644590163934 8.17075374212e-05 0.0 0.0 0.0
187 1 0.9930828852459017 14.498418360655739 1.14042368453e-05 0.0 0.0 0.0
188 1 3.4520438032786886 14.50074098360656 7.08877951278e-05 0.0 0.0 0.0
189 1 5.97944131147541 14.58576918032787 4.94868232226e-06 0.0 0.0 0.0
190 1 8.450813114754098 14.245656393442625 7.86186661612e-05 0.0 0.0 0.0
191 1 11.036548852459017 14.255653770491804 1.74837911583e-05 0.0 0.0 0.0
192 1 13.755885901639346 14.378550819672133 9.86174103599e-05 0.0 0.0 0.0
193 1 15.842308196721314 13.37921704918033 9.93455441207e-06 0.0 0.0 0.0
194 1 19.454643278688525 14.433031475409837 5.76343215703e-05 0.0 0.0 0.0
195 1 22.077944918032788 14.830048524590167 8.69584949441e-05 0.0 0.0 0.0
196 1 24.465550819672135 14.098169836065576 4.64727937076e-05 0.0 0.0 0.0
197 1 28.062283934426233 15.358697704918034 2.8231438415e-05 0.0 0.0 0.0
198 1 31.693704918032793 14.6446931147541 2.19935589264e-05 0.0 0.0 0.0
199 1 33.235219672131144 14.492409836065576 3.80023434508e-05 0.0 0.0 0.0
200 1 35.87740524590164 14.659588196721312 8.02662993779e-05 0.0 0.0 0.0
201 1 38.558217049180335 14.78642360655738 1.24117906908e-05 0.0 0.0 0.0
202 1 41.27795803278689 15.071752786885249 2.20120804152e-05 0.0 0.0 0.0
203 1 43.8999468852459 14.692104918032788 3.9773928954e-05 0.0 0.0 0.0
204 1 46.21363278688525 15.698255081967213 2.31164596144e-05 0.0 0.0 0.0
205 1 49.0513731147541 14.978898360655739 8.51807048276e-05 0.0 0.0 0.0
206 1 51.774800000000006 14.662213770491803 5.04206253943e-05 0.0 0.0 0.0
207 1 54.555383606557385 14.799904918032787 4.22528744583e-05 0.0 0.0 0.0
208 1 57.01786885245902 14.905230819672132 7.97258216128e-05 0.0 0.0 0.0
209 1 59.67424262295083 14.716038032786885 3.79814512148e-05 0.0 0.0 0.0
210 1 61.93980983606558 14.015060327868854 9.2845970205e-05 0.0 0.0 0.0
211 1 65.58784262295083 14.486249836065575 3.7522074162e-05 0.0 0.0 0.0
212 1 68.18413114754098 14.579104262295083 2.32716876418e-05 0.0 0.0 0.0
213 1 70.75113442622951 14.599502950819673 4.87591791309e-05 0.0 0.0 0.0
214 1 73.36963934426231 14.255300327868854 8.72450909245e-05 0.0 0.0 0.0
215 1 76.03358688524591 14.35290098360656 7.27436538147e-05 0.0 0.0 0.0
216 1 78.67986229508197 14.851255081967215 3.67059195515e-05 0.0 0.0 0.0
217 1 81.21758032786886 14.871199344262296 7.78253782376e-05 0.0 0.0 0.0
218 1 82.52026885245903 17.09571672131148 1.87371447118e-05 0.0 0.0 0.0
219 1 2.391832065573771 16.95772262295082 3.80918614848e-05 0.0 0.0 0.0
220 1 4.924001049180328 16.94439278688525 6.94469960297e-05 0.0 0.0 0.0
221 1 7.486571147540984 16.839268852459018 3.02650532221e-05 0.0 0.0 0.0
222 1 9.918205901639345 16.5912531147541 7.54587153533e-05 0.0 0.0 0.0
223 1 12.690761311475411 16.487795409836068 1.19130512258e-05 0.0 0.0 0.0
224 1 15.501185573770492 16.29622950819672 5.88939738752e-05 0.0 0.0 0.0
225 1 17.987957377049185 16.428164590163934 2.12964512801e-05 0.0 0.0 0.0
226 1 20.662255737704918 16.895264262295083 6.87203227635e-06 0.0 0.0 0.0
227 1 23.42117836065574 16.851740327868853 3.39335971843e-05 0.0 0.0 0.0
228 1 26.06195016393443 17.37443147540984 6.36508621152e-05 0.0 0.0 0.0
229 1 28.845007868852463 17.623406557377052 1.62784376635e-05 0.0 0.0 0.0
230 1 31.589035409836068 17.309751475409836 1.77289872744e-05 0.0 0.0 0.0
231 1 34.43455147540984 16.951360655737705 6.49704262973e-05 0.0 0.0 0.0
232 1 37.20897508196722 17.043003278688523 6.34862474049e-05 0.0 0.0 0.0
233 1 39.976127868852465 17.167667540983608 7.46740369697e-05 0.0 0.0 0.0
234 1 42.865874754098364 17.18362295081967 7.61654026346e-05 0.0 0.0 0.0
235 1 45.59616852459017 17.096575081967217 2.86962662584e-05 0.0 0.0 0.0
236 1 47.92166950819673 18.493784262295083 2.33861045639e-05 0.0 0.0 0.0
237 1 50.59329180327869 17.12984918032787 3.21348405367e-05 0.0 0.0 0.0
238 1 53.31934426229508 16.99867147540984 2.68615541071e-06 0.0 0.0 0.0
239 1 56.00500327868853 17.27804262295082 7.88098886548e-05 0.0 0.0 0.0
240 1 58.66188196721312 17.03361180327869 3.05290218252e-05 0.0 0.0 0.0
241 1 61.355114754098366 16.787110819672133 4.66086910439e-05 0.0 0.0 0.0
242 1 63.964531147540995 16.628768524590164 9.35110147908e-06 0.0 0.0 0.0
243 1 66.69664262295082 16.885418360655738 7.12076939897e-05 0.0 0.0 0.0
244 1 69.30959344262295 17.010537049180332 2.49743616901e-05 0.0 0.0 0.0
245 1 72.86068196721313 16.591960000000004 1.72394021152e-05 0.0 0.0 0.0
246 1 74.40320655737706 16.565956721311476 8.68458336116e-05 0.0 0.0 0.0
247 1 77.02171147540984 16.869059016393447 9.85166926292e-05 0.0 0.0 0.0
248 1 79.7760393442623 17.221744262295083 1.2696824488e-05 0.0 0.0 0.0
249 1 1.2433707540983607 19.40904918032787 7.11698960889e-07 0.0 0.0 0.0
250 1 3.825344852459017 19.361940327868854 7.8587418043e-05 0.0 0.0 0.0
251 1 6.470928524590164 19.271862950819674 5.84102273808e-05 0.0 0.0 0.0
252 1 9.114628852459017 19.15573180327869 5.25466304623e-05 0.0 0.0 0.0
253 1 11.553433442622952 18.676514098360656 4.63611249497e-05 0.0 0.0 0.0
254 1 14.29705704918033 18.503731147540986 5.1238572473e-05 0.0 0.0 0.0
255 1 16.691226885245904 18.820718688524593 9.34074314566e-06 0.0 0.0 0.0
256 1 19.324727868852463 18.90933180327869 5.523358793e-06 0.0 0.0 0.0
257 1 22.066230819672132 19.08948655737705 5.40859964801e-05 0.0 0.0 0.0
258 1 24.423491147540986 20.453118688524594 3.04107395156e-05 0.0 0.0 0.0
259 1 27.357266885245906 19.706496393442624 3.63925184285e-05 0.0 0.0 0.0
260 1 30.27796524590164 19.663830819672135 8.87971703904e-05 0.0 0.0 0.0
261 1 33.1085862295082 19.2831731147541 5.89257004366e-08 0.0 0.0 0.0
262 1 35.89462295081968 19.248434754098362 2.82823087696e-05 0.0 0.0 0.0
263 1 38.67283344262295 19.349519344262298 8.83782104307e-05 0.0 0.0 0.0
264 1 41.510775737704925 19.26898491803279 4.41486746583e-05 0.0 0.0 0.0
265 1 44.22743672131148 19.43899081967213 7.30471358469e-05 0.0 0.0 0.0
266 1 46.97161573770492 19.711293114754103 7.57630540336e-05 0.0 0.0 0.0
267 1 49.608802622950826 19.682159344262296 9.81896267445e-05 0.0 0.0 0.0
268 1 52.18984262295083 19.334573770491804 4.2916630659e-05 0.0 0.0 0.0
269 1 54.84874098360657 19.433992131147544 6.08699263692e-05 0.0 0.0 0.0
270 1 58.36347540983607 19.137807213114755 1.48744626712e-06 0.0 0.0 0.0
271 1 59.907514754098365 19.13725180327869 6.67450914105e-05 0.0 0.0 0.0
272 1 62.43109508196722 19.04818426229508 3.56340946221e-05 0.0 0.0 0.0
273 1 65.06373770491804 18.98052524590164 9.50129229452e-05 0.0 0.0 0.0
274 1 67.64689836065574 19.30523803278689 3.76032533915e-05 0.0 0.0 0.0
275 1 70.23712786885247 19.479535737704918 1.19886586749e-05 0.0 0.0 0.0
276 1 72.79706229508197 19.263026885245903 5.73689079904e-05 0.0 0.0 0.0
277 1 75.55542950819674 19.07216786885246 9.29228583997e-05 0.0 0.0 0.0
278 1 78.31581639344263 19.24353704918033 5.4875651095e-05 0.0 0.0 0.0
279 1 81.14285245901641 19.374563278688527 3.11821166547e-05 0.0 0.0 0.0
280 1 82.53844590163935 21.577975081967214 7.17923033106e-05 0.0 0.0 0.0
281 1 2.698186032786886 21.778175081967216 2.37967975146e-05 0.0 0.0 0.0
282 1 5.302901639344262 21.645280655737704 4.77728971604e-05 0.0 0.0 0.0
283 1 8.059299672131148 21.536369836065575 8.53878111653e-05 0.0 0.0 0.0
284 1 11.56853049180328 20.943091147540986 8.98167311072e-05 0.0 0.0 0.0
285 1 13.103329836065575 20.74087147540984 2.10195564383e-05 0.0 0.0 0.0
286 1 15.472304262295083 22.26537049180328 4.78097480321e-05 0.0 0.0 0.0
287 1 18.250464262295086 21.174192131147542 3.6430543709e-05 0.0 0.0 0.0
288 1 20.72350229508197 22.32979803278689 6.24968227786e-05 0.0 0.0 0.0
289 1 23.633395409836066 21.79625114754099 2.2765835231e-05 0.0 0.0 0.0
290 1 26.246093770491804 21.95237180327869 2.57414453618e-05 0.0 0.0 0.0
291 1 29.003905573770492 21.738488524590167 8.48556448405e-05 0.0 0.0 0.0
292 1 31.793476721311478 21.605240655737706 5.34840147447e-05 0.0 0.0 0.0
293 1 34.52069049180328 21.490068852459018 6.9877064473e-05 0.0 0.0 0.0
294 1 37.224980983606564 21.545862295081967 8.05210025268e-05 0.0 0.0 0.0
295 1 40.84145639344263 21.289717377049183 7.45760676052e-05 0.0 0.0 0.0
296 1 42.35777573770492 21.569189508196725 7.34859795841e-05 0.0 0.0 0.0
297 1 45.4385331147541 21.849267540983607 8.86179137462e-05 0.0 0.0 0.0
298 1 48.210129180327876 21.98514098360656 3.59544298485e-06 0.0 0.0 0.0
299 1 50.843226229508204 21.830181639344264 7.05705915098e-05 0.0 0.0 0.0
300 1 53.39356721311476 21.69753967213115 3.31953966599e-05 0.0 0.0 0.0
301 1 55.96662950819673 21.869716721311477 6.60349902379e-05 0.0 0.0 0.0
302 1 58.54827540983607 21.74459803278689 3.3616105205e-05 0.0 0.0 0.0
303 1 61.31270163934427 21.544145573770493 5.66555537087e-05 0.0 0.0 0.0
304 1 63.897377049180335 21.329050491803283 7.48559260861e-05 0.0 0.0 0.0
305 1 66.16344918032789 22.649512131147542 1.64596760804e-05 0.0 0.0 0.0
306 1 68.97786229508198 21.761613770491806 1.26095238355e-05 0.0 0.0 0.0
307 1 71.69583606557379 21.732025573770496 5.65598073329e-05 0.0 0.0 0.0
308 1 74.30626229508196 21.412513442622952 3.94120435526e-05 0.0 0.0 0.0
309 1 76.9692 21.385247868852463 6.52376513185e-06 0.0 0.0 0.0
310 1 79.73615081967215 21.456643278688528 3.10672126731e-05 0.0 0.0 0.0
311 1 0.8925183606557378 23.769773770491806 7.31855553323e-05 0.0 0.0 0.0
312 1 4.538107344262295 24.055304918032792 8.10379327532e-05 0.0 0.0 0.0
313 1 6.694506229508197 23.82900065573771 5.75270911148e-05 0.0 0.0 0.0
314 1 9.31896918032787 23.793151475409836 9.67006658752e-05 0.0 0.0 0.0
315 1 11.879509508196723 23.619560655737708 9.50586100832e-05 0.0 0.0 0.0
316 1 14.735780327868854 23.64293836065574 6.93837272766e-06 0.0 0.0 0.0
317 1 17.163880655737707 23.714030819672132 9.14823483189e-05 0.0 0.0 0.0
318 1 19.89654754098361 23.630416393442626 1.96041113136e-05 0.0 0.0 0.0
319 1 22.317175081967214 24.106301639344267 6.27607230981e-05 0.0 0.0 0.0
320 1 24.937043278688527 24.20036786885246 1.80191769609e-05 0.0 0.0 0.0
321 1 27.708235409836067 24.037784262295084 7.57417764515e-05 0.0 0.0 0.0
322 1 30.47973049180328 23.85399409836066 6.41178342375e-05 0.0 0.0 0.0
323 1 33.17129704918033 23.798554098360658 7.98850099541e-05 0.0 0.0 0.0
324 1 35.7727862295082 23.80112918032787 2.36122050588e-05 0.0 0.0 0.0
325 1 38.31737114754099 24.02061704918033 5.90824172425e-05 0.0 0.0 0.0
326 1 40.785360000000004 23.84884393442623 1.51648394396e-06 0.0 0.0 0.0
327 1 43.00538360655738 22.989776393442625 3.89381105287e-05 0.0 0.0 0.0
328 1 46.728447213114755 24.076612459016395 2.71851253145e-05 0.0 0.0 0.0
329 1 49.38679016393443 24.197893770491806 9.83714242509e-05 0.0 0.0 0.0
330 1 52.01665573770492 24.132860327868855 4.57827445404e-05 0.0 0.0 0.0
331 1 54.6432393442623 24.13306229508197 4.07197443762e-05 0.0 0.0 0.0
332 1 57.34859016393443 24.144422950819674 2.19633048629e-05 0.0 0.0 0.0
333 1 60.10544262295083 23.900699016393446 8.94059482512e-06 0.0 0.0 0.0
334 1 62.725967213114764 23.872019672131152 2.139295658e-05 0.0 0.0 0.0
335 1 65.42020983606558 24.00526754098361 4.21271642318e-05 0.0 0.0 0.0
336 1 68.04982295081967 24.123216393442625 3.45849872735e-05 0.0 0.0 0.0
337 1 70.65620983606559 23.98825180327869 9.08890182579e-05 0.0 0.0 0.0
338 1 73.22674754098361 23.908979672131153 3.22060016919e-05 0.0 0.0 0.0
339 1 75.70438032786886 23.71423278688525 6.61490776832e-05 0.0 0.0 0.0
340 1 78.39458360655739 23.629507540983607 9.26333293568e-06 0.0 0.0 0.0
341 1 81.01157377049181 23.688027540983608 8.08594689799e-05 0.0 0.0 0.0
342 1 82.13198688524591 26.088306885245903 3.10158491787e-06 0.0 0.0 0.0
343 1 1.8564876721311478 26.316277377049182 2.67854445964e-05 0.0 0.0 0.0
344 1 3.477597704918033 25.144615081967213 5.10827760622e-05 0.0 0.0 0.0
345 1 7.737212459016394 26.070129836065576 5.03030243676e-05 0.0 0.0 0.0
346 1 10.416055081967215 26.03675475409836 6.37520686433e-05 0.0 0.0 0.0
347 1 13.235315409836067 25.83044524590164 5.98777952848e-05 0.0 0.0 0.0
348 1 15.87093704918033 26.177980327868852 1.48788146789e-05 0.0 0.0 0.0
349 1 18.525594098360656 25.91547344262295 9.78135460341e-05 0.0 0.0 0.0
350 1 20.92723672131148 27.296222295081968 6.17196253147e-06 0.0 0.0 0.0
351 1 23.73185442622951 26.494109508196722 9.84285997244e-05 0.0 0.0 0.0
352 1 26.420038032786888 26.30718885245902 9.0322036853e-05 0.0 0.0 0.0
353 1 29.2284931147541 26.125266885245903 8.80215180069e-06 0.0 0.0 0.0
354 1 31.924805901639346 26.097950819672135 2.90035465413e-05 0.0 0.0 0.0
355 1 34.52614360655738 26.151674098360658 5.79762337536e-05 0.0 0.0 0.0
356 1 37.14439606557378 26.271996065573774 8.35883237507e-05 0.0 0.0 0.0
357 1 39.84065836065574 26.33253573770492 9.44618423917e-05 0.0 0.0 0.0
358 1 42.49223540983607 25.896589508196723 8.61480492268e-05 0.0 0.0 0.0
359 1 45.14961901639345 26.045287868852462 1.02245198301e-05 0.0 0.0 0.0
360 1 47.834924590163936 26.413777049180332 2.54153726766e-05 0.0 0.0 0.0
361 1 50.55037377049181 26.473559344262295 6.19995291373e-05 0.0 0.0 0.0
362 1 53.24108196721312 26.44902032786886 3.18256369026e-05 0.0 0.0 0.0
363 1 55.92118688524591 26.389995409836068 5.9562987542e-05 0.0 0.0 0.0
364 1 58.56291803278689 26.213779016393445 8.68487073203e-05 0.0 0.0 0.0
365 1 61.25059672131148 26.28249836065574 6.81947480628e-05 0.0 0.0 0.0
366 1 64.14579672131148 26.27598491803279 2.31710001901e-05 0.0 0.0 0.0
367 1 66.86730491803279 26.353085901639346 8.78532075387e-06 0.0 0.0 0.0
368 1 69.50954098360656 26.379190163934428 5.31689498438e-05 0.0 0.0 0.0
369 1 72.1300655737705 26.32864786885246 8.80177398713e-05 0.0 0.0 0.0
370 1 74.67889180327869 26.258009836065575 6.03620104836e-05 0.0 0.0 0.0
371 1 77.19590819672132 25.92572327868853 3.65496049064e-05 0.0 0.0 0.0
372 1 79.76392131147541 25.98611147540984 8.69650954474e-05 0.0 0.0 0.0
373 1 0.8864643934426231 28.597345573770493 9.3080615622e-05 0.0 0.0 0.0
374 1 3.5843424262295085 28.171144262295087 8.34292959827e-06 0.0 0.0 0.0
375 1 6.182418360655738 28.134487213114756 4.37555689167e-05 0.0 0.0 0.0
376 1 8.70296918032787 28.291567213114757 3.37169774312e-06 0.0 0.0 0.0
377 1 11.422457704918033 28.014720655737708 5.0015910567e-05 0.0 0.0 0.0
378 1 14.056665573770493 28.32448786885246 9.06285412179e-05 0.0 0.0 0.0
379 1 17.409775737704923 28.40916262295082 8.47310276537e-05 0.0 0.0 0.0
380 1 20.16864786885246 28.629256393442628 4.43359467906e-05 0.0 0.0 0.0
381 1 22.756857704918033 28.87136459016394 5.002938704e-05 0.0 0.0 0.0
382 1 25.434135081967213 28.66116721311476 7.17271903879e-05 0.0 0.0 0.0
383 1 28.046732459016397 28.334788196721316 2.19519635746e-05 0.0 0.0 0.0
384 1 30.719415081967217 28.365184262295084 3.36450974317e-05 0.0 0.0 0.0
385 1 33.25541639344262 28.475963278688525 2.33823913886e-05 0.0 0.0 0.0
386 1 35.8751331147541 28.541299672131153 8.96723021497e-05 0.0 0.0 0.0
387 1 38.55761114754098 28.56705049180328 3.57801559406e-06 0.0 0.0 0.0
388 1 41.25831672131148 28.411030819672135 7.25507978312e-05 0.0 0.0 0.0
389 1 43.86934885245902 28.326608524590167 2.01335392973e-05 0.0 0.0 0.0
390 1 46.46018426229509 28.515447868852462 5.42725027531e-05 0.0 0.0 0.0
391 1 49.12630295081967 28.70034885245902 6.36955450742e-06 0.0 0.0 0.0
392 1 51.85053770491804 28.73155278688525 1.2036909923e-05 0.0 0.0 0.0
393 1 54.577600000000004 28.694845245901643 7.27521541072e-06 0.0 0.0 0.0
394 1 57.254675409836075 28.60759540983607 3.61892487747e-05 0.0 0.0 0.0
395 1 59.83884590163935 28.501714098360658 8.9685143568e-05 0.0 0.0 0.0
396 1 61.91557377049181 27.682838032786886 5.07320937866e-05 0.0 0.0 0.0
397 1 65.5040262295082 28.52938360655738 7.84148139117e-05 0.0 0.0 0.0
398 1 68.14979672131149 28.66636786885246 3.58040542841e-05 0.0 0.0 0.0
399 1 70.80516065573771 28.687826885245904 7.70742272715e-05 0.0 0.0 0.0
400 1 73.4347737704918 28.706710819672132 7.55058723408e-05 0.0 0.0 0.0
401 1 76.86821639344264 28.255263606557378 8.69715430148e-06 0.0 0.0 0.0
402 1 78.40619672131149 28.301362622950823 5.49047205118e-06 0.0 0.0 0.0
403 1 80.99440655737706 28.538926557377053 7.37134400999e-05 0.0 0.0 0.0
404 1 82.65104262295083 30.890834754098364 6.67306096977e-06 0.0 0.0 0.0
405 1 2.661862229508197 30.5621331147541 1.05477725345e-05 0.0 0.0 0.0
406 1 4.947424196721312 31.75808196721312 8.30996809445e-05 0.0 0.0 0.0
407 1 7.658899672131148 30.680536393442626 7.24780215421e-05 0.0 0.0 0.0
408 1 10.228831475409837 30.366679344262298 1.89402345106e-05 0.0 0.0 0.0
409 1 12.677179016393444 31.392268852459022 1.90601731926e-05 0.0 0.0 0.0
410 1 14.90184786885246 29.614300983606558 9.12452611781e-05 0.0 0.0 0.0
411 1 18.549173770491805 30.726029508196724 9.36392213542e-05 0.0 0.0 0.0
412 1 21.254070163934426 31.06831344262295 7.38721087014e-05 0.0 0.0 0.0