ITEM: TIMESTEP
0
ITEM: NUMBER OF ATOMS
2232
ITEM: BOX BOUNDS xy xz yz pp pp pp
0.0 82.68810555352132 0
0.0 83.16 0
-10.0 10.0 0
ITEM: ATOMS id type x y z vx vy vz
1 1 2.0687501639344266 0.918269180327869 2.36833540641e-05 0.0 0.0 0.0
2 1 4.108760393442624 2.3379876065573773 7.63976838714e-06 0.0 0.0 0.0
3 1 6.766255081967214 1.3846619672131149 8.67932332972e-05 0.0 0.0 0.0
4 1 9.336893770491805 0.9942542950819673 3.56270715871e-05 0.0 0.0 0.0
5 1 12.133079344262297 0.9190518032786886 6.20142338818e-05 0.0 0.0 0.0
6 1 14.965820983606559 1.0988884590163934 6.70123136386e-06 0.0 0.0 0.0
7 1 17.395234098360657 1.1254118032786886 4.01442029391e-05 0.0 0.0 0.0
8 1 20.12441704918033 0.995153049180328 5.99918312e-05 0.0 0.0 0.0
9 1 22.884652459016397 0.8976129836065575 8.94082067108e-05 0.0 0.0 0.0
10 1 25.455291147540986 0.4273924131147541 2.79932721479e-06 0.0 0.0 0.0
11 1 28.159985573770495 0.24972690491803282 4.14802116333e-05 0.0 0.0 0.0
12 1 30.73193704918033 0.14851608524590165 2.77240527237e-05 0.0 0.0 0.0
13 1 33.41880786885246 0.12384579016393443 4.03558348782e-05 0.0 0.0 0.0
14 1 36.143396065573775 0.5199140983606558 1.01939106694e-05 0.0 0.0 0.0
15 1 38.719235409836074 0.5290379672131148 8.6657578472e-05 0.0 0.0 0.0
16 1 41.532083278688525 0.4453740590163935 2.42488728691e-05 0.0 0.0 0.0
17 1 44.326905573770496 0.5259832131147542 4.48046160604e-05 0.0 0.0 0.0
18 1 47.032003934426236 0.6824270163934427 5.73423474268e-05 0.0 0.0 0.0
19 1 49.62278885245902 0.7412045245901641 9.64486742476e-05 0.0 0.0 0.0
20 1 52.24184918032787 0.667208786885246 9.87577335224e-05 0.0 0.0 0.0
21 1 54.91084590163935 0.41597015737704923 6.39507856271e-06 0.0 0.0 0.0
22 1 57.73131803278689 0.3970508786885246 7.89212085742e-07 0.0 0.0 0.0
23 1 61.374806557377056 0.3754242295081967 3.84366452483e-05 0.0 0.0 0.0
24 1 62.9516655737705 0.4923425442622951 8.97678922707e-05 0.0 0.0 0.0
25 1 65.78829508196722 0.49239000655737714 1.15571618212e-05 0.0 0.0 0.0
26 1 68.19422950819673 1.7286272786885246 1.25259053515e-05 0.0 0.0 0.0
27 1 71.16062295081969 1.0551272131147542 9.41770580252e-05 0.0 0.0 0.0
28 1 73.78266229508196 1.1704302950819674 2.89244288076e-05 0.0 0.0 0.0
29 1 76.66271475409836 1.140640131147541 3.58827798077e-05 0.0 0.0 0.0
30 1 79.44632786885246 1.5705828852459018 7.62068116373e-05 0.0 0.0 0.0
31 1 82.0552393442623 1.5584194098360657 8.39145262124e-05 0.0 0.0 0.0
32 1 0.8009514754098361 3.4719224262295088 5.62434538456e-05 0.0 0.0 0.0
33 1 3.428211672131148 3.7158937704918036 6.65652938408e-05 0.0 0.0 0.0
34 1 5.856998688524591 3.930776786885246 2.34080311884e-06 0.0 0.0 0.0
35 1 8.238444590163937 3.5445498360655745 5.34373088049e-05 0.0 0.0 0.0
36 1 10.649579672131148 3.1288104262295087 9.54097817687e-05 0.0 0.0 0.0
37 1 13.522159344262295 3.1451596721311477 1.15652347362e-05 0.0 0.0 0.0
38 1 16.42311540983607 3.6755558688524594 5.92072579506e-05 0.0 0.0 0.0
39 1 19.04308459016394 3.289293573770492 6.70534407729e-05 0.0 0.0 0.0
40 1 21.816094426229512 3.1253517377049183 5.00071134655e-05 0.0 0.0 0.0
41 1 24.5855193442623 2.975880852459017 7.67341461154e-05 0.0 0.0 0.0
42 1 27.158783606557378 2.5499219016393444 4.29699458954e-05 0.0 0.0 0.0
43 1 29.833132459016394 2.525236459016394 9.43785455191e-05 0.0 0.0 0.0
44 1 32.2694124590164 2.37122131147541 5.95917958454e-05 0.0 0.0 0.0
45 1 34.55997311475411 3.5476197377049186 7.8545541933e-05 0.0 0.0 0.0
46 1 37.420081311475414 2.9470146885245905 7.57018603347e-05 0.0 0.0 0.0
47 1 40.113112131147545 2.6441547540983605 7.32938589929e-06 0.0 0.0 0.0
48 1 42.88041639344263 2.6674163278688527 2.59695943255e-05 0.0 0.0 0.0
49 1 45.62111147540984 2.893094491803279 3.20145346694e-05 0.0 0.0 0.0
50 1 48.36670426229509 3.1295072131147545 3.49229877321e-05 0.0 0.0 0.0
51 1 50.94471475409837 3.0984295081967215 5.19001547058e-05 0.0 0.0 0.0
52 1 53.71974426229509 2.868070754098361 8.99309052485e-05 0.0 0.0 0.0
53 1 56.372078688524596 2.56680131147541 1.360963539e-05 0.0 0.0 0.0
54 1 58.69217704918033 3.9175479344262296 6.25883538668e-05 0.0 0.0 0.0
55 1 61.41873442622952 2.8715142950819676 2.6697950891e-05 0.0 0.0 0.0
56 1 64.36644590163935 2.7584631475409838 6.70057876043e-05 0.0 0.0 0.0
57 1 67.25861639344262 2.9751386229508197 6.02807431898e-06 0.0 0.0 0.0
58 1 69.87005245901639 3.3097225573770497 1.89379708409e-05 0.0 0.0 0.0
59 1 72.51026885245902 3.4483730491803284 6.11306247096e-05 0.0 0.0 0.0
60 1 75.14139672131148 3.2118189508196724 7.36034096855e-05 0.0 0.0 0.0
61 1 77.86997377049181 3.586341901639345 4.79858238579e-05 0.0 0.0 0.0
62 1 80.78890491803278 3.9288984918032788 5.8438902967e-05 0.0 0.0 0.0
63 1 1.8611531147540985 5.904511475409837 8.65326588722e-05 0.0 0.0 0.0
64 1 4.558430295081967 6.261942950819672 7.081643779e-05 0.0 0.0 0.0
65 1 7.124999344262296 6.205291147540984 8.07402157793e-05 0.0 0.0 0.0
66 1 9.60121836065574 5.78696655737705 1.23214265628e-05 0.0 0.0 0.0
67 1 12.155497704918034 5.14476131147541 9.81133701228e-05 0.0 0.0 0.0
68 1 14.35673836065574 4.431655475409836 2.07617076123e-06 0.0 0.0 0.0
69 1 18.03148131147541 5.779847213114755 4.0714165334e-05 0.0 0.0 0.0
70 1 20.634283278688525 5.377680000000001 4.87083602591e-05 0.0 0.0 0.0
71 1 23.343269508196723 5.251753442622951 9.91077503582e-05 0.0 0.0 0.0
72 1 26.92919737704918 4.809117049180328 8.0334799707e-05 0.0 0.0 0.0
73 1 28.469298360655742 4.803058032786885 9.53459152047e-05 0.0 0.0 0.0
74 1 31.107848524590164 4.93740662295082 4.73267744682e-05 0.0 0.0 0.0
75 1 33.89388524590164 4.925697573770492 1.65492917221e-05 0.0 0.0 0.0
76 1 36.06927409836066 6.500920655737706 9.7711245016e-05 0.0 0.0 0.0
77 1 39.673429508196726 4.85403455737705 5.88718032483e-05 0.0 0.0 0.0
78 1 41.21529770491804 4.818877114754098 7.36027727025e-05 0.0 0.0 0.0
79 1 43.83991213114754 4.969842557377049 7.53709020886e-05 0.0 0.0 0.0
80 1 46.633219672131155 5.238979016393443 6.01871319816e-06 0.0 0.0 0.0
81 1 49.78067672131148 5.593582950819673 7.56010562184e-05 0.0 0.0 0.0
82 1 52.501881967213116 5.220297049180329 3.12489480884e-06 0.0 0.0 0.0
83 1 55.24257704918033 5.060288524590165 2.83788926728e-05 0.0 0.0 0.0
84 1 57.910563934426236 5.23872655737705 9.80783907144e-05 0.0 0.0 0.0
85 1 60.573501639344265 5.331227540983607 1.76569834883e-05 0.0 0.0 0.0
86 1 63.15211803278689 4.943223278688525 1.72810253826e-05 0.0 0.0 0.0
87 1 65.72669508196722 5.049432786885247 3.56767070824e-05 0.0 0.0 0.0
88 1 68.36691147540984 5.458618360655739 7.05224873952e-05 0.0 0.0 0.0
89 1 71.13487213114755 5.700676065573771 6.25728445754e-05 0.0 0.0 0.0
90 1 74.67182295081969 5.4253442622950825 8.40453487427e-05 0.0 0.0 0.0
91 1 76.19869508196723 5.540465573770493 9.02454146851e-05 0.0 0.0 0.0
92 1 78.37337704918033 5.057561967213116 2.00244604915e-05 0.0 0.0 0.0
93 1 82.0017180327869 5.899815737704919 4.89830753373e-05 0.0 0.0 0.0
94 1 0.2751197377049181 8.261418360655737 8.75420962777e-06 0.0 0.0 0.0
95 1 2.986847672131148 8.298782295081969 1.14779320775e-06 0.0 0.0 0.0
96 1 5.7401101639344265 8.624100983606558 3.07219077978e-06 0.0 0.0 0.0
97 1 8.582899672131148 8.413701639344263 7.85465806064e-06 0.0 0.0 0.0
98 1 12.209978360655738 7.208664262295082 1.91152785545e-05 0.0 0.0 0.0
99 1 13.734426885245902 7.231688524590164 1.30723969006e-05 0.0 0.0 0.0
100 1 15.772225573770495 6.690012459016394 9.22197883565e-05 0.0 0.0 0.0
101 1 19.312862295081967 7.860765901639345 7.64509034994e-06 0.0 0.0 0.0
102 1 21.689612459016395 7.529741639344263 9.63772793792e-05 0.0 0.0 0.0
103 1 24.413544262295087 7.41896262295082 7.89315177073e-05 0.0 0.0 0.0
104 1 26.977518032786886 7.526358688524591 5.01458221157e-05 0.0 0.0 0.0
105 1 29.60309180327869 7.24113049180328 6.6224524524e-05 0.0 0.0 0.0
106 1 32.37292065573771 7.176955409836066 4.89390732023e-05 0.0 0.0 0.0
107 1 35.071960000000004 7.6645042622950825 2.84779149206e-05 0.0 0.0 0.0
108 1 37.501726557377054 8.143368524590164 6.82223013432e-05 0.0 0.0 0.0
109 1 39.884485245901644 7.580435409836066 4.3189387983e-05 0.0 0.0 0.0
110 1 42.487994098360666 7.248148852459018 8.51621968665e-05 0.0 0.0 0.0
111 1 45.0822124590164 7.239716721311476 8.6581674557e-05 0.0 0.0 0.0
112 1 47.41902360655738 6.562419672131148 5.06279073959e-05 0.0 0.0 0.0
113 1 51.36480655737705 7.6493567213114755 9.34564617117e-05 0.0 0.0 0.0
114 1 54.00704262295083 7.38972786885246 1.42049100917e-05 0.0 0.0 0.0
115 1 56.593737704918034 7.481774426229509 5.82571149371e-05 0.0 0.0 0.0
116 1 59.233954098360655 7.536860983606558 7.88204496318e-05 0.0 0.0 0.0
117 1 61.882249180327875 7.463092459016393 3.66437406425e-05 0.0 0.0 0.0
118 1 64.34978360655738 7.4100255737704925 5.44497886811e-05 0.0 0.0 0.0
119 1 66.8976 7.5678629508196735 7.95974829195e-05 0.0 0.0 0.0
120 1 69.48177049180329 7.76932524590164 5.32477560628e-05 0.0 0.0 0.0
121 1 72.13460983606558 8.07843606557377 1.65994512166e-05 0.0 0.0 0.0
122 1 74.83794098360656 8.018956721311476 1.98635084082e-05 0.0 0.0 0.0
123 1 77.57863606557378 7.9223659016393455 2.84691685142e-05 0.0 0.0 0.0
124 1 80.31327213114756 8.090705573770494 2.40553377279e-06 0.0 0.0 0.0
125 1 1.7346459016393445 10.526985573770492 1.70804945378e-05 0.0 0.0 0.0
126 1 4.421693442622952 11.43689836065574 8.61534420138e-05 0.0 0.0 0.0
127 1 7.271476065573772 10.712593442622952 3.08241744908e-05 0.0 0.0 0.0
128 1 10.928344918032787 10.125020327868855 4.21402658896e-05 0.0 0.0 0.0
129 1 12.42436655737705 9.86185704918033 5.84432108828e-05 0.0 0.0 0.0
130 1 15.053777704918033 9.704575081967214 5.34726532925e-05 0.0 0.0 0.0
131 1 17.756452459016398 10.03660918032787 1.04685120391e-05 0.0 0.0 0.0
132 1 20.56712918032787 10.17525967213115 8.0530568051e-05 0.0 0.0 0.0
133 1 23.30807672131148 9.627070163934428 1.89414022972e-05 0.0 0.0 0.0
134 1 25.711739016393448 10.813021639344264 6.45672374474e-05 0.0 0.0 0.0
135 1 28.400326557377053 9.772032131147542 6.36329584076e-05 0.0 0.0 0.0
136 1 30.98959672131148 9.435453770491804 9.95002374146e-05 0.0 0.0 0.0
137 1 33.598306229508204 9.655295081967214 5.45181603821e-05 0.0 0.0 0.0
138 1 36.09936721311476 10.283615081967215 7.76218985437e-05 0.0 0.0 0.0
139 1 38.811534426229514 10.253673442622953 1.41437574093e-05 0.0 0.0 0.0
140 1 41.3871718032787 9.744312131147542 7.62060442717e-05 0.0 0.0 0.0
141 1 44.00148590163935 9.581728524590165 2.04948929813e-05 0.0 0.0 0.0
142 1 46.671088524590175 9.318817704918033 9.59147260314e-05 0.0 0.0 0.0
143 1 48.99108590163935 8.489742295081967 4.64094401353e-05 0.0 0.0 0.0
144 1 52.59529180327869 9.800105573770495 9.95623616635e-05 0.0 0.0 0.0
145 1 54.97244590163935 9.784301639344264 7.15468094075e-05 0.0 0.0 0.0
146 1 58.68005901639345 9.628685901639345 5.19261220621e-05 0.0 0.0 0.0
147 1 60.223593442622956 9.743756721311476 3.51729019986e-05 0.0 0.0 0.0
148 1 62.8511868852459 9.874227540983608 1.77478556074e-05 0.0 0.0 0.0
149 1 65.51967868852459 9.891546229508197 9.92476211454e-05 0.0 0.0 0.0
150 1 68.14676721311477 10.0370131147541 9.74632674454e-05 0.0 0.0 0.0
151 1 70.72689836065574 10.187781639344262 9.98933265853e-05 0.0 0.0 0.0
152 1 73.481731147541 10.270487213114755 8.52005836047e-05 0.0 0.0 0.0
153 1 76.16940983606558 10.28952262295082 5.71287106523e-05 0.0 0.0 0.0
154 1 78.89495737704918 10.32956262295082 8.26013456922e-05 0.0 0.0 0.0
155 1 81.66796721311476 10.533448524590165 1.43705384898e-06 0.0 0.0 0.0
156 1 0.17933375737704918 12.868189508196723 3.02570569968e-05 0.0 0.0 0.0
157 1 4.225749901639345 12.946906229508198 7.70762556735e-05 0.0 0.0 0.0
158 1 5.753187540983607 13.024815081967214 4.36697086326e-06 0.0 0.0 0.0
159 1 9.29857049180328 12.868542950819673 8.10248010082e-05 0.0 0.0 0.0
160 1 10.823877377049183 12.70459606557377 5.93101192731e-05 0.0 0.0 0.0
161 1 13.605672786885247 12.212401967213117 7.12177292876e-05 0.0 0.0 0.0
162 1 16.278809836065573 12.23880918032787 4.35540079144e-05 0.0 0.0 0.0
163 1 19.012234098360658 12.356707540983608 3.08550326747e-05 0.0 0.0 0.0
164 1 23.065766557377053 11.736415737704919 8.60260072999e-05 0.0 0.0 0.0
165 1 24.61460262295082 11.884760655737706 3.54787908828e-06 0.0 0.0 0.0
166 1 27.118642622950823 12.358777704918035 7.98332675126e-05 0.0 0.0 0.0
167 1 30.518457704918035 11.790643934426232 9.46437848595e-05 0.0 0.0 0.0
168 1 32.057397377049185 11.856636721311476 6.32931515666e-05 0.0 0.0 0.0
169 1 34.63747803278689 12.308386885245902 9.34744088745e-06 0.0 0.0 0.0
170 1 37.397410491803285 12.496670819672133 3.2530900589e-05 0.0 0.0 0.0
171 1 40.13936786885246 12.301318032786886 7.82376779234e-05 0.0 0.0 0.0
172 1 42.8075062295082 11.999579016393444 2.10400326747e-06 0.0 0.0 0.0
173 1 45.506596065573774 11.739546229508198 2.98213176929e-06 0.0 0.0 0.0
174 1 48.174633442622955 11.38448786885246 5.85075916054e-05 0.0 0.0 0.0
175 1 50.92451803278689 11.825079344262296 9.60514285198e-05 0.0 0.0 0.0
176 1 53.57937704918033 12.299550819672133 7.85438174752e-05 0.0 0.0 0.0
177 1 55.993390163934436 12.312729180327871 9.81540903459e-05 0.0 0.0 0.0
178 1 58.61896393442624 13.29994491803279 8.50112413556e-05 0.0 0.0 0.0
179 1 61.417219672131154 12.181299016393444 9.17701122163e-05 0.0 0.0 0.0
180 1 64.16144918032788 12.196446557377051 8.21232816921e-05 0.0 0.0 0.0
181 1 66.87841311475411 12.303388196721313 6.24928327171e-05 0.0 0.0 0.0
182 1 69.61658360655738 12.463548196721312 7.23464417876e-05 0.0 0.0 0.0
183 1 72.35879344262295 12.383720655737706 2.57407010148e-05 0.0 0.0 0.0
184 1 74.65819016393444 13.651620327868853 7.46836504689e-05 0.0 0.0 0.0
185 1 77.45745573770493 12.632897704918035 4.51172186571e-05 0.0 0.0 0.0
186 1 80.20471475409838 12.705504918032787 2.96118280037e-05 0.0 0.0 0.0
187 1 1.1061289836065575 15.286292459016394 6.65809635177e-05 0.0 0.0 0.0
188 1 3.762669377049181 15.21716918032787 4.82818631299e-05 0.0 0.0 0.0
189 1 6.718893770491804 15.598836721311477 7.63978541273e-05 0.0 0.0 0.0
190 1 9.425153442622952 15.163849836065575 4.10640756593e-05 0.0 0.0 0.0
191 1 12.243353442622952 14.691095081967214 7.33995467288e-05 0.0 0.0 0.0
192 1 14.805862950819673 14.617427540983607 5.66441846115e-05 0.0 0.0 0.0
193 1 17.438707540983607 14.638735081967214 8.00442591485e-05 0.0 0.0 0.0
194 1 21.008528524590165 14.37678360655738 5.34586714209e-05 0.0 0.0 0.0
195 1 22.531209836065575 14.257875409836068 9.50967814598e-05 0.0 0.0 0.0
196 1 25.309874754098363 14.457469508196722 7.96746822212e-05 0.0 0.0 0.0
197 1 27.98997967213115 14.761682622950822 9.36051942874e-05 0.0 0.0 0.0
198 1 30.56748524590164 14.559462950819674 4.67127021729e-05 0.0 0.0 0.0
199 1 33.294244590163935 14.439443934426231 5.29342792437e-05 0.0 0.0 0.0
200 1 36.03408131147542 14.616468196721312 6.61909240107e-05 0.0 0.0 0.0
201 1 38.787500327868855 14.622224262295083 9.07598748655e-05 0.0 0.0 0.0
202 1 41.4745731147541 14.426871475409838 8.56057641758e-05 0.0 0.0 0.0
203 1 44.194213114754106 14.137099016393444 7.57896874469e-06 0.0 0.0 0.0
204 1 46.75192590163935 13.87888393442623 3.77436030644e-05 0.0 0.0 0.0
205 1 49.30448852459017 13.83005836065574 9.74472118714e-05 0.0 0.0 0.0
206 1 52.0176655737705 14.375420327868854 2.03893116136e-05 0.0 0.0 0.0
207 1 55.05727213114755 14.801116721311477 6.76978437942e-07 0.0 0.0 0.0
208 1 57.79998688524591 14.605259016393443 3.15758820984e-05 0.0 0.0 0.0
209 1 60.3720393442623 14.595514098360658 6.39851016219e-05 0.0 0.0 0.0
210 1 62.91935081967214 14.440807213114756 3.78763930745e-05 0.0 0.0 0.0
211 1 65.50907540983607 14.522099016393444 8.65551183296e-05 0.0 0.0 0.0
212 1 68.2336131147541 14.635907540983608 8.41553827829e-05 0.0 0.0 0.0
213 1 71.00106885245903 14.697255081967215 1.1876244093e-05 0.0 0.0 0.0
214 1 73.81699672131148 14.951531803278689 9.19837323167e-05 0.0 0.0 0.0
215 1 76.28554098360657 15.086546885245903 3.95991631213e-05 0.0 0.0 0.0
216 1 78.79346885245901 14.940070163934427 9.47686395444e-05 0.0 0.0 0.0
217 1 81.1771868852459 15.152842622950821 9.08413743966e-06 0.0 0.0 0.0
218 1 82.4364524590164 17.573621639344267 4.54401335224e-06 0.0 0.0 0.0
219 1 2.5063171803278688 17.535853770491805 9.25141112039e-05 0.0 0.0 0.0
220 1 5.174955409836066 17.36928131147541 3.49598390749e-05 0.0 0.0 0.0
221 1 9.246462950819673 17.202405901639345 1.40105397024e-05 0.0 0.0 0.0
222 1 10.790906229508199 17.054616393442625 9.51838596916e-05 0.0 0.0 0.0
223 1 13.370582950819673 17.11030885245902 1.63542843515e-06 0.0 0.0 0.0
224 1 16.004386885245903 17.02013049180328 6.68156456296e-05 0.0 0.0 0.0
225 1 18.658993442622954 17.19907344262295 2.21925514255e-05 0.0 0.0 0.0
226 1 21.132637377049182 16.770751475409835 4.54463559882e-05 0.0 0.0 0.0
227 1 23.941092459016396 16.57272262295082 3.10117732798e-05 0.0 0.0 0.0
228 1 26.620793442622954 16.87062426229508 6.60318602801e-05 0.0 0.0 0.0
229 1 29.381180327868854 17.001549508196725 4.71406462483e-05 0.0 0.0 0.0
230 1 32.05376196721312 16.763581639344263 2.86814877592e-05 0.0 0.0 0.0
231 1 34.74492459016394 16.775800655737708 9.91487295109e-05 0.0 0.0 0.0
232 1 37.50071672131148 16.854769836065575 5.02334459296e-05 0.0 0.0 0.0
233 1 40.178953442622955 16.811346885245904 9.73722197837e-05 0.0 0.0 0.0
234 1 42.899603278688524 16.507133770491805 7.92210105186e-05 0.0 0.0 0.0
235 1 45.423385573770496 16.402060327868853 5.45655730041e-05 0.0 0.0 0.0
236 1 47.903088524590174 16.253109508196722 5.55242117706e-05 0.0 0.0 0.0
237 1 50.54128524590164 16.280829508196724 6.8743661582e-05 0.0 0.0 0.0
238 1 52.747777049180335 15.750463606557378 9.4634470542e-05 0.0 0.0 0.0
239 1 56.29987540983607 16.934445901639346 8.24120871453e-05 0.0 0.0 0.0
240 1 58.922419672131156 16.921065573770495 6.8796450342e-05 0.0 0.0 0.0
241 1 61.54849836065574 16.881025573770494 6.80945756258e-05 0.0 0.0 0.0
242 1 64.02815081967213 16.843358688524592 8.67333636085e-05 0.0 0.0 0.0
243 1 66.66786229508197 16.827807213114756 8.38575744165e-05 0.0 0.0 0.0
244 1 69.48934426229509 16.90036393442623 7.07670645646e-05 0.0 0.0 0.0
245 1 72.18156721311476 17.000388196721314 8.42237514955e-05 0.0 0.0 0.0
246 1 75.06313442622951 17.45249180327869 1.3115305052e-05 0.0 0.0 0.0
247 1 77.65487868852459 17.413259672131147 1.05811404232e-05 0.0 0.0 0.0
248 1 79.73564590163936 18.933820327868855 9.2882558541e-06 0.0 0.0 0.0
249 1 1.6234831475409837 19.68857180327869 5.04826190359e-05 0.0 0.0 0.0
250 1 4.114986032786886 19.70927344262295 6.68345469233e-05 0.0 0.0 0.0
251 1 6.490923278688525 19.59031475409836 7.15459059322e-05 0.0 0.0 0.0
252 1 9.021824918032786 20.766167868852463 1.03632386295e-05 0.0 0.0 0.0
253 1 11.753431475409837 19.522049836065577 4.4321341691e-05 0.0 0.0 0.0
254 1 14.879025573770493 19.44954360655738 4.16104951868e-05 0.0 0.0 0.0
255 1 17.566502295081968 19.40364655737705 2.93304092919e-05 0.0 0.0 0.0
256 1 21.030139016393445 19.030714098360658 5.77824097148e-05 0.0 0.0 0.0
257 1 22.553931147540986 18.816881311475413 8.37706596927e-05 0.0 0.0 0.0
258 1 25.239590163934427 19.003902950819672 1.16937768412e-05 0.0 0.0 0.0
259 1 28.059961311475416 19.145481967213115 8.46323237888e-05 0.0 0.0 0.0
260 1 30.828881311475413 19.173302950819675 4.19712559755e-05 0.0 0.0 0.0
261 1 33.4343593442623 19.06302885245902 6.56244954461e-05 0.0 0.0 0.0
262 1 36.17924524590164 19.04788131147541 6.55968945319e-05 0.0 0.0 0.0
263 1 38.8395068852459 19.14881442622951 9.87908175288e-05 0.0 0.0 0.0
264 1 42.26845573770492 18.732459016393445 5.02363041673e-05 0.0 0.0 0.0
265 1 43.79653967213115 18.8228393442623 9.48803258689e-05 0.0 0.0 0.0
266 1 46.70567540983607 18.782748852459015 7.75045287517e-05 0.0 0.0 0.0
267 1 49.38805245901639 18.555636721311476 1.77469630443e-05 0.0 0.0 0.0
268 1 51.93940327868853 18.576085901639345 2.76627685968e-05 0.0 0.0 0.0
269 1 54.495298360655745 19.084184918032786 3.4025209321e-05 0.0 0.0 0.0
270 1 58.240780327868855 19.11917573770492 5.33077427377e-05 0.0 0.0 0.0
271 1 59.787344262295086 19.13189967213115 5.32366948974e-05 0.0 0.0 0.0
272 1 62.4356393442623 19.268328524590164 8.12168853341e-05 0.0 0.0 0.0
273 1 64.96022950819673 19.12225573770492 3.03923690069e-06 0.0 0.0 0.0
274 1 67.66255081967213 18.958914754098362 9.88257987178e-05 0.0 0.0 0.0
275 1 70.686 19.260148852459018 6.25471035229e-05 0.0 0.0 0.0
276 1 73.38428196721313 19.24727344262295 2.11986274176e-06 0.0 0.0 0.0
277 1 76.16739016393443 19.858224262295085 3.49110155366e-05 0.0 0.0 0.0
278 1 79.3256524590164 20.481798032786887 9.04938195984e-05 0.0 0.0 0.0
279 1 81.87801311475411 19.928963278688528 1.2821928672e-05 0.0 0.0 0.0
280 1 0.7408157377049182 22.198771803278692 7.30435078498e-05 0.0 0.0 0.0
281 1 3.13830793442623 22.080116065573772 5.15759076953e-05 0.0 0.0 0.0
282 1 5.6655337704918045 22.090062950819675 6.42270175818e-05 0.0 0.0 0.0
283 1 8.350334426229509 22.141918032786887 9.8338495363e-05 0.0 0.0 0.0
284 1 10.595502950819673 21.98286885245902 5.71861945271e-05 0.0 0.0 0.0
285 1 12.607954754098364 20.81464 6.91788630323e-05 0.0 0.0 0.0
286 1 16.21014098360656 21.68986491803279 9.11475995873e-05 0.0 0.0 0.0
287 1 18.618801967213116 21.902889836065576 9.02686147545e-05 0.0 0.0 0.0
288 1 21.10264524590164 21.667800000000003 1.73465192309e-05 0.0 0.0 0.0
289 1 23.88772262295082 21.20928393442623 7.28892743539e-05 0.0 0.0 0.0
290 1 26.72415016393443 21.230490491803284 9.22157200704e-05 0.0 0.0 0.0
291 1 29.577744918032792 21.376260327868856 5.56985459561e-05 0.0 0.0 0.0
292 1 32.30839213114754 21.483605901639343 9.60446766341e-05 0.0 0.0 0.0
293 1 34.88473639344263 21.276488524590167 1.89400418273e-05 0.0 0.0 0.0
294 1 37.51293573770492 21.411604590163936 1.38247874439e-05 0.0 0.0 0.0
295 1 39.94467147540984 21.700619672131147 6.05996175596e-05 0.0 0.0 0.0
296 1 42.29562032786886 21.38070360655738 8.89594448988e-05 0.0 0.0 0.0
297 1 44.416326557377054 20.242921311475413 4.18867933043e-05 0.0 0.0 0.0
298 1 48.153477377049185 20.900021639344263 9.57404261299e-05 0.0 0.0 0.0
299 1 50.59278688524591 20.957380327868854 4.49419917279e-05 0.0 0.0 0.0
300 1 52.47815081967214 22.49990491803279 5.10276617813e-05 0.0 0.0 0.0
301 1 55.33295737704918 21.664921967213118 7.14789216132e-05 0.0 0.0 0.0
302 1 58.029724590163944 21.55883868852459 4.08541937606e-05 0.0 0.0 0.0
303 1 60.89412459016394 21.527533770491804 4.95822720958e-05 0.0 0.0 0.0
304 1 63.63179016393443 21.616500327868856 2.9085647998e-05 0.0 0.0 0.0
305 1 67.013731147541 21.10315016393443 1.85026930439e-05 0.0 0.0 0.0
306 1 68.3224786885246 20.326687213114756 1.17175007251e-05 0.0 0.0 0.0
307 1 71.69381639344263 21.44962491803279 2.20415059413e-05 0.0 0.0 0.0
308 1 74.14064918032787 21.51975803278689 2.24780053608e-05 0.0 0.0 0.0
309 1 76.59808524590166 21.3638393442623 2.9413601796e-06 0.0 0.0 0.0
310 1 80.93634098360656 22.44638360655738 7.818244374e-05 0.0 0.0 0.0
311 1 1.8379824262295084 24.585620327868856 4.69947223878e-05 0.0 0.0 0.0
312 1 4.3198969180327875 24.46024918032787 4.15110840792e-05 0.0 0.0 0.0
313 1 6.928232786885247 24.37436262295082 6.78789419164e-05 0.0 0.0 0.0
314 1 9.436716065573771 24.61929836065574 8.29010557873e-05 0.0 0.0 0.0
315 1 12.043506885245902 23.804865573770496 7.16163046412e-05 0.0 0.0 0.0
316 1 14.7062931147541 23.772449836065576 8.60858302686e-05 0.0 0.0 0.0
317 1 17.245273442622953 24.259594754098362 4.52281880482e-05 0.0 0.0 0.0
318 1 19.930175081967214 24.190521967213115 3.07799052444e-05 0.0 0.0 0.0
319 1 22.67001180327869 23.588457704918035 5.27123932309e-05 0.0 0.0 0.0
320 1 25.43044918032787 23.35644786885246 3.9209676305e-05 0.0 0.0 0.0
321 1 28.196188196721312 23.42072393442623 1.13672164801e-05 0.0 0.0 0.0
322 1 31.015297049180333 23.70307409836066 9.18514287521e-05 0.0 0.0 0.0
323 1 34.45969639344262 23.55553704918033 6.36367261909e-05 0.0 0.0 0.0
324 1 36.00479606557377 23.641171147540987 1.17001636245e-05 0.0 0.0 0.0
325 1 38.68626426229508 24.009205901639348 3.37945614422e-05 0.0 0.0 0.0
326 1 41.50385836065574 24.007539672131152 9.91970026764e-05 0.0 0.0 0.0
327 1 44.16230229508197 23.18563409836066 2.2095073428e-05 0.0 0.0 0.0
328 1 46.84058950819672 22.984222295081967 4.08239895249e-06 0.0 0.0 0.0
329 1 48.81774754098361 24.66282229508197 1.33527398239e-05 0.0 0.0 0.0
330 1 51.65967868852459 23.851065573770494 3.08159762635e-05 0.0 0.0 0.0
331 1 54.23980983606558 24.009963278688527 3.95690527305e-05 0.0 0.0 0.0
332 1 56.96131803278689 23.856922622950822 1.90137805669e-05 0.0 0.0 0.0
333 1 59.65404590163935 23.705144262295086 9.11100925687e-05 0.0 0.0 0.0
334 1 62.21700983606558 23.84818754098361 6.77640936514e-05 0.0 0.0 0.0
335 1 64.70373114754099 24.057324590163937 7.69094120909e-05 0.0 0.0 0.0
336 1 67.25306229508197 23.803350819672133 2.46839516918e-05 0.0 0.0 0.0
337 1 70.04374426229509 23.554476721311477 5.48776126677e-05 0.0 0.0 0.0
338 1 72.73192786885247 23.893226229508198 9.27498867109e-05 0.0 0.0 0.0
339 1 75.46252459016395 23.84187606557377 3.97297433502e-06 0.0 0.0 0.0
340 1 78.85456393442624 22.012356065573773 6.49965425582e-05 0.0 0.0 0.0
341 1 81.8199475409836 24.609099016393444 1.44452432712e-05 0.0 0.0 0.0
342 1 0.4418512459016394 26.817156065573773 8.76361886807e-06 0.0 0.0 0.0
343 1 3.1484012459016397 26.939245245901645 8.13003933651e-05 0.0 0.0 0.0
344 1 5.70572524590164 26.731572459016395 7.99803612502e-05 0.0 0.0 0.0
345 1 7.745089180327869 28.115401311475413 9.764271002e-05 0.0 0.0 0.0
346 1 11.478352131147542 26.32829442622951 8.36514904904e-05 0.0 0.0 0.0
347 1 12.978817049180329 26.023929836065577 4.61590067898e-05 0.0 0.0 0.0
348 1 15.497903606557378 26.364951475409836 5.32528554989e-05 0.0 0.0 0.0
349 1 18.5617462295082 26.520668196721317 8.06281887116e-05 0.0 0.0 0.0
350 1 21.727430819672133 26.006257704918035 5.7967502171e-06 0.0 0.0 0.0
351 1 24.378957377049183 25.63696065573771 3.75068738345e-06 0.0 0.0 0.0
352 1 26.85537836065574 25.583994754098363 9.39312927391e-05 0.0 0.0 0.0
353 1 29.435257049180333 25.681342950819676 1.01016015131e-05 0.0 0.0 0.0
354 1 31.947577704918036 26.281841967213115 3.02526086471e-05 0.0 0.0 0.0
355 1 34.399712131147545 26.260685901639345 6.92152268494e-05 0.0 0.0 0.0
356 1 37.179386885245904 26.135062295081973 3.81158919317e-05 0.0 0.0 0.0
357 1 40.00622098360656 26.224129836065575 9.38740221481e-05 0.0 0.0 0.0
358 1 43.83425704918033 25.599748196721315 9.30011536081e-05 0.0 0.0 0.0
359 1 45.385365245901646 25.428076065573773 8.62806886448e-05 0.0 0.0 0.0
360 1 47.996346885245906 26.011205901639347 7.3356873628e-05 0.0 0.0 0.0
361 1 50.33113836065574 26.318398032786888 2.56970045838e-05 0.0 0.0 0.0
362 1 52.928032786885254 26.278761967213118 2.49048358248e-07 0.0 0.0 0.0
363 1 55.726793442622956 26.142434098360656 7.36313377294e-05 0.0 0.0 0.0
364 1 58.444767213114766 26.040137704918035 8.62420579987e-05 0.0 0.0 0.0
365 1 61.0728655737705 26.16808393442623 9.5514702575e-05 0.0 0.0 0.0
366 1 63.51414426229508 26.38408786885246 8.97180174181e-05 0.0 0.0 0.0
367 1 66.07862295081968 26.291738360655742 8.38614255161e-05 0.0 0.0 0.0
368 1 68.83749508196722 25.88154295081967 6.20074480587e-05 0.0 0.0 0.0
369 1 71.49588852459017 25.983485901639348 4.39944959103e-05 0.0 0.0 0.0
370 1 74.16640000000001 26.08138950819672 1.46880775846e-05 0.0 0.0 0.0
371 1 76.97475409836066 25.760110163934428 6.56558030669e-05 0.0 0.0 0.0
372 1 80.32539016393444 26.326224262295085 1.42878861597e-05 0.0 0.0 0.0
373 1 1.6265429508196723 29.12195540983607 9.95587053569e-05 0.0 0.0 0.0
374 1 4.288905049180329 29.22819016393443 2.74053273443e-05 0.0 0.0 0.0
375 1 6.863300327868854 29.389662950819677 6.70758597189e-05 0.0 0.0 0.0
376 1 9.272718688524591 29.664489836065577 5.48451091708e-05 0.0 0.0 0.0
377 1 11.608318032786887 28.963158688524594 3.17811587058e-05 0.0 0.0 0.0
378 1 14.174866885245903 28.566899016393446 7.63502183549e-05 0.0 0.0 0.0
379 1 16.156417704918034 27.75423344262295 7.07269344278e-05 0.0 0.0 0.0
380 1 19.54623540983607 27.678293770491806 7.99036315959e-05 0.0 0.0 0.0
381 1 23.221634754098364 28.048802622950824 6.47403886522e-05 0.0 0.0 0.0
382 1 25.795605901639348 28.02274885245902 3.26448805165e-05 0.0 0.0 0.0
383 1 28.257889180327872 27.957361967213117 8.66236758355e-05 0.0 0.0 0.0
384 1 30.43555016393443 29.480952131147543 1.75383958752e-05 0.0 0.0 0.0
385 1 33.20936786885246 28.727917377049184 3.46351870148e-06 0.0 0.0 0.0
386 1 35.77743147540984 28.445668196721314 2.53775201045e-05 0.0 0.0 0.0
387 1 38.404570491803284 28.377302295081968 4.0499354871e-05 0.0 0.0 0.0
388 1 41.08386754098361 28.464047213114757 6.76326491414e-05 0.0 0.0 0.0
389 1 43.60275213114755 28.27066360655738 3.6858853294e-05 0.0 0.0 0.0
390 1 46.28290754098361 28.104242622950824 4.11667717402e-05 0.0 0.0 0.0
391 1 48.82915868852459 28.70958885245902 2.53569621376e-05 0.0 0.0 0.0
392 1 51.77833442622951 28.644403934426233 4.53410116624e-05 0.0 0.0 0.0
393 1 54.55134426229509 28.334283278688527 8.15472820659e-05 0.0 0.0 0.0
394 1 57.212767213114766 28.313430163934427 1.75120027824e-05 0.0 0.0 0.0
395 1 59.75351475409837 28.417594754098364 9.0113740367e-05 0.0 0.0 0.0
396 1 62.280629508196725 28.766038688524592 7.19274671298e-06 0.0 0.0 0.0
397 1 64.89156065573772 28.738217704918036 7.70387039928e-05 0.0 0.0 0.0
398 1 67.5792393442623 28.248093770491806 1.31707159257e-05 0.0 0.0 0.0
399 1 70.33861639344262 28.234662950819676 9.83540049681e-05 0.0 0.0 0.0
400 1 72.90561967213115 28.33998885245902 3.09529570082e-05 0.0 0.0 0.0
401 1 75.54179672131148 28.06778754098361 8.42553162374e-06 0.0 0.0 0.0
402 1 77.83866885245902 27.067645901639345 9.05331955807e-05 0.0 0.0 0.0
403 1 81.58667540983608 28.66596393442623 6.43976041412e-05 0.0 0.0 0.0
404 1 82.66063606557378 31.085834098360657 8.58493870083e-05 0.0 0.0 0.0
405 1 2.71819593442623 31.48391147540984 2.82682780043e-05 0.0 0.0 0.0
406 1 5.331782950819672 31.69951147540984 2.26965532094e-05 0.0 0.0 0.0
407 1 7.958366557377049 31.957575081967217 1.88400718686e-05 0.0 0.0 0.0
408 1 10.762832786885246 31.693906885245905 7.48229355687e-05 0.0 0.0 0.0
409 1 13.356394754098362 31.064930491803285 4.94286635715e-05 0.0 0.0 0.0
410 1 16.00181180327869 30.6699331147541 4.73794499501e-06 0.0 0.0 0.0
411 1 18.720088524590164 30.463724590163938 6.16820816099e-05 0.0 0.0 0.0