# input file

2232 atoms
1 atom types

0.0 82.68810555352132 xlo xhi
0.0 83.16 ylo yhi
-10.0 10.0 zlo zhi
0.0 0.0 0.0 xy xz yz

Masses

1 12.0100 #C

Atoms

1 1 1.3661718688524591 1.3510546229508198 8.402926401556392e-05
2 1 3.8952608524590167 1.4982584262295084 3.697513267092291e-05
3 1 6.546363278688525 1.2065369836065576 9.550752129411893e-05
4 1 9.265498360655739 0.9887658360655739 5.8978066904170846e-05
5 1 11.877742295081969 0.766965442622951 9.058321396671979e-05
6 1 15.438474754098362 0.11637754754098362 7.314381354495374e-05
7 1 16.97504131147541 0.032329194754098366 6.579658330417294e-05
8 1 19.6804931147541 0.4617233049180329 6.07896631155587e-05
9 1 22.57069442622951 0.8140793442622952 3.8005801622208045e-05
10 1 25.232773770491804 0.916804918032787 4.938861607597345e-05
11 1 27.927571803278692 0.8164272131147542 5.946672473880725e-05
12 1 30.76122229508197 0.7646731147540985 1.865524990635613e-05
13 1 33.27914754098361 0.865368918032787 3.312797520138242e-05
14 1 35.81939016393443 0.8809304918032788 8.645211696845011e-05
15 1 38.5362531147541 0.9478927213114755 8.677995843577148e-05
16 1 41.199342295081976 1.0436554754098362 6.069423428366105e-06
17 1 43.78199803278689 1.0332036721311475 6.122477896429978e-05
18 1 46.40535016393443 0.8747755409836067 4.011472677690986e-05
19 1 49.14649967213115 0.6290975737704919 2.8286825802462334e-05
20 1 52.392819672131154 0.8050059672131148 2.853823173567818e-05
21 1 54.8588393442623 0.6059420327868853 2.057801201383207e-05
22 1 57.30870163934427 0.43508483934426234 1.9982493970051098e-05
23 1 59.84944918032787 0.4898916721311476 5.9962959616038216e-05
24 1 62.44018360655738 0.5649224918032788 8.694210319157967e-05
25 1 65.04152131147542 0.5956114098360655 5.5679966122812e-05
26 1 67.74333770491803 0.8471060327868853 9.05099177723643e-05
27 1 71.75339672131149 0.36839829508196725 4.90435106455835e-05
28 1 73.30299016393444 0.41106487868852465 4.3042094980427995e-06
29 1 75.9841049180328 0.6292944918032787 9.207114995773562e-05
30 1 78.66622950819674 0.8227689836065575 7.37585879729936e-05
31 1 81.3433049180328 1.0703454426229508 8.170461607089089e-05
32 1 82.55510819672132 3.471528590163935 7.1858538371423314e-06
33 1 2.5218636065573774 3.79534262295082 6.80874292867403e-05
34 1 5.190153442622951 3.6073313442622954 4.8411200890942784e-05
35 1 7.970030163934427 3.32386531147541 8.10901340168288e-05
36 1 10.574548852459017 3.213924459016394 6.25630400447538e-05
37 1 12.937110819672132 3.1599234754098364 2.60079358284244e-05
38 1 15.380005245901641 2.7676980983606563 6.960715750990796e-05
39 1 18.170636721311475 2.473048131147541 1.1079243108631997e-05
40 1 20.339360655737707 1.8869342295081968 1.4164430812197316e-05
41 1 23.895599344262298 3.1748337049180333 1.455875762288762e-05
42 1 26.43432721311476 3.1422109508196723 5.773300217388507e-05
43 1 29.157198688524595 2.9284337049180333 7.333497300289992e-05
44 1 31.857045901639346 3.1942225573770497 2.0140475428199878e-05
45 1 34.38032327868853 3.2395036065573772 4.901661917110796e-05
46 1 36.984690491803285 3.1367830819672133 3.0452082485792745e-05
47 1 39.742704262295085 3.301285377049181 4.1950494853475894e-05
48 1 42.79983147540984 3.427514885245902 3.0419162378870513e-05
49 1 45.49260983606558 3.262957049180328 7.950936060784591e-05
50 1 48.71358295081968 2.659625442622951 9.592105190485232e-05
51 1 50.01975540983607 1.8751040000000003 1.6704793318205745e-05
52 1 53.51626229508197 3.093834754098361 7.16810074563682e-05
53 1 56.06054426229509 2.9638436065573774 5.4963849493405004e-05
54 1 58.596242622950825 2.8717869508196725 8.459562855288625e-05
55 1 61.14052459016394 2.9016680000000004 4.686913430597272e-05
56 1 63.68834098360656 2.9416625573770494 7.579277780589759e-05
57 1 66.22302950819673 2.9580925901639348 6.273232490391936e-05
58 1 68.3568131147541 2.2704194754098364 4.547191624221763e-05
59 1 71.92304918032788 3.1216153442622954 2.046543795883451e-05
60 1 74.59204590163935 2.8523728524590166 7.764841341894247e-05
61 1 77.25094426229509 3.0359055081967217 1.7446653413285097e-05
62 1 79.90782295081968 3.250606754098361 7.617569123299743e-05
63 1 1.1801701639344262 5.923748852459018 7.103122474553051e-05
64 1 3.9293074754098365 5.980148196721312 8.464641249860589e-05
65 1 6.631189508196722 5.597218360655738 2.47340100584885e-05
66 1 9.390819016393444 5.59832918032787 3.971911528260959e-05
67 1 11.887739672131149 5.692799344262295 9.014680994592973e-05
68 1 14.2928662295082 5.364804590163935 3.91087981241734e-05
69 1 16.949492459016398 4.745840721311476 5.8904349549769653e-05
70 1 19.644492459016398 4.772187344262295 4.79366125463735e-06
71 1 22.229824262295086 5.279624918032788 6.692140266154025e-05
72 1 25.245548196721312 5.593229508196722 8.024121989017071e-05
73 1 27.83880721311476 5.263921967213116 7.289155516677234e-05
74 1 30.42393704918033 5.28533049180328 8.954086895685648e-05
75 1 32.97927672131148 5.6111540983606565 2.8470734012564648e-05
76 1 35.604143606557386 5.50976655737705 9.810321822420217e-05
77 1 38.274806557377055 5.381012459016394 7.463513172145729e-05
78 1 40.56824524590164 4.59507724590164 9.934800621169279e-05
79 1 44.18517508196722 5.608427540983607 1.1644671642979743e-05
80 1 46.62832196721312 5.680226885245903 5.7224770765965476e-05
81 1 49.216178360655746 5.364148196721311 5.865631111077828e-05
82 1 51.90809836065575 5.11704131147541 9.071880207277068e-05
83 1 54.57103606557377 5.38616262295082 6.221112233607464e-05
84 1 57.258209836065575 5.312747540983607 2.0230320995744346e-05
85 1 59.8600524590164 5.290935081967214 9.330805605695324e-05
86 1 62.436649180327876 5.323552786885246 7.466089907898362e-05
87 1 65.0496 5.347233442622951 3.1787291556308195e-05
88 1 67.68577704918033 5.172279344262296 1.8059869122733642e-05
89 1 70.36941639344263 5.3796996721311485 8.227353568496115e-05
90 1 73.09849836065574 5.252712786885247 7.756377123952418e-05
91 1 75.82505573770493 5.266598032786886 7.578228866519398e-05
92 1 78.51828852459018 5.466697049180328 9.30887892329113e-05
93 1 81.1660786885246 5.688204590163934 5.196404611814729e-05
94 1 82.44503606557377 8.08080918032787 9.899217977838724e-05
95 1 2.594147672131148 8.19244655737705 1.5701243140069223e-05
96 1 6.181660983606558 7.784220327868853 4.982242305544629e-05
97 1 7.71272393442623 7.736000655737706 5.8425584613674064e-05
98 1 10.4466531147541 8.062127213114755 8.763144698258277e-05
99 1 13.613499016393444 7.9479147540983615 1.2925420289561374e-05
100 1 16.118043934426233 7.19609180327869 1.6136480554179724e-05
101 1 18.20875803278689 8.273738360655738 2.4780200504565333e-05
102 1 20.88285442622951 7.392908852459017 7.118103212514183e-05
103 1 22.920198688524593 6.71248131147541 1.1501827832281053e-05
104 1 26.770097704918037 7.737666885245902 9.524397793045555e-05
105 1 29.33023409836066 7.5885140983606565 4.244763808306714e-05
106 1 31.649524590163935 8.923870819672132 6.903728450236273e-05
107 1 34.45060786885246 7.875610491803279 9.864646006904119e-05
108 1 37.14252786885246 7.691668852459017 4.89117304690807e-05
109 1 39.884889180327875 7.386193442622952 7.474530834066415e-05
110 1 42.64502360655738 7.7351422950819675 8.532906679530774e-05
111 1 45.41500393442624 8.102874098360656 3.3673298808454435e-05
112 1 48.10601508196722 7.825421639344263 2.7170861088859222e-05
113 1 50.744262295081974 7.550594754098362 3.9247547983085685e-05
114 1 53.164334426229516 7.576295081967214 3.8443170756589916e-05
115 1 55.89190163934426 7.630220327868853 4.5064863237143375e-05
116 1 58.5432262295082 7.66076786885246 8.530738043164441e-05
117 1 61.11931803278689 7.692123278688526 7.407446249822407e-05
118 1 63.729239344262304 7.692274754098362 6.191422904234575e-05
119 1 66.35481311475411 7.6066406557377055 9.68643510157525e-05
120 1 68.9617049180328 7.573013114754099 1.8261769175311406e-05
121 1 71.60495081967214 7.562409836065574 1.632304695727761e-05
122 1 74.282531147541 7.500405901639344 6.159454115512475e-06
123 1 77.085331147541 7.653900983606558 3.877629757453658e-05
124 1 79.76947540983608 7.9095914754098375 2.98140992737434e-05
125 1 1.210137049180328 10.277455081967215 2.0126860595815023e-05
126 1 3.792040459016394 10.604641967213116 3.752511281035479e-05
127 1 6.298801967213115 10.342135081967214 4.957399925829602e-05
128 1 9.083677377049181 10.085384262295083 6.304681295376128e-05
129 1 11.352980983606558 9.304831475409838 7.084402356131657e-05
130 1 15.215755409836067 9.87341967213115 7.646634633793238e-05
131 1 17.740648524590167 9.728154754098362 1.818831811287035e-05
132 1 19.967589508196724 11.205999344262295 4.796945859850348e-05
133 1 22.514295081967216 9.72164131147541 7.019327122858908e-05
134 1 25.272965245901645 9.780464262295084 2.6039570656756752e-05
135 1 28.119996065573773 10.053069508196723 8.058021246665407e-05
136 1 30.988182950819677 10.315374426229509 9.860380232267465e-05
137 1 33.58775344262295 10.180409836065575 3.569132703522464e-05
138 1 36.26528327868853 9.990510163934427 2.7175652186423407e-05
139 1 38.79537704918033 9.717147540983609 6.598395550995139e-05
140 1 41.015451147540986 10.880630163934427 1.1282280327000494e-05
141 1 44.00244524590165 10.161828852459017 4.8595736495974e-05
142 1 47.77251672131148 9.948198032786886 1.7372178991704758e-05
143 1 49.32418032786886 9.97344393442623 9.113559363327775e-05
144 1 51.90961311475411 10.088615737704918 8.347759836867259e-05
145 1 54.535691803278695 9.846558032786886 7.78496402659199e-05
146 1 57.20771803278689 9.961679344262295 7.665390397086886e-05
147 1 59.76058360655738 10.064430163934427 6.592815569549338e-06
148 1 62.36899016393443 10.05468524590164 9.749677411743918e-06
149 1 65.01072131147541 10.004193442622952 6.838238223366442e-05
150 1 67.63982950819673 9.957286557377051 7.024526075565458e-05
151 1 70.22702950819674 9.905582950819674 8.227316053264847e-05
152 1 72.76727213114755 9.81409180327869 7.101627087015603e-05
153 1 75.36760000000001 9.70629180327869 7.800199486027935e-05
154 1 78.1779737704918 10.064632131147542 9.676189635201883e-05
155 1 81.10952786885247 10.314516065573772 4.809043810181565e-05
156 1 82.40161311475411 12.43093049180328 5.1929177310417024e-05
157 1 2.3781487868852462 12.764479344262297 2.1843856875589986e-06
158 1 5.539859672131148 12.798409836065575 4.9396838280499214e-05
159 1 8.222539672131148 12.305862295081969 7.781388652208408e-05
160 1 10.878509508196723 12.101118032786886 7.321398018958445e-05
161 1 13.67136262295082 12.065470819672132 7.415683285356179e-05
162 1 16.418369180327872 12.226337704918034 8.025569745136761e-05
163 1 19.112056393442625 12.496519344262296 2.6528202107616752e-05
164 1 21.550255081967215 12.456580327868854 5.4824181949209994e-05
165 1 23.985474754098362 12.061835409836068 4.158189187877465e-05
166 1 26.651038032786886 12.096321311475412 1.781510729190512e-05
167 1 29.472318032786887 12.332471475409838 9.722622584531532e-05
168 1 33.21886032786885 12.311012459016395 9.845640047953504e-05
169 1 34.76032459016394 12.31197180327869 8.596942852951635e-05
170 1 37.39422950819672 12.266832131147542 9.117892045750576e-06
171 1 40.01909639344263 12.081123278688526 2.515128183709108e-05
172 1 42.651032131147545 12.290209836065575 9.138476416792827e-05
173 1 45.34386098360656 12.5003062295082 5.5086292208812486e-05
174 1 47.68047016393443 12.539689836065575 2.0514523770850503e-06
175 1 50.467567213114755 12.467335081967216 6.440096309219487e-05
176 1 54.079750819672135 12.117275409836067 6.0190820261686764e-05
177 1 55.629849180327874 12.170392786885246 7.72344171799394e-05
178 1 58.28420327868854 12.41280393442623 4.847712831598124e-05
179 1 60.980465573770495 12.426941639344262 7.681676282554626e-05
180 1 63.63481967213115 12.369027540983607 5.1726880953711156e-05
181 1 66.33815081967214 12.331865573770493 8.235186308916311e-05
182 1 69.00159344262295 12.312274754098361 6.267522454815297e-05
183 1 71.53931147540985 12.268902295081968 8.955545388947321e-05
184 1 74.00583606557377 12.092635409836067 6.344500249989339e-05
185 1 76.57435409836067 11.945906229508196 2.54785294468198e-05
186 1 78.80760655737706 11.471788196721311 3.18835235211609e-05
187 1 0.9696142950819673 14.8171731147541 9.495007533882275e-05
188 1 3.1936721967213115 14.055756721311477 5.933202134613858e-06
189 1 7.076224262295082 14.739971147540984 1.3808075011268673e-05
190 1 9.554311475409836 14.514121311475412 5.81682317459922e-05
191 1 12.182662295081968 14.29932918032787 8.018972741001143e-05
192 1 14.934768524590167 14.41404655737705 6.500925622041048e-05
193 1 17.501317377049183 14.668323278688526 3.205991180531075e-05
194 1 20.08932524590164 14.929012459016395 6.894441208125246e-05
195 1 22.659358032786887 14.702001311475412 8.56955420925708e-06
196 1 25.18526098360656 14.40980524590164 7.903705341587124e-05
197 1 27.84067540983607 14.375874754098362 2.6092215863671143e-05
198 1 30.533908196721313 14.758400655737706 6.0488430920841884e-05
199 1 33.08354229508197 14.808488524590164 1.2066910668485365e-05
200 1 35.888765901639346 14.646561311475411 3.2976782252109575e-05
201 1 38.549179016393445 14.551636721311477 6.95260416658814e-05
202 1 41.083312131147544 14.423236065573771 1.1764029683769307e-05
203 1 43.86929836065574 14.58344655737705 6.40079948119832e-05
204 1 46.31643409836066 15.033379016393445 1.1685330264096362e-05
205 1 48.931859016393446 14.764914098360657 4.308657636435045e-05
206 1 51.55819016393443 14.910027540983608 7.912485031449275e-05
207 1 54.1120655737705 14.756835409836066 5.465472614135304e-05
208 1 56.89214426229509 14.652973770491803 7.007581127271986e-05
209 1 59.62627540983607 14.73406360655738 3.2843027748979794e-05
210 1 62.32354754098362 14.740829508196724 8.730112277584626e-05
211 1 64.95518032786886 14.635554098360657 1.5999110268655193e-05
212 1 67.79736393442624 14.637624262295084 7.699939200738921e-05
213 1 70.45424262295083 14.702960655737705 9.260937006357621e-05
214 1 73.1308131147541 14.598644590163936 3.1170584719130036e-05
215 1 75.84575737704918 14.25812786885246 2.6480066428218985e-05
216 1 78.2976393442623 15.394647868852461 3.309601736931394e-05
217 1 81.05348196721312 14.583951475409838 4.8141910067227306e-05
218 1 0.1114727737704918 16.96231737704918 5.978027071410968e-05
219 1 2.7150300983606557 16.85239672131148 3.941374972142622e-05
220 1 5.45432655737705 16.786908852459018 4.189136982322134e-05
221 1 8.113275409836067 17.036540327868853 3.079764277029935e-05
222 1 10.656800000000002 16.71748262295082 5.321025585671747e-05
223 1 13.373259016393444 16.569036721311477 6.863452431979382e-05
224 1 15.943342295081969 16.944493770491807 6.589593608610489e-05
225 1 18.553516065573774 17.182007213114755 1.13521511455572e-05
226 1 21.291535081967215 17.209070819672135 4.127189837846984e-05
227 1 23.930337704918035 16.966861639344266 6.245806411336942e-05
228 1 26.501935737704923 16.698043278688527 8.118767832246431e-05
229 1 29.134527868852462 16.780849836065574 9.311704348775431e-05
230 1 31.775552131147542 17.156306885245904 2.1393545776930868e-05
231 1 34.51912524590164 16.949088524590163 3.786861367172453e-05
232 1 37.14217442622951 16.951512131147542 6.67142649113739e-05
233 1 40.79566032786886 16.578125245901642 8.397481475060362e-05
234 1 42.34328459016394 16.592515409836068 3.2256259221871274e-05
235 1 44.627281311475414 18.14821836065574 8.224399389670547e-05
236 1 47.51813901639345 17.248605901639348 6.115750298251466e-06
237 1 50.29124983606558 17.17448393442623 9.169806042017796e-05
238 1 53.00276065573771 17.208919344262295 3.319616405440676e-05
239 1 55.666203278688535 16.966508196721314 8.990022609881545e-05
240 1 58.346813114754106 16.986401967213116 2.435364907436064e-05
241 1 61.05822295081968 17.054161967213116 7.922562995658711e-05
242 1 63.73529836065574 17.05587868852459 3.866826575988136e-05
243 1 66.33411147540984 16.758280000000003 4.793805630807227e-05
244 1 69.07480655737706 17.01407147540984 3.950541510421677e-05
245 1 72.10431475409837 16.949795409836067 8.974567527568257e-05
246 1 74.91822295081968 16.640836065573772 6.855745574112233e-05
247 1 77.68769836065574 16.80104655737705 9.412097089307588e-05
248 1 80.24409836065576 16.98347344262295 4.287319147677332e-05
249 1 1.7886519344262297 19.233287213114757 4.238862310870417e-06
250 1 4.42697993442623 18.997036065573774 8.3289424345981e-05
251 1 6.836691147540985 20.301794754098363 9.848683586000631e-05
252 1 9.552039344262296 19.274841967213117 7.87598967721973e-06
253 1 12.19220524590164 18.858234098360658 2.9790323108033558e-05
254 1 14.112156065573773 20.39111475409836 9.02152504615554e-05
255 1 16.895617704918035 19.439697704918036 2.830790568146058e-05
256 1 19.698518688524594 19.471659016393446 1.687357419267299e-05
257 1 22.96912524590164 19.410361967213117 9.01032294898346e-05
258 1 25.676798688524592 19.150985573770495 7.390593672735625e-05
259 1 28.10929180327869 19.001681311475412 2.9300092779325283e-05
260 1 30.392682622950822 20.39343737704918 7.912898718808294e-05
261 1 33.0993462295082 19.278830819672134 1.0172114345744477e-05
262 1 35.70593508196722 19.33124131147541 3.6576034866002883e-05
263 1 38.175842622950825 19.36532327868853 5.826875897337219e-05
264 1 40.81575606557377 19.100544262295085 7.661679265756783e-06
265 1 43.68192327868853 19.378552131147543 4.6209564702753116e-05
266 1 46.33668131147542 19.5805193442623 2.5068608074086998e-05
267 1 49.117012459016394 19.420561311475414 3.937382623729635e-06
268 1 51.805600000000005 19.464691147540982 7.033971814578536e-05
269 1 54.42107540983607 19.407635409836065 9.171216497030772e-05
270 1 57.075934426229516 19.309832786885245 5.9045626068449065e-05
271 1 59.76512786885247 19.324727868852463 6.031657660176809e-05
272 1 62.438668852459024 19.398344918032787 8.61616448262778e-05
273 1 65.97158032786885 19.020312786885246 9.171216052786497e-05
274 1 67.51612459016395 19.053889836065576 3.258639496561151e-05
275 1 69.762 18.398556721311476 7.541018635504888e-05
276 1 73.66249180327868 18.90746360655738 2.794632182970889e-05
277 1 76.35875409836066 18.929427540983607 3.783923815743566e-05
278 1 79.0524918032787 19.240305573770495 1.0980489488195844e-05
279 1 81.76440655737706 19.325737704918033 4.7648251192083323e-05
280 1 0.5353999344262296 21.54424655737705 8.121964452717493e-05
281 1 3.3111161311475414 21.46224786885246 4.221953227451192e-05
282 1 6.119505573770493 21.666487213114756 2.496769596911285e-05
283 1 8.741797377049181 21.78761704918033 4.691776375657475e-06
284 1 11.314960655737707 21.3399062295082 4.640193519754135e-05
285 1 13.215522622950822 22.855720655737706 9.846546799303708e-05
286 1 15.945008524590165 21.947272131147542 6.340423484692719e-05
287 1 18.432083278688527 21.63220327868853 4.751033290805464e-05
288 1 20.684118688524592 20.660185573770494 9.752810588589382e-05
289 1 24.57158360655738 21.494411147540983 8.674266469526572e-05
290 1 27.164388196721312 21.54323672131148 5.072560569572184e-05
291 1 29.8745862295082 21.836341639344266 5.834003014219215e-05
292 1 32.33666754098361 21.71137442622951 8.904088278998112e-05
293 1 34.52892065573771 22.94413180327869 3.511876446245717e-05
294 1 37.2282124590164 21.77999278688525 6.95776159988168e-05
295 1 39.952144262295086 21.44694885245902 5.669369712633496e-05
296 1 42.20044327868853 22.560495081967215 2.3160414087345693e-05
297 1 44.96628327868853 21.76297704918033 1.5116481895895806e-05
298 1 47.80826491803279 21.66830491803279 5.220198655031117e-06
299 1 50.573600000000006 21.72833967213115 3.468138124711289e-05
300 1 53.1840262295082 21.810186885245905 3.30961160539763e-05
301 1 55.72931803278689 21.695166557377053 9.919174383827626e-05
302 1 58.487685245901645 21.631395409836067 9.699035754279732e-05
303 1 61.01328524590164 21.702942295081968 6.980824584366868e-05
304 1 63.45809836065575 21.79418098360656 8.891970521992465e-06
305 1 66.08114754098361 21.694055737704918 1.6707451133399678e-05
306 1 69.37927213114756 21.209031475409837 7.134026459086605e-05
307 1 72.18156721311476 21.013527213114756 7.594848713577391e-05
308 1 74.898531147541 21.17303081967213 7.717803050747224e-05
309 1 77.71900327868853 21.332635409836065 4.360345295887059e-06
310 1 80.45515409836065 21.532229508196725 2.4281295906437252e-05
311 1 1.8796634098360658 23.73357114754099 2.944081380445841e-05
312 1 4.617127016393444 23.775984262295083 9.224603754632289e-05
313 1 7.317171147540984 24.059344262295085 7.330385662442041e-07
314 1 9.975312131147541 23.959067540983607 6.293788293017197e-05
315 1 12.534085245901641 24.242932459016394 7.607516786699308e-05
316 1 14.849689836065576 24.420411147540985 6.957517405242205e-05
317 1 17.42709442622951 24.212132459016395 9.017741750009024e-06
318 1 20.390609836065575 23.450968524590163 4.0847328199798465e-05
319 1 23.187653770491806 23.55548655737705 7.528113235884518e-05
320 1 25.74854754098361 23.883026885245904 8.306239410027865e-05
321 1 28.40386098360656 23.954573770491805 3.248509849301161e-05
322 1 31.12117836065574 24.22389704918033 7.209105321589823e-05
323 1 33.80224262295082 24.310692459016394 2.604990261934971e-05
324 1 36.340819016393446 24.29327278688525 8.957628609006617e-05
325 1 38.962908852459016 23.833746885245905 9.98886346706227e-05
326 1 41.63160262295083 23.986080655737705 7.668593779304274e-05
327 1 43.938219672131154 24.16376131147541 3.1073895428838396e-05
328 1 46.428172459016395 23.803855737704918 9.650768943692819e-05
329 1 49.13140262295082 23.889641311475412 9.895649265219636e-05
330 1 51.757127868852464 24.13770754098361 3.8366240479580475e-05
331 1 54.616478688524595 24.18729049180328 3.4861393460871886e-05
332 1 57.18954098360656 23.87434229508197 9.500308078946591e-05
333 1 59.78179016393443 24.109432131147543 8.775186586756375e-05
334 1 62.5936786885246 24.169214426229512 2.2650570772412307e-05
335 1 65.24904262295082 23.954674754098363 7.884636495160813e-06
336 1 67.17580983606558 22.801189508196725 8.041599034583867e-05
337 1 70.91674754098361 23.278589508196724 3.1835511246000384e-05
338 1 73.56100327868853 23.355892459016395 7.365925587567088e-05
339 1 76.26029508196721 23.37730098360656 3.815183655246655e-05
340 1 79.0600655737705 23.670961311475413 4.922607542777321e-05
341 1 81.78813770491804 23.76119016393443 8.756808991840651e-05
342 1 0.4313524852459017 25.964702950819674 7.722362716005279e-05
343 1 3.1817813770491807 26.017820327868854 7.641714574816883e-05
344 1 5.878558688524591 26.199944262295084 9.074202938224362e-05
345 1 8.520693770491803 26.34828918032787 7.449741101232619e-05
346 1 11.116982295081968 26.499461639344265 7.062632876527871e-05
347 1 13.729276721311477 26.845734426229512 2.2719483767402016e-05
348 1 16.257704262295086 26.632154098360658 9.375322859253196e-05
349 1 18.353820983606557 25.436962622950823 6.755093492246781e-05
350 1 21.614834098360657 26.956816393442626 2.1160319369208282e-05
351 1 24.350076065573774 26.117390163934427 9.500312486763889e-05
352 1 26.98201180327869 26.247255081967214 4.576025325541344e-05
353 1 29.534019016393444 26.338948196721315 1.0947001258901656e-05
354 1 32.16368262295082 26.569594754098365 7.295873633251033e-05
355 1 35.25292262295083 26.670325901639348 6.356644301445461e-05
356 1 37.93696590163935 26.318549508196725 3.327906858529325e-05
357 1 40.29972983606558 26.192521967213118 6.39543474656038e-06
358 1 42.79559016393443 26.58731737704918 9.119939156692307e-05
359 1 45.69927278688525 26.29401049180328 9.282001525422876e-05
360 1 47.94459278688525 27.236238032786886 2.8198442829365835e-05
361 1 50.46428524590164 26.29638360655738 8.012882498568017e-05
362 1 52.49582295081967 25.49043344262295 7.63388537080405e-06
363 1 55.98935081967214 26.356670819672132 6.591750141499175e-05
364 1 58.44274754098361 26.30936 4.679518124032012e-06
365 1 60.4952393442623 25.483011147540985 4.126794498160302e-05
366 1 64.32100327868852 26.27482360655738 5.923954832471035e-06
367 1 66.95364590163936 25.829485901639348 3.760114357327863e-05
368 1 69.41916065573771 25.487706885245906 5.7810080090978734e-05
369 1 72.15834098360656 25.635445901639347 1.994095784622785e-06
370 1 75.37517377049181 25.557789508196723 1.4694010958687732e-05
371 1 77.69123278688525 26.79231409836066 5.79535959226575e-05
372 1 80.4228393442623 25.983990819672133 6.444455981790569e-05
373 1 1.6933234098360659 28.220373770491804 2.2015205359975212e-05
374 1 4.438855606557378 28.3931062295082 1.684442724701384e-05
375 1 7.048453770491804 28.626630819672133 8.14163423996791e-05
376 1 9.70018229508197 28.80496786885246 6.5841897167539855e-06
377 1 12.439615081967215 29.002744262295085 8.08662991204212e-05
378 1 15.34657967213115 29.118118032786885 5.935240131216972e-05
379 1 17.97341573770492 28.395731803278693 6.439405646895258e-05
380 1 20.8463993442623 28.290153442622955 2.9662615668696215e-05
381 1 23.212142295081968 28.60330360655738 4.718536369667046e-05
382 1 25.68194885245902 28.525697704918034 3.216714936485954e-06
383 1 28.274955409836068 28.697268852459022 3.079624863917107e-05
384 1 30.733451803278694 28.76502885245902 7.272811822756893e-05
385 1 32.905356721311485 27.91712 8.477265076453862e-05
386 1 36.84376786885247 28.690603934426232 8.182031824058223e-06
387 1 39.351039344262304 28.73958098360656 1.1233220267676481e-05
388 1 41.62544262295082 28.737712786885247 7.62831698136289e-05
389 1 43.642135737704926 27.856630819672134 9.445267779164781e-05
390 1 47.259772459016396 28.58522754098361 4.3583179090978984e-05
391 1 49.52018950819672 28.93478229508197 8.843957234533951e-05
392 1 52.00554754098361 28.42693573770492 2.2018327236709845e-05
393 1 54.553868852459026 28.60512131147541 3.0932526123466186e-05
394 1 57.267298360655744 28.766291147540986 2.620945015581552e-05
395 1 60.04434754098361 28.420674754098364 5.872936271565801e-05
396 1 62.87087868852459 28.381695081967216 6.926435008873078e-05
397 1 65.68680655737705 28.350945573770495 3.0667948142497135e-05
398 1 68.4184131147541 28.14175803278689 9.459340229236189e-05
399 1 71.04651147540984 27.754990819672134 8.97539279478042e-05
400 1 73.14242622950822 26.815691803278693 3.608467894235866e-05
401 1 76.85660327868854 28.072281311475415 7.297315618430084e-05
402 1 79.17215737704919 28.461724590163936 8.04434673135905e-05
403 1 81.69624262295082 28.25905049180328 5.422183780654043e-05
404 1 0.16076691147540986 30.501946885245903 6.016710414629009e-05
405 1 2.84892931147541 30.508864262295084 3.761205475251628e-05
406 1 5.445591475409836 30.864225573770497 2.5822899856903805e-05
407 1 8.162353442622953 31.05811409836066 6.3497949434771605e-06
408 1 10.842256393442623 31.163490491803284 3.4648085111999573e-06
409 1 13.620416393442625 31.166368524590165 2.933268490568446e-05
410 1 17.872533114754102 30.730927213114757 5.1204205193525e-05
411 1 19.36981704918033 30.417979016393446 2.0177765902909816e-05
412 1 21.83851278688525 30.926280000000006 4.5303999107411444e-05
413 1 24.281609180327873 30.989798688524594 8.62576380117009e-05
414 1 26.787567868852463 30.957988852459017 7.850149156280507e-05
415 1 29.473176393442625 31.206055081967218 8.694803136001466e-05
416 1 32.59331737704918 30.75349704918033 9.21887980893708e-05
417 1 35.43888393442623 30.662864262295084 7.016502051371355e-05
418 1 38.21123737704919 31.099921311475413 4.439856423137869e-05
419 1 40.79429704918033 31.265786885245905 2.9279564977726524e-05
420 1 43.377558688524594 30.765766557377052 2.064380533490604e-05
421 1 45.918811147540985 30.61373573770492 4.4640838689979905e-05
422 1 48.24335278688525 32.27420918032787 4.661769840636356e-05
423 1 50.942695081967216 31.039028196721315 1.6831854359920394e-05
424 1 53.20169836065575 32.08986360655738 9.592662594537618e-05
425 1 55.99995409836067 30.97919540983607 8.51831241700231e-05
426 1 58.72752131147542 30.800201967213116 2.8508557438249205e-05
427 1 61.55102295081968 30.58031016393443 3.616286435426631e-05
428 1 64.25334426229509 30.573594754098362 9.29364704001335e-05
429 1 66.8587213114754 30.53173704918033 7.650538528184326e-06
430 1 70.71225573770492 30.0439862295082 2.1467802588625564e-05
431 1 73.31712786885247 29.536947540983608 9.821846813508944e-05
432 1 74.86116721311477 29.775874754098364 6.4453122700146916e-06
433 1 77.42716065573771 30.700379672131152 5.398467748791738e-05
434 1 80.17997377049181 30.72501967213115 1.3836127270416077e-05
435 1 1.6210797377049182 32.75736524590164 2.9987998448393807e-05
436 1 3.709264196721312 34.207136393442624 7.171940918988393e-05
437 1 6.5010216393442635 33.23284655737705 9.762803067378626e-05
438 1 9.277919344262296 33.440115409836075 4.291761343180436e-05
439 1 12.064259016393443 33.39931803278689 1.0244474324445307e-06
440 1 14.790816393442626 33.31444131147541 9.200348158799261e-05
441 1 16.452855081967215 32.382059672131156 5.5510709518793e-06
442 1 20.404394098360655 33.07288852459016 8.479737280747305e-05
443 1 23.00805442622951 33.43274360655738 7.871503607763873e-05
444 1 25.316741639344265 33.374375081967216 2.431204959164114e-05
445 1 27.875464262295086 33.31535016393443 8.545373532034774e-05
446 1 30.429996065573775 32.420534426229516 5.9683351689907276e-05
447 1 34.05980131147542 32.77559278688525 2.3943388092510766e-05
448 1 36.693605245901644 33.009369836065574 8.999972294854335e-05
449 1 39.30610163934427 33.55018754098361 6.419242644564443e-05
450 1 43.04476721311476 33.11954295081968 1.2207328350532409e-05
451 1 44.59567344262295 33.07238360655738 3.183580939267936e-05
452 1 47.321776393442626 33.518175737704915 5.111032383170022e-05
453 1 49.9012006557377 33.64738426229509 5.1526577689520075e-05
454 1 52.40392786885247 33.42123147540984 8.281280721039905e-05
455 1 54.8704524590164 33.37881836065574 4.253787971167647e-05
456 1 57.6348786885246 33.16367278688524 7.465537932382476e-05
457 1 60.33467540983607 32.829114098360655 1.032194375914678e-05
458 1 62.98700983606558 32.87122426229508 3.261950037865612e-05
459 1 65.36719344262296 32.93852983606558 1.0707718436155023e-05
460 1 67.90087213114755 32.949688524590165 3.941758079079339e-05
461 1 70.35174426229509 32.4302793442623 7.115348534321552e-05