# input file

2232 atoms
1 atom types

0.0 82.68810555352132 xlo xhi
0.0 83.16 ylo yhi
-10.0 10.0 zlo zhi
0.0 0.0 0.0 xy xz yz

Masses

1 12.0100 #C

Atoms

1 1 1.5226257704918034 0.15969042622950821 7.197323760770274e-05
2 1 4.590275475409836 0.5160312786885247 3.2900887901748436e-05
3 1 7.460012459016394 0.5000763737704919 5.6483092985758044e-05
4 1 10.097855737704919 1.3374874754098363 8.802584042811748e-05
5 1 12.784272131147542 1.554859737704918 2.5122525360351303e-05
6 1 15.438424262295083 1.0170008524590166 6.065847656427271e-05
7 1 18.279042622950822 0.978056524590164 8.941631904503976e-05
8 1 20.961672131147544 1.0240495081967216 7.22297962130686e-05
9 1 24.091709508196725 0.35499070163934426 2.70533550994143e-05
10 1 25.624842622950823 0.24624650491803282 5.767682067304947e-06
11 1 28.148019016393448 0.503089724590164 9.290731360481908e-06
12 1 30.556528524590167 0.9839489180327871 3.534600069527011e-05
13 1 33.10702098360656 0.7763468196721313 8.468908329686974e-05
14 1 36.05372262295082 0.7101773114754099 1.3466789006646974e-05
15 1 39.22364852459017 83.029731147541 2.1033801171038305e-05
16 1 40.75208590163935 82.9873180327869 4.8869175079284555e-05
17 1 43.29076327868853 0.8903775081967213 7.906344569978717e-05
18 1 45.97652327868853 0.9368451147540985 1.7841356181206614e-05
19 1 48.17296721311476 2.269051147540984 2.1833519066903872e-05
20 1 51.07245901639345 1.3889184262295082 4.841556157129381e-05
21 1 54.36452459016394 1.1872794098360657 2.377618639623479e-05
22 1 57.20468852459017 1.0664424262295082 6.23426457787251e-05
23 1 59.96709508196722 1.2229821639344265 4.224123595232893e-05
24 1 62.48512131147542 1.1177976393442626 9.736005536617129e-05
25 1 65.45605901639345 1.0321736393442622 9.904234843783522e-05
26 1 68.91828196721312 1.194737049180328 3.572411686427201e-05
27 1 71.61100983606558 1.0660839344262296 1.4626169488670039e-05
28 1 73.95231475409837 1.3345185573770493 6.726341805686202e-05
29 1 77.01009836065575 0.09060905573770493 6.564839412628443e-06
30 1 78.5632262295082 82.96358688524592 7.872568684384837e-05
31 1 81.36047213114755 83.07971803278689 5.20767323791304e-05
32 1 0.02341193836065574 2.1658105573770494 9.073007051823519e-05
33 1 2.216054950819672 1.556445180327869 9.447139580856723e-05
34 1 5.985197377049181 2.5258120655737706 8.279116305378036e-05
35 1 8.475756065573771 3.0486092459016394 3.287279730142851e-05
36 1 11.036902295081967 3.677383672131148 3.2056491873703686e-05
37 1 14.076660327868854 3.5724263606557383 6.941996955662331e-05
38 1 16.7390931147541 3.180367606557377 3.846302081449907e-05
39 1 20.231611147540985 3.1329154098360656 9.493468416709118e-05
40 1 21.726572459016396 3.446227147540984 1.6631236126931105e-05
41 1 24.5793593442623 3.12283724590164 3.406979642073247e-05
42 1 26.80574491803279 4.009246098360656 1.4629960329702829e-05
43 1 29.496301639344264 3.1075988196721314 9.515025174059398e-05
44 1 31.969440655737706 4.175752918032788 7.681705366539768e-05
45 1 34.60990950819672 2.8509186885245903 9.09356434608072e-05
46 1 37.45971737704919 3.017289180327869 3.1094143919023434e-06
47 1 41.4238793442623 3.3085612459016396 8.942771982718184e-05
48 1 40.555723278688525 1.998046491803279 6.9394443071334355e-06
49 1 44.488529836065574 3.265713901639345 4.1996680690764455e-06
50 1 47.38413377049181 3.5970360655737705 5.433397224349416e-05
51 1 49.78754360655738 3.6077100327868856 3.487248830227733e-05
52 1 51.9404131147541 2.667335540983607 9.51775329960722e-05
53 1 55.817678688524595 3.22232124590164 4.543320327449429e-05
54 1 58.62956721311476 3.3462634754098364 4.98655779228237e-05
55 1 61.373796721311486 3.6102598688524594 7.421651129710857e-05
56 1 64.27354098360657 2.893352 1.2405577193926942e-05
57 1 66.5860655737705 2.0589749508196724 2.624539671831946e-05
58 1 69.95083934426229 3.3912213770491806 2.899704100703503e-05
59 1 72.20883278688525 3.6109768524590167 9.872742049977345e-06
60 1 74.78795409836066 3.647851016393443 8.135220820414158e-05
61 1 77.3120393442623 2.9341948196721317 6.927067131591661e-05
62 1 79.98558032786886 2.13460662295082 7.917242148722416e-05
63 1 1.592632655737705 4.421678295081968 6.75773724911006e-05
64 1 5.153900327868853 4.541773049180328 1.4640482130928224e-05
65 1 6.620232786885246 5.038218557377049 5.1438748841806683e-05
66 1 9.281655737704918 5.587776393442624 1.4469007579795014e-05
67 1 11.655376393442625 5.074678688524591 5.6290114221915324e-05
68 1 15.154508852459017 5.593380983606558 1.6832432700723722e-05
69 1 17.627849836065575 5.7469770491803285 8.382196642214599e-05
70 1 20.163245245901642 5.674319344262296 9.248795979355066e-05
71 1 22.472386885245903 4.79589324590164 3.268583589890356e-05
72 1 26.13066950819672 5.395756065573772 8.737393026448904e-05
73 1 28.591942950819675 5.621605901639344 3.0734478813044485e-05
74 1 31.2475593442623 5.5263278688524595 3.1910492961833014e-05
75 1 33.69802754098361 5.4234255737704915 8.109278252487438e-05
76 1 36.15819016393443 5.028402950819673 5.29392377196531e-05
77 1 38.05021901639345 6.692133114754099 2.9487145455400678e-05
78 1 40.72275016393443 5.6969901639344265 2.6542397032703316e-05
79 1 43.26925377049181 5.284674098360656 4.7513716358052186e-05
80 1 46.18187344262296 5.558541639344263 4.671802913986414e-05
81 1 49.33463213114755 5.8985029508196725 5.836682274095394e-05
82 1 51.65059016393443 6.831793442622952 3.631304676724019e-05
83 1 54.078236065573776 5.186820983606558 3.550754235321249e-05
84 1 56.93304262295083 5.3782354098360665 9.19417092082875e-05
85 1 60.16300327868853 5.661948852459017 6.911915961640644e-05
86 1 62.41342295081968 4.770213114754099 9.541074951490272e-05
87 1 65.3156918032787 4.751192852459017 9.419463307155542e-05
88 1 67.94631475409837 5.395604590163935 6.994450689536056e-05
89 1 71.13083278688525 6.071639344262296 9.195673454083207e-05
90 1 73.70793442622951 6.795035409836067 7.491456814307407e-05
91 1 76.26231475409836 5.575052459016393 3.552453916852282e-05
92 1 78.83184262295082 4.704917114754099 7.847130677501373e-05
93 1 81.59525901639346 4.386970229508197 2.2386218553334703e-05
94 1 0.12312931147540984 6.709552786885246 8.047370846007911e-05
95 1 2.516940655737705 7.008060327868853 4.1196975509262246e-05
96 1 5.066297049180328 7.089453114754099 4.767172429634009e-05
97 1 7.912772459016394 7.566247213114754 5.366695628583691e-05
98 1 10.64877180327869 7.805477377049181 8.403101056646843e-05
99 1 13.402291803278692 7.76548786885246 6.817795254891864e-05
100 1 16.1477331147541 8.05465442622951 8.953702503442459e-05
101 1 18.93715278688525 8.06576262295082 8.735323716296075e-05
102 1 21.775549508196722 7.648952786885246 6.073109641056321e-05
103 1 24.43823475409836 7.549685901639345 6.689123841906512e-05
104 1 27.087438688524593 7.919184918032788 5.3575222585584385e-05
105 1 29.803190819672132 7.860614426229509 5.3543135500788e-05
106 1 32.278400000000005 7.879548852459018 1.3558434960988886e-05
107 1 34.83303278688525 7.604419016393444 5.896854647265288e-05
108 1 37.36034950819673 8.059754098360656 3.716342469414946e-05
109 1 39.693575737704926 8.211784918032787 5.626381422984238e-05
110 1 42.26264918032787 7.868491147540984 3.476879330220168e-05
111 1 44.95951737704918 7.40437049180328 5.2173528468591225e-05
112 1 47.28067606557377 6.709249836065575 7.478333837703474e-05
113 1 51.079527868852466 8.272728524590164 3.689934388264116e-05
114 1 54.08379016393443 7.575133770491805 7.872101105290275e-05
115 1 55.57380327868853 7.307981639344263 3.727788693674498e-05
116 1 57.724249180327874 6.676581639344263 6.868959561844868e-06
117 1 61.305127868852466 8.102621639344262 4.707008663695e-05
118 1 63.74640655737706 7.531811803278689 6.07678360484041e-05
119 1 66.44822295081968 7.251430819672131 9.713645855428401e-05
120 1 68.9884655737705 8.096108196721312 7.213316005288214e-05
121 1 73.02377049180329 8.150437377049181 2.7422234207302023e-05
122 1 75.29590163934427 8.240413770491804 4.0764859068638516e-05
123 1 77.65992786885246 7.352565901639345 9.30839011915154e-05
124 1 80.26278032786885 6.7006157377049185 8.040506247330951e-05
125 1 1.2243656393442623 9.326896393442624 7.51259134689888e-05
126 1 3.746724065573771 9.409400000000002 4.4701566834053664e-05
127 1 6.403521967213115 9.426516721311476 5.1146445387449796e-05
128 1 9.002688524590164 9.966274098360657 3.74894342257843e-05
129 1 12.088848524590166 10.066449836065576 7.027300751479765e-05
130 1 14.81444655737705 10.129160655737707 8.68643730077545e-05
131 1 17.39634491803279 10.226508852459016 4.931442952069234e-05
132 1 20.175312786885247 9.939059016393443 4.01432152933689e-05
133 1 22.916613770491807 9.976271475409836 7.514033149698419e-06
134 1 25.869929836065577 10.049383606557377 9.58268331286109e-05
135 1 28.631932459016397 10.124262950819674 8.468542284163565e-05
136 1 31.22014229508197 10.291643278688525 1.8234372147254695e-05
137 1 33.68489967213115 10.079476721311476 9.66008551029247e-05
138 1 35.93516786885246 11.302994098360656 8.704964910858071e-06
139 1 38.66990491803279 10.61024655737705 2.6634882978280352e-05
140 1 41.139509508196724 10.340115409836066 1.2643632313026865e-05
141 1 43.079202622950824 9.169664918032787 8.793369192698537e-05
142 1 46.424234098360664 10.869824918032787 5.224745579413615e-05
143 1 49.317313442622954 10.304215737704919 8.09206116019925e-06
144 1 52.36353442622951 10.706685901639345 8.83575816307079e-05
145 1 55.06787540983607 10.061754098360655 8.388097417706537e-05
146 1 57.53036065573771 9.386729180327869 5.07436882241305e-05
147 1 59.966085245901645 10.815748196721312 4.138265425760026e-05
148 1 62.78908196721312 10.200909508196721 3.687510360349995e-05
149 1 65.40708196721312 9.677662950819672 7.511229085024751e-05
150 1 68.28107540983608 9.50765704918033 7.522786534076988e-05
151 1 71.96293770491803 10.045192786885247 9.80463019272044e-05
152 1 73.4236655737705 10.575760655737705 9.603314081749534e-05
153 1 76.96768524590165 10.121081967213117 2.249337533071174e-05
154 1 79.45137704918034 9.191376393442624 4.142695797788425e-05
155 1 81.35946229508197 10.417216393442624 1.7599459610844228e-05
156 1 0.257227462295082 11.965547540983607 8.264523201888328e-05
157 1 2.4873676065573775 11.75636 1.699260688486164e-05
158 1 4.9997438032786885 11.683146885245902 9.434220198762771e-05
159 1 7.481925901639345 11.976857704918034 9.294372687371899e-05
160 1 9.655345573770491 11.369895737704919 9.028843139650027e-05
161 1 13.394465573770493 12.325099672131149 4.1609110091264536e-05
162 1 16.032813770491806 12.560946885245903 3.290881059267954e-05
163 1 18.73796262295082 12.235022295081968 3.351301142004673e-05
164 1 21.453159344262296 12.157012459016395 9.601734930090554e-05
165 1 23.537259016393445 11.40221049180328 1.0116635124774531e-05
166 1 27.309148196721313 12.26885180327869 1.810692161629187e-05
167 1 29.929167868852463 12.559987540983608 8.455293508099428e-05
168 1 32.50394688524591 12.649812459016395 7.815453719071059e-05
169 1 35.186323934426234 12.624011147540983 8.161271221394433e-05
170 1 37.792912786885246 12.97800918032787 1.938969044118244e-06
171 1 40.33441770491804 12.847336393442625 9.623565021217939e-05
172 1 42.918234754098364 12.139946229508197 6.465552547688589e-05
173 1 45.5949062295082 12.169029508196722 1.5421585874031496e-05
174 1 47.9274255737705 12.54564786885246 7.980514661724387e-05
175 1 49.931192786885255 11.776556721311476 8.096350416974734e-05
176 1 54.04491147540985 12.478190819672133 3.561271690990442e-05
177 1 57.542983606557385 11.76065180327869 2.327524116116968e-05
178 1 59.06935081967214 12.053958688524592 2.6293999312604255e-05
179 1 61.576773770491805 12.557917377049183 1.5697924160349642e-05
180 1 64.18265573770492 12.260318688524592 9.669342195970974e-05
181 1 66.67947540983607 11.753330491803279 5.1705014471063074e-05
182 1 68.81325901639345 13.279697704918034 1.5704662911458156e-05
183 1 71.46609836065574 12.34004524590164 4.306401261928702e-05
184 1 74.11792786885246 11.967062295081968 5.815660369206014e-05
185 1 78.13859016393444 11.835379672131149 9.670074904106804e-05
186 1 80.58340327868854 11.731871475409836 4.946944056259806e-06
187 1 1.251636262295082 14.396424918032787 9.022889681487786e-05
188 1 3.8540342950819677 14.09408 8.310849506020543e-05
189 1 6.2333140983606565 15.290584262295084 8.341022435368392e-05
190 1 8.83389442622951 14.248736393442623 2.9180539013355636e-05
191 1 11.512181639344263 14.179007213114756 7.878590964846678e-05
192 1 14.095392786885247 14.685440000000002 1.6237570934928502e-05
193 1 18.316709508196723 14.405412459016395 3.209601779299961e-05
194 1 19.83944131147541 14.382590163934427 1.901944536444198e-05
195 1 22.89369049180328 14.353506885245903 7.566245769838166e-05
196 1 25.642161311475412 14.210514098360658 1.3476621223102515e-05
197 1 28.32216524590164 14.708464262295085 8.434420409733185e-05
198 1 30.895681967213118 14.975262950819673 3.849773233552456e-06
199 1 34.482013770491804 14.786070163934427 6.22897394449661e-05
200 1 36.00257442622951 15.014141639344265 5.6056996154708e-05
201 1 38.777957377049184 15.248878032786887 7.267614117656551e-06
202 1 42.437300327868854 14.610712131147544 6.446056691366032e-05
203 1 43.95574032786886 14.410966557377051 7.263775373776414e-05
204 1 46.32845114754099 14.809346885245903 8.635817757352595e-05
205 1 49.06177442622951 14.78642360655738 9.815978908725897e-05
206 1 53.199173770491804 14.372340327868853 5.349717398401571e-05
207 1 54.72049180327869 14.575872786885247 9.847307888491182e-05
208 1 57.3920131147541 14.593191475409839 6.804709653676989e-05
209 1 60.1796655737705 14.696548196721313 8.70965889337745e-05
210 1 62.83805901639345 14.77016524590164 7.584437429256003e-05
211 1 65.41213114754099 14.447371147540984 6.423655888497187e-05
212 1 68.15585573770493 14.65544786885246 2.2478803890743273e-05
213 1 70.7364918032787 14.82136393442623 7.40609669609713e-05
214 1 73.31914754098362 14.379863606557379 8.553376292994796e-05
215 1 75.98360000000001 14.173705573770494 2.63462012241112e-05
216 1 79.80633442622951 14.157901639344264 8.265895171851063e-05
217 1 81.3316918032787 14.265499672131149 3.471781545059848e-05
218 1 82.43443278688525 16.663658360655738 3.853267553430118e-06
219 1 2.462308524590164 16.569541639344262 7.113945143181027e-05
220 1 5.3380439344262305 16.53000655737705 1.3704590809364449e-05
221 1 7.843093770491804 16.921065573770495 2.018247641976928e-05
222 1 10.298358688524592 16.509153442622953 3.5708585547811746e-05
223 1 12.351961311475412 17.99962098360656 9.820594119770106e-05
224 1 14.94380655737705 17.173575081967215 2.368341827258168e-05
225 1 16.731216393442622 16.104411147540986 1.7737097353564768e-05
226 1 20.575965245901642 15.722289180327872 3.5192253520134096e-05
227 1 24.12230754098361 16.470880655737705 6.66117674673417e-05
228 1 26.60892786885246 16.665021639344264 4.950273430394533e-05
229 1 29.10842360655738 17.17382754098361 8.314889161141363e-05
230 1 31.690422950819677 17.475768524590165 9.433382797376755e-06
231 1 34.29827409836066 17.374128524590166 8.679841436631083e-05
232 1 37.038060327868855 17.298390819672132 7.64263039073725e-05
233 1 39.7308386885246 17.461933770491804 4.501492919322336e-06
234 1 42.3879193442623 17.291271475409836 4.995541210002348e-05
235 1 44.88559737704919 17.099352131147544 1.8455035113158704e-05
236 1 47.52374360655738 17.015838688524592 7.012529222384043e-05
237 1 49.62061770491804 16.243516065573772 6.308535600678884e-05
238 1 53.28955409836066 16.82417180327869 1.6412057575813766e-06
239 1 56.02721967213115 16.848256393442625 4.1506625669709387e-05
240 1 58.635626229508205 16.834472131147542 1.452626629930054e-06
241 1 61.29099016393444 17.086981639344263 4.23458272363769e-05
242 1 64.22708852459017 17.03366229508197 5.358864847901288e-05
243 1 66.90365901639345 16.757876065573775 2.9473713074204424e-05
244 1 69.5277180327869 17.054212459016398 5.003396709229846e-06
245 1 72.13158032786886 16.8961731147541 3.6246611289466926e-05
246 1 74.64102295081967 16.576812459016395 7.12846547219798e-05
247 1 77.1888393442623 16.637503606557377 2.6630854347393863e-05
248 1 79.58619016393445 16.628566557377052 3.719636971193623e-05
249 1 1.0945966557377051 18.905393442622955 3.365132247459327e-05
250 1 4.00499468852459 18.617287213114754 8.01845266026746e-05
251 1 6.402714098360656 20.090335081967215 8.44070366782883e-05
252 1 9.188195409836066 19.190924590163938 9.279017438487397e-05
253 1 11.858100983606558 19.45025049180328 2.29459809721949e-05
254 1 14.486401311475412 19.6188931147541 5.302844154092901e-06
255 1 17.120811147540984 18.915693770491803 2.510197443049841e-05
256 1 19.824445245901643 18.353568524590166 5.296949706440643e-05
257 1 22.610380983606557 18.68100786885246 4.2827026839270845e-05
258 1 25.209648524590165 18.970578360655736 1.452769668379289e-05
259 1 27.62815540983607 20.271903606557377 5.4552743705454644e-05
260 1 30.34809836065574 19.666506885245905 2.302713222103059e-05
261 1 33.13055016393443 19.734317377049184 9.535256658430773e-05
262 1 35.82327803278689 19.568098360655743 2.348708138901132e-05
263 1 38.388716065573774 19.620660327868855 3.143396571770716e-05
264 1 41.11774754098361 19.625558032786888 7.814183026386867e-05
265 1 43.800780983606565 19.658478688524593 7.632616802598866e-05
266 1 46.35702950819673 19.37208918032787 7.102931782637194e-05
267 1 49.00244655737705 19.191126557377054 5.2935573862819346e-05
268 1 52.709908196721315 19.091102295081967 9.259742850812325e-07
269 1 54.2428393442623 18.95628918032787 3.673370662472305e-05
270 1 57.02443278688525 19.136140983606563 8.548808054012695e-05
271 1 59.816629508196726 19.24232524590164 5.7662691970032344e-05
272 1 62.022111475409844 18.45046229508197 4.500176221645633e-05
273 1 65.6383344262295 19.137453770491803 7.841120969936102e-05
274 1 68.3260131147541 19.18648131147541 5.757510236418022e-05
275 1 70.96976393442623 19.29175672131148 7.749108941069085e-05
276 1 73.43022950819673 19.117459016393443 9.873211557169749e-06
277 1 75.92704918032787 18.971184262295083 5.139429689726439e-05
278 1 78.42033442622952 19.12109442622951 4.5755738302654396e-05
279 1 81.0428786885246 18.795674754098364 4.5014385131659074e-05
280 1 0.11682641967213116 21.862092459016395 3.8423750676811424e-05
281 1 2.922394885245902 20.795806557377052 4.3135792396571386e-05
282 1 5.628270819672132 21.41837049180328 6.763740541629308e-05
283 1 8.110245901639345 21.650582295081968 7.00891235176273e-05
284 1 10.580910819672132 21.62745704918033 4.181163896557476e-05
285 1 13.182400000000001 21.83841180327869 5.710211136840361e-05
286 1 16.92303475409836 21.14642163934426 1.7526118591971064e-06
287 1 18.424913442622955 20.81585180327869 8.984396677899453e-05
288 1 20.87018098360656 20.711232786885247 2.2105180538805926e-05
289 1 23.585781639344265 21.26224983606558 5.505236047500876e-05
290 1 26.914201311475413 21.61867147540984 7.973984060188869e-05
291 1 29.472065573770493 22.09990885245902 3.187637970977928e-05
292 1 31.943891803278692 21.848510163934428 3.56904479717195e-06
293 1 34.6791337704918 21.895114098360658 1.4732824799123513e-05
294 1 37.350806557377055 21.94979672131148 4.1268442198598226e-05
295 1 40.02091409836066 21.804430819672135 4.025305922757115e-05
296 1 42.352272131147544 22.97614360655738 8.741826580402269e-06
297 1 45.92194163934426 21.744951475409838 3.6229748033695554e-05
298 1 47.4568924590164 21.584589508196725 7.632757947261933e-05
299 1 49.840055081967215 21.76333049180328 1.992613252407809e-05
300 1 52.44836065573771 21.520111475409838 6.0091590511751664e-05
301 1 55.24257704918033 21.189945573770494 4.334180016791275e-05
302 1 58.05396065573771 21.318952131147544 6.614442481183566e-05
303 1 61.64291803278689 21.302390819672134 3.2769749019246784e-05
304 1 64.28868852459017 21.40534360655738 9.352014936962845e-05
305 1 66.97182295081969 21.396810491803283 1.8688764730452846e-05
306 1 69.76250491803279 21.526776393442624 2.8023744351807858e-05
307 1 72.43756065573771 21.634172459016394 6.483236605778297e-05
308 1 74.95508196721312 21.42291475409836 8.645511903346262e-05
309 1 77.3196131147541 22.62345836065574 5.589692278493333e-05
310 1 80.042131147541 21.25987672131148 2.1997789320297203e-05
311 1 2.000303475409836 23.04223737704918 6.804947391151791e-05
312 1 4.130219409836066 24.579056393442624 3.291192944858822e-05
313 1 6.904855081967214 23.94164786885246 2.9810176026504222e-05
314 1 9.31397049180328 24.08953836065574 3.1434466459843158e-06
315 1 11.757773770491804 24.084388196721314 3.0454323374898285e-06
316 1 14.154266229508199 23.99219016393443 9.801431845264571e-05
317 1 16.85764786885246 23.751748196721312 1.3451086984157535e-05
318 1 19.927852459016396 23.23637836065574 7.46362514521167e-05
319 1 22.211748196721313 24.331141639344263 2.3323581061568632e-05
320 1 24.281912131147543 22.674808524590166 8.83613272182686e-05
321 1 27.5683731147541 25.117450491803282 7.434915463390062e-05
322 1 31.517236065573773 24.22197836065574 9.2215281034774e-05
323 1 33.05158098360656 24.05192196721312 3.521480291979381e-05
324 1 35.89275475409836 24.207537704918035 3.71061576084928e-05
325 1 38.64996065573771 24.1988531147541 8.290308519101894e-05
326 1 41.335872131147546 24.12771016393443 2.8204951880963072e-05
327 1 43.636379672131156 24.70099409836066 2.4044209190003064e-05
328 1 45.95213573770492 24.681504262295082 3.641161338148501e-05
329 1 48.79997442622951 24.200721311475412 8.584059238148144e-05
330 1 51.48548196721312 23.92281442622951 6.71627973655367e-05
331 1 54.04592131147542 23.499440655737708 5.1376610383000244e-05
332 1 56.70885901639345 23.360234754098364 3.121440766559931e-05
333 1 59.00977049180329 22.505459016393445 9.212957971993255e-05
334 1 62.546721311475416 23.69327868852459 3.322645983689088e-05
335 1 66.53658360655737 23.466419016393445 9.354546786780656e-05
336 1 68.09880000000001 23.584771803278688 4.80858537791535e-05
337 1 71.00611803278689 23.868030819672132 9.758023108797463e-05
338 1 73.74428852459016 23.968459016393446 6.455770890777443e-05
339 1 76.4072262295082 23.9048393442623 1.9701645033727565e-05
340 1 78.97372459016394 23.863032131147545 9.395118165306429e-05
341 1 0.5082959344262296 23.336200655737706 9.281939452610115e-05
342 1 0.5616304262295082 25.99403868852459 2.6876447639404912e-05
343 1 4.050311081967213 26.106382950819675 4.9318955929678525e-05
344 1 5.557582295081968 26.28557836065574 7.472482339008547e-07
345 1 7.9615980327868865 26.502137704918034 4.4553604639617405e-05
346 1 10.575003278688525 26.554245245901644 3.981609846813703e-05
347 1 13.177754754098363 26.508348196721315 9.232876833155298e-05
348 1 15.80852918032787 26.020092459016393 9.704089913204701e-05
349 1 17.91211868852459 24.865698360655742 1.1690326803613805e-05
350 1 21.475173770491804 25.677505573770492 7.204350769127246e-05
351 1 23.956492459016395 25.68841180327869 9.055728607745366e-05
352 1 26.519153442622954 26.243417704918034 7.755128308740462e-05
353 1 28.783710819672134 26.93581180327869 2.747551162242723e-05
354 1 31.23821836065574 26.893297704918037 8.40680214805761e-05
355 1 34.37577901639345 26.255737704918037 6.292162671833534e-05
356 1 37.16141180327869 26.436599344262294 4.9561326922189625e-06
357 1 40.53290098360656 26.36535540983607 8.638468725384694e-05
358 1 42.00281836065574 26.808219016393444 2.162376962841043e-05
359 1 44.672370491803285 27.169538360655743 3.487015125389875e-05
360 1 46.75419803278689 26.009994098360657 2.2132120652391965e-05
361 1 50.526642622950824 26.26856262295082 3.1622843532997416e-05
362 1 53.08304262295083 26.02953442622951 3.1080374643142695e-05
363 1 55.6248 25.67992918032787 5.395448575457527e-05
364 1 58.32156721311476 25.308259016393446 5.157071905091315e-06
365 1 60.860800000000005 25.319215737704923 3.508337417876933e-05
366 1 63.29147540983607 26.512236065573774 1.997755029222921e-05
367 1 66.97990163934426 25.86674885245902 6.184643050893557e-05
368 1 69.71756721311476 25.788940983606558 7.166248249499423e-05
369 1 72.30931147540984 26.211759344262298 7.485834121922844e-05
370 1 74.8980262295082 26.326123278688527 3.0274593168229394e-05
371 1 78.36479344262295 26.06467672131148 1.6225780549723968e-05
372 1 79.64678032786885 25.228986885245906 5.250098664218763e-05
373 1 0.9385062950819673 28.277681967213116 5.6140481790121715e-05
374 1 3.4683779016393443 28.877878032786885 5.214819503635773e-05
375 1 6.305214426229509 28.83465704918033 5.472441104703018e-05
376 1 9.142500327868854 28.877979016393443 7.473562356515807e-06
377 1 11.967617704918034 28.894893770491805 3.889101390874136e-05
378 1 15.77045836065574 28.014367213114756 9.57914580180172e-05
379 1 17.292584262295083 27.804119344262297 2.2073842289810653e-05
380 1 19.662467540983606 27.72515016393443 2.1946191322224586e-05
381 1 22.3354531147541 28.07344262295082 8.303159367771896e-05
382 1 24.914473442622953 28.296111475409838 7.639049953467128e-05
383 1 27.374535081967217 29.00759147540984 9.71506022002815e-05
384 1 30.162389508196725 29.296758032786887 7.026587634688016e-05
385 1 32.151211147540984 28.13635540983607 9.903336554212912e-05
386 1 35.37970754098361 29.68781704918033 1.4330819934274819e-05
387 1 38.096923934426236 29.108221639344265 1.4418445156773974e-05
388 1 40.236211147540985 29.070049836065575 2.7812798676673526e-06
389 1 43.21068327868853 29.244953442622954 2.9392105755672285e-05
390 1 46.429232786885244 29.00370360655738 9.709596881325989e-05
391 1 49.183661639344265 28.443749508196724 7.1937860388121445e-06
392 1 52.082800000000006 28.499441967213116 5.941667396368631e-05
393 1 54.72756065573771 28.182959344262297 8.410917895794016e-05
394 1 57.2920393442623 27.688493114754102 1.8158403533699275e-05
395 1 59.19457049180328 29.03298885245902 4.463514638994203e-05
396 1 63.07587540983607 28.072988196721315 8.358301988290109e-05
397 1 66.22858360655738 28.27919672131148 2.7898790888395434e-05
398 1 68.73752131147542 27.97498360655738 9.859687122220072e-05
399 1 70.59107540983607 29.703671475409838 2.9088923705302327e-05
400 1 73.31460327868852 28.692169180327873 1.4242836853382657e-05
401 1 75.82859016393444 28.85157180327869 6.885568454438734e-05
402 1 78.33045901639345 28.78825508196722 2.648329276792475e-05
403 1 82.10219672131147 28.251678688524596 6.755179538698722e-05
404 1 82.11027540983608 30.671801311475413 3.4678793386092815e-05
405 1 1.8918470819672133 31.69254360655738 4.622410971635953e-05
406 1 4.771031081967214 31.050944262295086 7.362714422571743e-05
407 1 7.5286308196721325 31.018074098360657 8.022814304008189e-05
408 1 10.36036262295082 31.07119147540984 7.116648153313314e-05
409 1 14.069036065573773 30.834485901639347 1.3932732909349145e-05
410 1 15.59409049180328 30.67841573770492 2.424303368998866e-05
411 1 18.245061639344264 30.344614426229512 6.591232472214661e-05
412 1 20.75425180327869 30.175416393442624 8.556615519213242e-05
413 1 23.431074754098365 30.536028852459022 1.937748863751452e-05
414 1 25.96101704918033 30.997321967213118 9.752061147315674e-05
415 1 28.747154754098364 31.263514754098363 2.231919444227344e-05
416 1 31.769493114754102 31.161470819672132 6.05445431389711e-05
417 1 35.24428852459017 31.194290491803283 5.9492209263565724e-05
418 1 36.73450360655738 31.485173770491805 6.96519570890068e-05
419 1 39.15437377049181 31.725110819672135 5.6821953352565474e-05
420 1 41.75217704918033 30.988687868852463 2.2134200047113262e-05
421 1 44.178005245901645 30.443426885245902 6.67172951266881e-05
422 1 47.78852262295083 30.87523278688525 2.8446969938185496e-05
423 1 50.64731803278689 30.533453770491803 2.482598629511641e-05
424 1 54.37462295081968 30.394601311475412 2.1640055330845567e-05
425 1 55.89392131147542 30.258222950819675 3.137450836288397e-05
426 1 58.66238688524591 30.46746098360656 7.574265627255584e-05
427 1 60.61339016393443 29.575624262295083 2.2256401008506734e-05
428 1 63.88323934426231 29.380473442622954 8.275854974178699e-06
429 1 66.86881967213115 31.734098360655743 5.213694175739936e-05
430 1 69.74180327868854 31.015902950819676 3.184286323414031e-05
431 1 72.218931147541 31.243368524590167 1.4305601557442039e-05
432 1 74.67889180327869 31.191513442622952 5.003733663617369e-05
433 1 77.12572459016394 31.22902885245902 2.5943660917092216e-06
434 1 79.75735737704919 31.14041573770492 9.77813630460017e-05
435 1 1.3741596721311478 33.126914754098365 3.8641601760068355e-05
436 1 3.6970350819672135 34.548713442622955 8.352170686180571e-06
437 1 6.195495737704919 33.28293442622952 6.7556419826588e-06
438 1 8.838640655737706 33.18119344262295 6.267803627575527e-05
439 1 11.453106229508197 33.579068852459024 1.4583366273267029e-05
440 1 14.104430819672134 33.106415081967214 6.840526559476845e-05
441 1 16.992158032786886 32.906871475409844 5.8457215453188886e-05
442 1 20.084881967213118 32.62381442622951 2.6215349645823483e-05
443 1 21.619226885245904 32.55272196721312 6.861991802611643e-05
444 1 24.230259016393447 33.099598688524594 4.0982619108540376e-05
445 1 27.22417049180328 33.307170491803284 1.66954160534194e-05
446 1 29.969409836065577 33.04739016393442 1.0888866938962506e-05
447 1 32.59872 33.72822163934427 7.924536425461077e-05
448 1 35.740774426229514 33.379575737704926 2.339723028386035e-05
449 1 37.21569049180329 32.92737114754099 9.066803480415628e-05
450 1 41.051401311475416 33.47000655737705 5.717663140817106e-05
451 1 43.46955475409836 34.150939016393444 3.78262710823285e-05
452 1 46.31835278688525 33.342767213114755 9.457459889132253e-05
453 1 49.762146229508204 32.636790819672136 9.244755539658707e-05
454 1 51.218885245901646 33.02724393442624 5.551826813064014e-05
455 1 53.00780983606558 32.43608590163935 1.4273173846398291e-05
456 1 56.411462295081975 31.71556786885246 6.812772203172668e-05
457 1 60.12967868852459 32.50839016393443 4.824694846050921e-05
458 1 62.895114754098365 32.12631868852459 6.58901383649629e-05
459 1 65.66206557377049 32.70621704918033 2.6535150932217458e-05
460 1 68.19321967213115 33.35215868852459 6.249847243602924e-06
461 1 70.74860983606558 33.54372459016393 6.683251403882614e-05