ITEM: TIMESTEP
0
ITEM: NUMBER OF ATOMS
2232
ITEM: BOX BOUNDS xy xz yz pp pp pp
0.0 82.68810555352132 0
0.0 83.16 0
-10.0 10.0 0
ITEM: ATOMS id type x y z vx vy vz
1 1 1.785597180327869 0.8780979016393443 4.15755305695e-05 0.0 0.0 0.0
2 1 4.524045377049181 0.9218187540983608 2.49637870563e-05 0.0 0.0 0.0
3 1 7.164786885245902 0.8042586885245903 5.21203459241e-05 0.0 0.0 0.0
4 1 9.242474098360656 2.288753049180328 3.27853278875e-05 0.0 0.0 0.0
5 1 13.23051868852459 0.9885184262295084 2.47192548918e-05 0.0 0.0 0.0
6 1 14.784656393442626 1.1226095081967213 1.85996842958e-05 0.0 0.0 0.0
7 1 17.427346885245903 1.1957367868852462 6.63753248895e-05 0.0 0.0 0.0
8 1 20.11962032786885 1.0323200655737705 4.78765106301e-05 0.0 0.0 0.0
9 1 22.60992655737705 0.9177844590163935 2.3572374261e-07 0.0 0.0 0.0
10 1 25.197984918032788 1.0038376393442625 3.30571284054e-05 0.0 0.0 0.0
11 1 27.737470163934432 1.5339763278688525 1.48296622974e-05 0.0 0.0 0.0
12 1 30.316490491803282 1.2631332459016396 8.05702472286e-05 0.0 0.0 0.0
13 1 33.1237337704918 0.8484339672131148 3.1948386509e-05 0.0 0.0 0.0
14 1 36.88173770491804 0.4288026491803279 9.55248594332e-05 0.0 0.0 0.0
15 1 38.44461049180328 0.4299508327868853 1.82180477527e-05 0.0 0.0 0.0
16 1 41.21852918032788 0.5286996721311475 6.14049249138e-05 0.0 0.0 0.0
17 1 43.960840000000005 0.4250440393442623 5.15979340493e-05 0.0 0.0 0.0
18 1 46.606812459016396 0.33948567868852464 4.01255884643e-05 0.0 0.0 0.0
19 1 49.29964131147542 0.5093310163934427 6.98793474895e-05 0.0 0.0 0.0
20 1 52.361514754098366 0.3739862229508197 2.08736278384e-05 0.0 0.0 0.0
21 1 55.12038688524591 0.12338782950819674 1.40817991281e-05 0.0 0.0 0.0
22 1 57.80453114754099 0.1795412786885246 8.36718807442e-05 0.0 0.0 0.0
23 1 60.553304918032794 0.6855524590163935 3.63690068279e-05 0.0 0.0 0.0
24 1 63.14656393442624 0.8547858360655738 2.49935458636e-05 0.0 0.0 0.0
25 1 65.6736786885246 0.6099763278688525 6.56508851123e-05 0.0 0.0 0.0
26 1 68.28259016393444 0.611112393442623 1.97441611324e-05 0.0 0.0 0.0
27 1 70.97632786885247 0.666703868852459 4.75627287021e-05 0.0 0.0 0.0
28 1 73.65188852459018 0.7617597377049181 2.01990570673e-05 0.0 0.0 0.0
29 1 76.31634098360655 0.8232991475409837 3.43518991465e-05 0.0 0.0 0.0
30 1 79.00300983606559 0.8348567213114756 6.51821339844e-05 0.0 0.0 0.0
31 1 81.72956721311476 0.846348655737705 7.03007150101e-05 0.0 0.0 0.0
32 1 0.33221536393442624 3.095692852459017 8.3179033066e-05 0.0 0.0 0.0
33 1 3.0774956065573775 3.1500927213114753 1.93618669342e-05 0.0 0.0 0.0
34 1 5.747582950819673 3.222654491803279 1.28677795944e-05 0.0 0.0 0.0
35 1 8.376388196721313 3.5732897704918036 9.23345532536e-05 0.0 0.0 0.0
36 1 10.63993573770492 3.9923212459016395 9.50041457087e-05 0.0 0.0 0.0
37 1 13.084597377049182 3.506862754098361 2.05835275655e-05 0.0 0.0 0.0
38 1 16.290725901639345 3.543095672131148 7.18455435492e-05 0.0 0.0 0.0
39 1 18.94937180327869 3.3955333770491807 5.76021741908e-05 0.0 0.0 0.0
40 1 21.518192786885248 3.41588662295082 1.29365632067e-05 0.0 0.0 0.0
41 1 24.00552 3.2922019016393445 6.99170809215e-05 0.0 0.0 0.0
42 1 26.29027409836066 4.712233377049181 3.8476864774e-05 0.0 0.0 0.0
43 1 29.079542295081968 3.747329967213115 4.02441014529e-05 0.0 0.0 0.0
44 1 31.7427324590164 3.2486325245901644 4.44232711513e-05 0.0 0.0 0.0
45 1 34.3827468852459 3.206729377049181 2.3057769225e-05 0.0 0.0 0.0
46 1 36.96666491803279 2.947459016393443 8.9696157032e-05 0.0 0.0 0.0
47 1 39.81985573770493 2.7485768524590166 3.70294012519e-05 0.0 0.0 0.0
48 1 42.61826295081968 2.748223409836066 7.91478635647e-05 0.0 0.0 0.0
49 1 45.352242622950826 2.7296373770491806 7.98631821325e-05 0.0 0.0 0.0
50 1 47.97554426229508 2.696747016393443 8.24881024348e-05 0.0 0.0 0.0
51 1 50.057018360655746 1.8709737704918035 5.82781710093e-05 0.0 0.0 0.0
52 1 53.82426229508197 2.441339278688525 8.46858068668e-05 0.0 0.0 0.0
53 1 56.39732459016394 2.4563302950819677 6.0835162931e-05 0.0 0.0 0.0
54 1 59.01835409836066 2.627517704918033 2.72177332243e-05 0.0 0.0 0.0
55 1 61.7580393442623 3.087371803278689 7.47067384716e-05 0.0 0.0 0.0
56 1 64.46086557377049 3.108699540983607 3.22799004526e-05 0.0 0.0 0.0
57 1 66.98444590163935 2.9527101639344266 3.91764414887e-05 0.0 0.0 0.0
58 1 69.7044393442623 2.903495803278689 1.17662214061e-05 0.0 0.0 0.0
59 1 72.35828852459017 3.00217193442623 1.06477183455e-05 0.0 0.0 0.0
60 1 74.96820983606558 3.098540590163935 7.06397110817e-05 0.0 0.0 0.0
61 1 77.60388196721313 3.1159097704918035 2.08059840889e-05 0.0 0.0 0.0
62 1 80.27237377049181 3.085932786885246 8.3467063236e-05 0.0 0.0 0.0
63 1 1.5797622950819674 5.350717377049182 2.47022931231e-05 0.0 0.0 0.0
64 1 4.221655016393443 5.496335737704919 7.46870206803e-05 0.0 0.0 0.0
65 1 6.804224918032787 5.722589508196722 1.8601962897e-05 0.0 0.0 0.0
66 1 9.44100786885246 6.283401967213115 1.32193234449e-05 0.0 0.0 0.0
67 1 12.993510163934427 5.739453770491804 6.91408381034e-05 0.0 0.0 0.0
68 1 14.077468196721313 4.668310557377049 4.12962329358e-05 0.0 0.0 0.0
69 1 17.599877377049182 5.76000393442623 1.18415337777e-05 0.0 0.0 0.0
70 1 20.1979331147541 5.795752131147542 5.40847975176e-05 0.0 0.0 0.0
71 1 22.82976786885246 5.8112531147540984 8.93123017678e-05 0.0 0.0 0.0
72 1 25.51633573770492 6.042404590163935 4.74575600971e-05 0.0 0.0 0.0
73 1 28.027798032786887 6.162878032786886 1.58881589194e-05 0.0 0.0 0.0
74 1 30.595811147540985 5.7661134426229514 4.06354609615e-05 0.0 0.0 0.0
75 1 33.20330885245902 5.546272131147542 8.39662983807e-05 0.0 0.0 0.0
76 1 35.91370885245902 5.411307540983607 2.00367967603e-05 0.0 0.0 0.0
77 1 38.621230819672135 5.023485049180328 9.36228786535e-05 0.0 0.0 0.0
78 1 41.36404655737706 4.974331278688525 8.56900179245e-05 0.0 0.0 0.0
79 1 44.137561311475416 5.0106702295081975 8.62589363498e-05 0.0 0.0 0.0
80 1 46.921931803278696 5.0581173770491805 5.82428880963e-06 0.0 0.0 0.0
81 1 49.645510163934425 4.849470098360656 9.68812094111e-05 0.0 0.0 0.0
82 1 52.30041967213115 4.57022518032787 7.3559495107e-05 0.0 0.0 0.0
83 1 54.96436721311476 4.818856918032787 2.63419959434e-05 0.0 0.0 0.0
84 1 57.50006557377049 4.873923278688525 8.93986443124e-05 0.0 0.0 0.0
85 1 60.33114098360656 5.034340786885247 4.14757353098e-06 0.0 0.0 0.0
86 1 63.114249180327874 5.351070819672131 1.09201217136e-05 0.0 0.0 0.0
87 1 65.78072131147542 5.439633442622951 2.6609555114e-05 0.0 0.0 0.0
88 1 68.39367213114755 5.1547081967213115 1.12443978961e-05 0.0 0.0 0.0
89 1 71.05206557377049 5.251500983606558 1.23717919493e-05 0.0 0.0 0.0
90 1 73.60392131147542 5.40004786885246 9.91407774987e-05 0.0 0.0 0.0
91 1 76.22899016393444 5.440138360655738 1.66010185107e-05 0.0 0.0 0.0
92 1 78.84699016393442 5.4008557377049184 5.3446024443e-05 0.0 0.0 0.0
93 1 81.48821639344264 5.306234098360656 8.69349735898e-05 0.0 0.0 0.0
94 1 82.67426885245902 7.4879849180327875 9.6706293838e-05 0.0 0.0 0.0
95 1 2.6456897049180332 7.734788852459017 2.58518936392e-05 0.0 0.0 0.0
96 1 5.211208524590164 7.970787540983608 5.83407322607e-06 0.0 0.0 0.0
97 1 7.811435409836067 8.260610491803279 3.00554162582e-05 0.0 0.0 0.0
98 1 10.512746885245901 8.579163278688526 6.49863055043e-05 0.0 0.0 0.0
99 1 13.174068852459017 8.361190163934427 9.28580060033e-05 0.0 0.0 0.0
100 1 15.958489836065576 7.915801967213116 8.08957157177e-05 0.0 0.0 0.0
101 1 18.673838032786886 8.127867540983608 5.4318173383e-05 0.0 0.0 0.0
102 1 21.375906885245904 8.151750163934427 6.76705079767e-05 0.0 0.0 0.0
103 1 24.022485245901642 8.22713442622951 6.54413596886e-05 0.0 0.0 0.0
104 1 26.650886557377053 8.494236065573771 7.79438734077e-05 0.0 0.0 0.0
105 1 29.307613770491805 8.29827737704918 8.13881721105e-05 0.0 0.0 0.0
106 1 31.941821639344266 7.992852459016394 8.79607520453e-05 0.0 0.0 0.0
107 1 34.63964918032787 7.734940327868854 6.07662538616e-05 0.0 0.0 0.0
108 1 37.37549704918033 7.465061639344263 6.60959516006e-05 0.0 0.0 0.0
109 1 40.097207213114764 7.264407213114755 3.39018211463e-05 0.0 0.0 0.0
110 1 42.83103540983607 7.23497049180328 2.21345176388e-05 0.0 0.0 0.0
111 1 45.579001311475416 7.275818360655738 8.68076467151e-05 0.0 0.0 0.0
112 1 48.34120590163935 7.296671475409837 3.57104395154e-05 0.0 0.0 0.0
113 1 51.846498360655744 6.888495737704918 4.52303768677e-05 0.0 0.0 0.0
114 1 53.40619016393443 6.98932786885246 4.57314747922e-05 0.0 0.0 0.0
115 1 56.045901639344265 7.268749508196722 1.91328117937e-05 0.0 0.0 0.0
116 1 58.8476918032787 7.0604708196721315 5.03359149547e-05 0.0 0.0 0.0
117 1 61.63130491803279 7.355494426229509 9.90825091995e-06 0.0 0.0 0.0
118 1 64.2836393442623 7.702878032786885 5.43583908587e-05 0.0 0.0 0.0
119 1 67.91450491803279 7.431838032786886 5.25538087932e-05 0.0 0.0 0.0
120 1 69.45349508196722 7.459255081967213 7.27954403967e-05 0.0 0.0 0.0
121 1 72.09320655737706 7.704493770491804 6.84271365375e-05 0.0 0.0 0.0
122 1 74.81067540983607 7.759277377049181 9.88759567227e-05 0.0 0.0 0.0
123 1 77.5044131147541 7.769628196721312 8.50376909376e-05 0.0 0.0 0.0
124 1 80.10171147540984 7.672078032786885 4.83252385332e-06 0.0 0.0 0.0
125 1 2.0034642622950822 10.484370491803281 9.06383849426e-06 0.0 0.0 0.0
126 1 3.548457901639345 10.208382295081968 4.58356338956e-06 0.0 0.0 0.0
127 1 6.296933770491804 10.454731803278689 6.38325043692e-05 0.0 0.0 0.0
128 1 9.07872918032787 10.654729836065576 6.29892953709e-05 0.0 0.0 0.0
129 1 11.890264262295084 10.739202622950822 9.65434065817e-05 0.0 0.0 0.0
130 1 14.612125901639345 10.351829508196722 6.42164788792e-05 0.0 0.0 0.0
131 1 17.260017049180327 10.323958032786885 5.18169703559e-05 0.0 0.0 0.0
132 1 19.93704196721312 10.43579737704918 8.50567083849e-05 0.0 0.0 0.0
133 1 22.63567737704918 10.531580327868854 6.41143034386e-05 0.0 0.0 0.0
134 1 25.300230819672134 10.692295737704919 7.23159100295e-05 0.0 0.0 0.0
135 1 27.948020983606558 10.698607213114755 2.76425598302e-05 0.0 0.0 0.0
136 1 30.618986885245906 10.452510163934427 7.90823015578e-05 0.0 0.0 0.0
137 1 33.3203993442623 10.121182950819673 1.73690152272e-05 0.0 0.0 0.0
138 1 36.035394098360655 9.829693770491804 1.64877177876e-05 0.0 0.0 0.0
139 1 38.77285770491804 9.620354754098361 6.14211358756e-05 0.0 0.0 0.0
140 1 41.49678950819672 9.516745573770493 5.29188819889e-06 0.0 0.0 0.0
141 1 44.17689442622952 9.521996721311476 4.54027672471e-05 0.0 0.0 0.0
142 1 46.797166557377054 9.557997377049182 1.36806340203e-05 0.0 0.0 0.0
143 1 49.36967344262296 9.765872131147542 1.07173639955e-05 0.0 0.0 0.0
144 1 51.89295081967214 9.650750819672131 3.6707566192e-05 0.0 0.0 0.0
145 1 54.64475409836066 9.56037049180328 6.95865700746e-05 0.0 0.0 0.0
146 1 58.39579016393443 9.057977049180328 1.61695636145e-05 0.0 0.0 0.0
147 1 59.91104918032787 9.328259672131148 5.82699785368e-05 0.0 0.0 0.0
148 1 62.48663606557378 9.78561442622951 3.55182728518e-05 0.0 0.0 0.0
149 1 65.16118688524591 10.126939016393443 6.14134806797e-06 0.0 0.0 0.0
150 1 67.78625573770493 10.03928524590164 6.49515187706e-05 0.0 0.0 0.0
151 1 70.59259016393443 9.915428852459018 3.40391304607e-05 0.0 0.0 0.0
152 1 73.36408524590165 10.001719344262295 4.58648112715e-06 0.0 0.0 0.0
153 1 76.1497180327869 10.05468524590164 8.2164215935e-05 0.0 0.0 0.0
154 1 78.95958688524591 10.081849836065576 3.4104780193e-05 0.0 0.0 0.0
155 1 81.7472393442623 9.90416918032787 7.33842781457e-05 0.0 0.0 0.0
156 1 0.18223501639344264 12.767054426229508 5.04839004479e-05 0.0 0.0 0.0
157 1 2.462616524590164 13.0461731147541 2.08890478854e-05 0.0 0.0 0.0
158 1 5.090533114754098 12.591292459016396 2.81495207467e-05 0.0 0.0 0.0
159 1 7.753521311475411 12.752866229508198 4.35427290187e-05 0.0 0.0 0.0
160 1 10.501638688524592 12.85980786885246 6.65298385362e-05 0.0 0.0 0.0
161 1 13.254552786885247 12.782201967213116 7.42868458423e-05 0.0 0.0 0.0
162 1 15.910320655737706 12.684853770491804 7.54457622907e-05 0.0 0.0 0.0
163 1 18.534228196721312 12.703232786885247 7.30163547559e-06 0.0 0.0 0.0
164 1 21.196004590163938 12.77624393442623 8.95304902348e-05 0.0 0.0 0.0
165 1 23.945030819672134 12.932819016393445 1.65526950251e-05 0.0 0.0 0.0
166 1 26.638920000000002 13.04188131147541 7.29182200561e-05 0.0 0.0 0.0
167 1 29.29241573770492 12.8736931147541 3.27137465042e-05 0.0 0.0 0.0
168 1 32.03245442622951 12.533277377049181 7.53110195834e-05 0.0 0.0 0.0
169 1 34.69468524590164 12.215431475409838 7.12127344492e-05 0.0 0.0 0.0
170 1 37.39387606557377 11.952722622950821 6.50025103663e-06 0.0 0.0 0.0
171 1 40.14411409836066 11.823312131147542 9.33724440082e-05 0.0 0.0 0.0
172 1 42.841790163934434 11.827452459016394 4.02437248425e-05 0.0 0.0 0.0
173 1 45.41929573770492 11.908390819672134 7.61303820958e-05 0.0 0.0 0.0
174 1 47.98756131147542 12.043658360655739 8.21247608695e-05 0.0 0.0 0.0
175 1 50.61904262295082 12.124344262295082 2.18104862947e-05 0.0 0.0 0.0
176 1 53.23653770491804 11.945401311475411 7.34293209582e-05 0.0 0.0 0.0
177 1 56.613429508196724 11.786301639344263 9.12829477067e-05 0.0 0.0 0.0
178 1 58.1468655737705 11.706373114754099 2.51808536847e-05 0.0 0.0 0.0
179 1 60.917855737704926 11.913995409836067 7.80419670052e-05 0.0 0.0 0.0
180 1 63.68177704918033 12.217703606557377 2.62830815314e-05 0.0 0.0 0.0
181 1 66.47094426229508 12.393869508196723 8.24572799493e-05 0.0 0.0 0.0
182 1 69.21365901639345 12.17953180327869 3.47333013064e-05 0.0 0.0 0.0
183 1 71.93062295081968 12.193013114754098 9.39285804736e-05 0.0 0.0 0.0
184 1 74.67586229508197 12.243757377049182 9.20946034284e-05 0.0 0.0 0.0
185 1 77.43574426229509 12.268296393442624 2.13812517016e-05 0.0 0.0 0.0
186 1 80.1724 12.253199344262297 9.69237939951e-05 0.0 0.0 0.0
187 1 1.1732174426229511 15.398737704918034 4.38909002587e-05 0.0 0.0 0.0
188 1 3.8701815737704925 15.091444590163936 9.23148464422e-05 0.0 0.0 0.0
189 1 6.475826229508197 14.981069508196724 4.41828586281e-05 0.0 0.0 0.0
190 1 9.141137049180328 15.037620327868854 1.68561846549e-05 0.0 0.0 0.0
191 1 11.859262295081969 15.05620131147541 5.8969323465e-06 0.0 0.0 0.0
192 1 14.551889180327871 15.058321967213116 8.83930565116e-05 0.0 0.0 0.0
193 1 17.17307016393443 15.05625180327869 7.29773375459e-05 0.0 0.0 0.0
194 1 19.75931081967213 15.06741049180328 6.2479436945e-05 0.0 0.0 0.0
195 1 22.388469508196724 15.085032131147543 2.72375221544e-06 0.0 0.0 0.0
196 1 25.132194098360657 15.296239344262297 8.48895233653e-05 0.0 0.0 0.0
197 1 28.211133770491806 15.295784918032789 6.61871483997e-05 0.0 0.0 0.0
198 1 30.888512131147543 14.908967213114755 6.71847125069e-05 0.0 0.0 0.0
199 1 33.458898360655745 14.660244590163936 5.03261721277e-05 0.0 0.0 0.0
200 1 36.03266754098361 14.33442098360656 7.3626298804e-05 0.0 0.0 0.0
201 1 38.72352721311476 14.097513442622953 2.20536903425e-05 0.0 0.0 0.0
202 1 41.50300000000001 14.099230163934427 3.06025791805e-05 0.0 0.0 0.0
203 1 44.054653770491804 14.259390163934427 3.95243431475e-05 0.0 0.0 0.0
204 1 46.56823672131148 14.370977049180329 7.72107154463e-05 0.0 0.0 0.0
205 1 49.159072131147546 14.430910819672132 7.81116426309e-05 0.0 0.0 0.0
206 1 51.77732459016394 14.403847213114757 2.78618197417e-05 0.0 0.0 0.0
207 1 54.32261639344263 14.503265573770493 4.42283225508e-05 0.0 0.0 0.0
208 1 56.918400000000005 14.317304262295083 2.66537890215e-05 0.0 0.0 0.0
209 1 59.657075409836075 14.074691147540985 3.09064876066e-05 0.0 0.0 0.0
210 1 62.35232786885246 14.286807213114756 2.12925025182e-05 0.0 0.0 0.0
211 1 65.08948852459017 14.493621639344264 4.05674502773e-05 0.0 0.0 0.0
212 1 67.83876721311476 14.52073573770492 7.37634637707e-05 0.0 0.0 0.0
213 1 70.5325049180328 14.467062950819674 2.3556384085e-05 0.0 0.0 0.0
214 1 73.22472786885247 14.471253770491805 8.75159100866e-05 0.0 0.0 0.0
215 1 75.93260327868853 14.493672131147541 6.26921823491e-05 0.0 0.0 0.0
216 1 78.62179672131148 14.525078032786887 2.5396777153e-05 0.0 0.0 0.0
217 1 81.24888524590165 14.73896131147541 6.80089829949e-05 0.0 0.0 0.0
218 1 82.45361967213115 17.307529836065576 3.71364976072e-05 0.0 0.0 0.0
219 1 2.4892307540983607 17.473092459016396 9.09981028852e-05 0.0 0.0 0.0
220 1 5.144357377049181 17.37746098360656 3.81583475129e-05 0.0 0.0 0.0
221 1 7.774980327868853 17.316416393442623 6.61364551469e-05 0.0 0.0 0.0
222 1 10.441149508196721 17.309398032786884 8.0089386974e-05 0.0 0.0 0.0
223 1 13.154377049180328 17.348680655737706 5.94038062355e-05 0.0 0.0 0.0
224 1 15.834229508196723 17.41719803278689 6.4883497158e-05 0.0 0.0 0.0
225 1 18.42960918032787 17.45299672131148 1.85297379912e-05 0.0 0.0 0.0
226 1 21.03836918032787 17.418763278688523 6.63661777387e-05 0.0 0.0 0.0
227 1 23.751697704918037 17.392204590163935 2.70326075968e-05 0.0 0.0 0.0
228 1 25.96778295081967 16.59387868852459 7.66472212453e-05 0.0 0.0 0.0
229 1 29.684484590163937 17.34004655737705 3.62620304368e-05 0.0 0.0 0.0
230 1 32.2547193442623 17.149843934426233 2.4233828604e-06 0.0 0.0 0.0
231 1 34.83177049180328 16.847902950819677 8.58682598348e-05 0.0 0.0 0.0
232 1 37.31995606557377 16.458712131147543 4.15766166359e-06 0.0 0.0 0.0
233 1 40.05004786885247 16.258764590163935 5.29436153102e-05 0.0 0.0 0.0
234 1 42.60912393442623 16.571813770491804 3.55533499891e-05 0.0 0.0 0.0
235 1 45.14951803278689 16.754291147540986 9.75103247542e-05 0.0 0.0 0.0
236 1 47.66754426229508 16.775851147540983 9.04352097737e-05 0.0 0.0 0.0
237 1 50.2497455737705 16.76711606557377 5.154074537e-05 0.0 0.0 0.0
238 1 53.39760655737705 16.797815081967215 1.20067589924e-05 0.0 0.0 0.0
239 1 56.07771147540984 16.67744262295082 1.14538926131e-05 0.0 0.0 0.0
240 1 58.607855737704924 16.429729836065576 6.58647095224e-05 0.0 0.0 0.0
241 1 61.17435409836066 16.469012459016394 7.09907017689e-06 0.0 0.0 0.0
242 1 63.81457049180328 16.635332459016393 2.80975657263e-05 0.0 0.0 0.0
243 1 66.49417049180329 16.75212 2.51638608552e-05 0.0 0.0 0.0
244 1 69.16064262295082 16.787666229508197 3.02767249884e-05 0.0 0.0 0.0
245 1 71.8104524590164 16.767065573770495 8.09214802632e-05 0.0 0.0 0.0
246 1 74.47995409836065 16.763177704918036 8.65286254151e-05 0.0 0.0 0.0
247 1 77.16308852459018 16.804681967213114 3.36219224976e-05 0.0 0.0 0.0
248 1 79.82350163934427 16.962569836065576 1.50951325801e-05 0.0 0.0 0.0
249 1 1.0917792131147541 19.629647868852462 5.07937738599e-05 0.0 0.0 0.0
250 1 3.747612721311476 19.72295672131148 2.32123591764e-05 0.0 0.0 0.0
251 1 6.38256786885246 19.673727213114756 8.42542209969e-06 0.0 0.0 0.0
252 1 9.009706885245903 19.615712131147543 4.25276028443e-05 0.0 0.0 0.0
253 1 11.663101639344264 19.588093114754102 3.38608960987e-05 0.0 0.0 0.0
254 1 14.406169836065576 19.685643278688527 2.78658238838e-06 0.0 0.0 0.0
255 1 17.09061704918033 19.824748196721313 4.8747451566e-06 0.0 0.0 0.0
256 1 19.770469508196722 19.808085901639345 3.85495481066e-07 0.0 0.0 0.0
257 1 22.561353442622952 19.647622950819674 3.42793383744e-05 0.0 0.0 0.0
258 1 25.481193442622953 19.443484590163937 9.88332689761e-05 0.0 0.0 0.0
259 1 28.241176393442625 19.554011147540987 2.3627737855e-05 0.0 0.0 0.0
260 1 30.950465573770497 19.61389442622951 5.0308724365e-05 0.0 0.0 0.0
261 1 33.72579803278689 19.348459016393445 5.03103817133e-05 0.0 0.0 0.0
262 1 36.39080590163935 19.039297704918035 2.41081878121e-06 0.0 0.0 0.0
263 1 38.953820327868854 18.51978754098361 4.31254139153e-05 0.0 0.0 0.0
264 1 40.87765901639345 20.04201442622951 4.28755016923e-05 0.0 0.0 0.0
265 1 43.58977573770492 19.062019016393442 1.36020653144e-06 0.0 0.0 0.0
266 1 46.3149193442623 19.211424262295083 7.49311896773e-05 0.0 0.0 0.0
267 1 49.13715868852459 19.13351540983607 3.38620948749e-05 0.0 0.0 0.0
268 1 51.219895081967216 17.95195672131148 8.08954029486e-05 0.0 0.0 0.0
269 1 54.91892459016394 18.966387540983607 6.00112580129e-05 0.0 0.0 0.0
270 1 57.43493114754099 18.934527213114755 6.70068518557e-05 0.0 0.0 0.0
271 1 59.97264918032788 18.834805901639346 1.16775456001e-05 0.0 0.0 0.0
272 1 62.57651147540984 18.881056393442627 8.99541729862e-05 0.0 0.0 0.0
273 1 65.2152131147541 18.99678360655738 2.84687495706e-05 0.0 0.0 0.0
274 1 67.84230163934427 19.090193442622954 2.0971635643e-05 0.0 0.0 0.0
275 1 70.44111475409836 19.110036721311477 4.27609334343e-05 0.0 0.0 0.0
276 1 73.06416393442625 19.076611147540984 2.62007228955e-06 0.0 0.0 0.0
277 1 75.73820983606558 19.07837836065574 2.68250341469e-05 0.0 0.0 0.0
278 1 78.44204590163935 19.18774360655738 7.95277216444e-05 0.0 0.0 0.0
279 1 81.11053770491803 19.43298229508197 6.56348184659e-05 0.0 0.0 0.0
280 1 82.4404918032787 21.818921967213118 3.81283447518e-05 0.0 0.0 0.0
281 1 2.352897836065574 21.985898360655742 9.85188466215e-05 0.0 0.0 0.0
282 1 4.97922393442623 22.022454426229512 3.59937752995e-05 0.0 0.0 0.0
283 1 7.59416918032787 21.975093114754102 1.93925421567e-06 0.0 0.0 0.0
284 1 10.178743606557378 21.907838032786888 4.08982349145e-05 0.0 0.0 0.0
285 1 12.720955409836066 21.839674098360657 6.40989716633e-05 0.0 0.0 0.0
286 1 15.361828196721312 22.029321311475414 4.28867379541e-05 0.0 0.0 0.0
287 1 18.38502491803279 22.151612459016395 5.39786340587e-05 0.0 0.0 0.0
288 1 21.45108918032787 21.91430098360656 3.45383112091e-05 0.0 0.0 0.0
289 1 24.09443606557377 21.584589508196725 7.94426799103e-05 0.0 0.0 0.0
290 1 26.785093770491805 21.787516065573772 8.27027529765e-06 0.0 0.0 0.0
291 1 29.818540327868853 21.899001967213117 9.54596636644e-05 0.0 0.0 0.0
292 1 32.599830819672135 21.667850491803282 9.17420857905e-05 0.0 0.0 0.0
293 1 35.43171409836066 21.461339016393445 9.75362803446e-05 0.0 0.0 0.0
294 1 38.33479081967213 21.01574885245902 4.74467446933e-05 0.0 0.0 0.0
295 1 39.890695737704924 21.23044 3.81855445551e-05 0.0 0.0 0.0
296 1 42.37893180327869 21.59741442622951 5.95778470105e-05 0.0 0.0 0.0
297 1 44.9988 21.364394754098363 1.77529369645e-05 0.0 0.0 0.0
298 1 47.13616852459017 20.524918032786886 8.03929571413e-05 0.0 0.0 0.0
299 1 50.9856131147541 20.84246098360656 6.34522474115e-05 0.0 0.0 0.0
300 1 53.533934426229514 21.035592131147542 2.61436973784e-05 0.0 0.0 0.0
301 1 56.02469508196722 21.342632786885247 8.01545518267e-05 0.0 0.0 0.0
302 1 58.61896393442624 21.274115409836067 7.11271299122e-05 0.0 0.0 0.0
303 1 61.246557377049186 21.212363934426232 8.08574971291e-05 0.0 0.0 0.0
304 1 63.926157377049186 21.271641311475413 2.99180978423e-05 0.0 0.0 0.0
305 1 66.56940327868854 21.392064262295087 3.21911662891e-05 0.0 0.0 0.0
306 1 69.14095081967214 21.478253770491804 2.54300185766e-05 0.0 0.0 0.0
307 1 71.69684590163936 21.44386885245902 4.42706024939e-05 0.0 0.0 0.0
308 1 74.3284786885246 21.376361311475414 8.66703601155e-05 0.0 0.0 0.0
309 1 77.054531147541 21.394942295081968 5.02539145977e-05 0.0 0.0 0.0
310 1 79.78411803278689 21.58963868852459 7.37606430043e-05 0.0 0.0 0.0
311 1 0.9790158688524592 24.25893836065574 6.93574736089e-05 0.0 0.0 0.0
312 1 3.595319344262295 24.343714098360657 3.3652332597e-05 0.0 0.0 0.0
313 1 6.237201967213116 24.342451803278692 5.84258353912e-05 0.0 0.0 0.0
314 1 8.857322622950822 24.304885901639345 7.63949942345e-05 0.0 0.0 0.0
315 1 11.434020327868852 24.261816393442626 9.6852741908e-05 0.0 0.0 0.0
316 1 13.953561311475411 24.214758032786886 8.1991304979e-05 0.0 0.0 0.0
317 1 15.963942950819675 23.43930491803279 3.49928299586e-05 0.0 0.0 0.0
318 1 19.29175672131148 23.37916918032787 3.3047272461e-05 0.0 0.0 0.0
319 1 22.782154098360657 24.007539672131152 9.01756541448e-05 0.0 0.0 0.0
320 1 25.285992131147545 23.91761377049181 6.70483387457e-05 0.0 0.0 0.0
321 1 27.49712918032787 23.16594229508197 9.48847350878e-05 0.0 0.0 0.0
322 1 31.102799344262298 23.96512655737705 3.97531926773e-05 0.0 0.0 0.0
323 1 33.75528524590164 23.71034491803279 7.48114498701e-05 0.0 0.0 0.0
324 1 36.24756065573771 24.287213770491807 7.59947397875e-05 0.0 0.0 0.0
325 1 38.517924590163936 24.2535862295082 5.94163160047e-05 0.0 0.0 0.0
326 1 41.211106885245904 23.842532459016393 3.9562820536e-06 0.0 0.0 0.0
327 1 43.90661180327869 23.780225573770494 6.42134400126e-05 0.0 0.0 0.0
328 1 46.76904262295082 23.407040655737706 4.90810033896e-05 0.0 0.0 0.0
329 1 50.38067081967213 23.127972459016394 1.08488253294e-05 0.0 0.0 0.0
330 1 51.91769180327869 23.269299016393443 9.8574519683e-06 0.0 0.0 0.0
331 1 54.46954754098361 23.59779868852459 9.47945888968e-05 0.0 0.0 0.0
332 1 57.16984918032787 23.655409836065576 9.62193143894e-05 0.0 0.0 0.0
333 1 59.83278688524591 23.56947278688525 9.6297794219e-05 0.0 0.0 0.0
334 1 62.526019672131156 23.53054360655738 6.72606310845e-05 0.0 0.0 0.0
335 1 65.27630819672132 23.66035803278689 2.85352571348e-05 0.0 0.0 0.0
336 1 67.8564393442623 23.836877377049184 6.32083984277e-05 0.0 0.0 0.0
337 1 70.45474754098362 23.874897704918034 9.54763501925e-05 0.0 0.0 0.0
338 1 72.97529836065574 23.74604262295082 1.79991183454e-05 0.0 0.0 0.0
339 1 75.68266885245902 23.62334754098361 1.22672302893e-05 0.0 0.0 0.0
340 1 78.40619672131149 23.7122131147541 4.36591378423e-05 0.0 0.0 0.0
341 1 81.13325901639345 23.998148196721313 1.1519042014e-05 0.0 0.0 0.0
342 1 82.26175081967213 26.53470491803279 8.94393542373e-05 0.0 0.0 0.0
343 1 2.2116924590163936 26.654723934426233 8.12336023077e-05 0.0 0.0 0.0
344 1 4.9001133770491805 26.672042622950823 9.38216366402e-05 0.0 0.0 0.0
345 1 7.583262950819673 26.664266885245905 1.42787114968e-05 0.0 0.0 0.0
346 1 10.256400000000001 26.648109508196722 3.07337293044e-05 0.0 0.0 0.0
347 1 12.936706885245904 26.61857180327869 2.78940966641e-06 0.0 0.0 0.0
348 1 15.629838688524593 26.358286557377053 7.8800459107e-05 0.0 0.0 0.0
349 1 18.345792786885248 26.158440000000002 9.76798790876e-05 0.0 0.0 0.0
350 1 21.091537049180328 26.205649836065575 6.6665381676e-05 0.0 0.0 0.0
351 1 23.84955081967213 26.340462950819674 3.86708253142e-05 0.0 0.0 0.0
352 1 26.57822885245902 26.039733770491807 4.79368137888e-05 0.0 0.0 0.0
353 1 29.331193442622954 26.149553442622956 7.47807407142e-05 0.0 0.0 0.0
354 1 32.77842032786886 26.091740327868852 5.92434715231e-05 0.0 0.0 0.0
355 1 34.29630491803279 26.248214426229513 1.5833621288e-05 0.0 0.0 0.0
356 1 37.28345049180328 26.777065573770493 1.76129571903e-05 0.0 0.0 0.0
357 1 40.037778360655736 26.299463606557378 2.22829797866e-05 0.0 0.0 0.0
358 1 42.81886688524591 26.102899016393444 8.91580624076e-06 0.0 0.0 0.0
359 1 45.3902124590164 25.675940327868854 2.46228959161e-05 0.0 0.0 0.0
360 1 47.90879409836066 25.72496786885246 7.15093546136e-05 0.0 0.0 0.0
361 1 50.35805049180328 25.856902950819673 5.67876040172e-05 0.0 0.0 0.0
362 1 53.026491803278695 25.848874754098365 7.22524565097e-05 0.0 0.0 0.0
363 1 55.756583606557385 25.915877377049185 4.98360127722e-05 0.0 0.0 0.0
364 1 58.49374426229509 25.922037377049183 3.03445052448e-05 0.0 0.0 0.0
365 1 61.11275409836066 25.8220131147541 6.93307925108e-05 0.0 0.0 0.0
366 1 63.816590163934436 25.803634098360657 4.75239246845e-05 0.0 0.0 0.0
367 1 66.45327213114754 26.141777704918034 5.73063558266e-05 0.0 0.0 0.0
368 1 69.19952131147541 26.24513442622951 3.27442869745e-05 0.0 0.0 0.0
369 1 71.90234754098361 26.247305573770493 1.82125255007e-05 0.0 0.0 0.0
370 1 74.44259016393444 25.9260262295082 3.04633988183e-05 0.0 0.0 0.0
371 1 77.06462950819672 25.890076065573773 9.30062004397e-05 0.0 0.0 0.0
372 1 79.69474754098361 26.056749508196724 2.06814316159e-05 0.0 0.0 0.0
373 1 0.9104328524590164 28.943466885245904 2.78623608849e-05 0.0 0.0 0.0
374 1 3.587720327868853 28.961845901639347 1.39972521897e-05 0.0 0.0 0.0
375 1 6.289158032786886 28.963865573770494 8.92253289465e-07 0.0 0.0 0.0
376 1 8.994660327868853 28.95518098360656 7.35106551684e-05 0.0 0.0 0.0
377 1 11.695820327868853 28.923371147540983 9.16076638217e-05 0.0 0.0 0.0
378 1 14.38132786885246 28.771996721311478 8.46770203921e-05 0.0 0.0 0.0
379 1 17.016091147540983 28.552003934426235 3.83063903971e-05 0.0 0.0 0.0
380 1 19.64615868852459 28.453393442622954 6.71974280188e-05 0.0 0.0 0.0
381 1 22.32510229508197 28.50201704918033 6.83321999877e-05 0.0 0.0 0.0
382 1 25.001117377049184 28.42284590163935 9.3625233667e-05 0.0 0.0 0.0
383 1 27.5375731147541 28.306159344262298 2.78289623874e-05 0.0 0.0 0.0
384 1 30.09558885245902 28.805977704918035 5.86735019544e-05 0.0 0.0 0.0
385 1 32.70157180327869 28.684342950819673 5.90935270497e-05 0.0 0.0 0.0
386 1 34.8888262295082 27.664257049180332 7.74953312217e-05 0.0 0.0 0.0
387 1 38.67954885245902 28.620218360655738 1.70459660625e-05 0.0 0.0 0.0
388 1 40.749258360655745 27.660369180327873 3.65322702015e-05 0.0 0.0 0.0
389 1 44.3614924590164 28.191845901639347 6.97884777002e-05 0.0 0.0 0.0
390 1 46.88133639344263 28.048045245901644 9.33691532268e-05 0.0 0.0 0.0
391 1 49.16972590163935 29.388299672131147 4.74658447324e-05 0.0 0.0 0.0
392 1 51.818222950819674 28.224211147540988 2.14450185288e-05 0.0 0.0 0.0
393 1 54.48015081967214 28.162762622950822 9.88491428581e-05 0.0 0.0 0.0
394 1 57.233468852459026 28.16861967213115 7.53220198628e-05 0.0 0.0 0.0
395 1 60.01102295081967 28.208811147540985 3.69643881403e-06 0.0 0.0 0.0
396 1 62.6628524590164 28.045015737704922 3.71489817702e-05 0.0 0.0 0.0
397 1 64.93498360655738 29.405719344262298 5.26744876989e-05 0.0 0.0 0.0
398 1 67.78373114754099 28.465713442622953 1.95271116901e-05 0.0 0.0 0.0
399 1 70.69003934426229 28.566242622950824 2.25847597387e-07 0.0 0.0 0.0
400 1 74.16640000000001 28.22794754098361 7.31139319749e-06 0.0 0.0 0.0
401 1 75.71801311475411 28.211537704918037 2.80727450001e-05 0.0 0.0 0.0
402 1 78.4481049180328 28.256172459016398 8.7830344289e-06 0.0 0.0 0.0
403 1 80.81516065573771 29.666913442622953 6.79637493192e-05 0.0 0.0 0.0
404 1 82.49249836065574 31.359600655737708 6.32813670663e-05 0.0 0.0 0.0
405 1 2.3490200655737707 31.26371672131148 8.77982074454e-05 0.0 0.0 0.0
406 1 5.007332721311476 31.246095081967216 6.56027556623e-05 0.0 0.0 0.0
407 1 7.716409836065575 31.234532459016396 7.01533288717e-05 0.0 0.0 0.0
408 1 10.420195409836067 31.218577049180332 3.24494042928e-05 0.0 0.0 0.0
409 1 13.10004786885246 31.14622229508197 3.31374631378e-05 0.0 0.0 0.0
410 1 15.730266885245904 31.008228196721312 4.20301909434e-05 0.0 0.0 0.0
411 1 18.307368524590164 30.862306885245903 2.02524182779e-05 0.0 0.0 0.0
412 1 20.911836721311477 30.786821639344264 3.31072835416e-05 0.0 0.0 0.0