ITEM: TIMESTEP
0
ITEM: NUMBER OF ATOMS
2232
ITEM: BOX BOUNDS xy xz yz pp pp pp
0.0 82.68810555352132 0
0.0 83.16 0
-10.0 10.0 0
ITEM: ATOMS id type x y z vx vy vz
1 1 1.5469476721311477 0.5849374426229509 6.97253172135e-05 0.0 0.0 0.0
2 1 4.968852918032787 83.12718032786886 7.0161965385e-05 0.0 0.0 0.0
3 1 6.493094426229509 0.1526609573770492 3.56104030108e-06 0.0 0.0 0.0
4 1 9.032024262295083 0.8192951475409836 4.34242900023e-05 0.0 0.0 0.0
5 1 11.742070819672133 0.7212552131147542 2.28222514231e-05 0.0 0.0 0.0
6 1 14.350477377049181 0.7306466885245902 2.30909122058e-05 0.0 0.0 0.0
7 1 17.035782950819673 1.4879227540983608 8.19439842552e-05 0.0 0.0 0.0
8 1 19.91856196721312 1.4718663606557378 8.84794810446e-05 0.0 0.0 0.0
9 1 22.52686754098361 0.9543657704918034 2.41425132355e-05 0.0 0.0 0.0
10 1 25.092961967213117 0.7547110819672133 9.2274440282e-05 0.0 0.0 0.0
11 1 27.721009836065576 0.8324432131147542 4.11275158448e-06 0.0 0.0 0.0
12 1 30.348552786885246 0.5176167213114755 1.60772092495e-05 0.0 0.0 0.0
13 1 33.05198491803279 83.09234098360656 7.67215402173e-05 0.0 0.0 0.0
14 1 35.77268524590164 83.06961967213115 8.63161633032e-05 0.0 0.0 0.0
15 1 38.488235409836065 0.17144239344262296 2.0365003355e-05 0.0 0.0 0.0
16 1 41.374801311475416 0.5726830819672132 2.101945982e-05 0.0 0.0 0.0
17 1 44.18017639344263 0.9961325901639345 3.92416527673e-05 0.0 0.0 0.0
18 1 47.00120393442623 1.0554756065573772 6.90916814312e-05 0.0 0.0 0.0
19 1 49.54407213114755 1.059560393442623 6.34367859702e-05 0.0 0.0 0.0
20 1 52.102996721311484 0.43721104918032794 9.31656816652e-05 0.0 0.0 0.0
21 1 55.09918032786886 0.6309102295081968 8.94929155499e-06 0.0 0.0 0.0
22 1 57.642957377049186 0.5732233442622952 3.5827918189e-05 0.0 0.0 0.0
23 1 60.034754098360665 1.6828110163934429 8.74339845608e-05 0.0 0.0 0.0
24 1 62.872898360655746 0.7816080655737706 2.27754002163e-05 0.0 0.0 0.0
25 1 65.72417049180329 0.8390121967213116 4.2699709312e-05 0.0 0.0 0.0
26 1 69.56003278688524 0.5346829508196722 9.64633467288e-05 0.0 0.0 0.0
27 1 71.12679344262295 0.6924900327868854 7.83714687446e-05 0.0 0.0 0.0
28 1 73.38327213114755 1.2655114098360656 3.40866997627e-05 0.0 0.0 0.0
29 1 76.04772459016394 1.8366140983606558 4.03250884209e-05 0.0 0.0 0.0
30 1 78.93181639344263 1.6888397377049182 9.04303517051e-06 0.0 0.0 0.0
31 1 81.61545573770492 0.8041980983606558 5.34393968328e-05 0.0 0.0 0.0
32 1 0.3271318491803279 3.0777531147540986 6.83580801822e-05 0.0 0.0 0.0
33 1 2.7894701639344266 3.0844836721311477 2.27807031124e-05 0.0 0.0 0.0
34 1 5.143801967213116 2.6197975081967213 1.1363051257e-05 0.0 0.0 0.0
35 1 7.475614426229509 3.8838396065573777 3.3837071211e-05 0.0 0.0 0.0
36 1 10.283413114754099 3.0475792131147545 5.90897861771e-05 0.0 0.0 0.0
37 1 12.916964590163936 3.0614644590163937 9.34284503236e-05 0.0 0.0 0.0
38 1 15.37046229508197 3.218448524590164 6.31500324237e-05 0.0 0.0 0.0
39 1 17.618306885245904 2.9144777704918035 1.31174387639e-05 0.0 0.0 0.0
40 1 21.26285573770492 3.4782389508196725 4.87970904307e-05 0.0 0.0 0.0
41 1 23.86853573770492 3.213636655737705 4.8375333976e-05 0.0 0.0 0.0
42 1 26.530211147540985 3.078232786885246 3.06594171703e-05 0.0 0.0 0.0
43 1 29.33048655737705 2.9214456393442627 8.9269789663e-05 0.0 0.0 0.0
44 1 32.15171606557377 2.3947555409836068 6.94622645998e-05 0.0 0.0 0.0
45 1 34.75285180327869 2.1294918032786887 9.47838290371e-05 0.0 0.0 0.0
46 1 37.06174098360656 3.4714225573770494 6.88616580177e-06 0.0 0.0 0.0
47 1 39.7377055737705 2.4705487868852463 6.8302685976e-05 0.0 0.0 0.0
48 1 42.48703475409837 2.884106950819673 8.28692711771e-05 0.0 0.0 0.0
49 1 45.22177180327869 3.223618885245902 3.32323890269e-06 0.0 0.0 0.0
50 1 49.209765901639344 3.1117845901639347 6.23654908521e-05 0.0 0.0 0.0
51 1 50.735678688524594 2.976774557377049 9.26933955526e-05 0.0 0.0 0.0
52 1 53.43951475409836 2.564695803278689 9.31855881102e-05 0.0 0.0 0.0
53 1 56.514465573770494 3.0595104262295085 7.99861632101e-05 0.0 0.0 0.0
54 1 59.24809180327869 3.0128307540983608 2.31515909605e-05 0.0 0.0 0.0
55 1 61.67977704918034 3.1799030819672134 2.76497419726e-05 0.0 0.0 0.0
56 1 64.17104262295082 2.9800161311475413 3.25551599019e-05 0.0 0.0 0.0
57 1 66.6284786885246 3.1262858360655743 5.76664933503e-05 0.0 0.0 0.0
58 1 69.14902950819672 3.2286630163934427 5.03936854286e-05 0.0 0.0 0.0
59 1 72.18813114754099 3.5240097704918036 2.383568021e-05 0.0 0.0 0.0
60 1 74.80209180327869 3.7044270819672134 7.21622961766e-05 0.0 0.0 0.0
61 1 76.86316721311476 3.1297798688524594 9.30165803545e-06 0.0 0.0 0.0
62 1 80.55159344262296 3.367379147540984 8.99497987688e-05 0.0 0.0 0.0
63 1 1.593051737704918 5.546676065573771 2.85028266994e-05 0.0 0.0 0.0
64 1 4.150653442622951 5.347132459016394 1.14197714991e-05 0.0 0.0 0.0
65 1 6.831137049180328 5.2822000000000005 3.89156259083e-05 0.0 0.0 0.0
66 1 9.352596721311476 5.4052990163934425 7.10250179305e-05 0.0 0.0 0.0
67 1 11.887588196721314 5.343244590163935 9.50953983159e-05 0.0 0.0 0.0
68 1 14.46332655737705 5.525065573770493 7.79897261449e-06 0.0 0.0 0.0
69 1 16.91435016393443 6.796752131147541 7.64481655667e-05 0.0 0.0 0.0
70 1 19.728712786885247 5.735212459016394 7.29000775101e-05 0.0 0.0 0.0
71 1 22.567967868852463 5.6597272131147545 7.44577755109e-05 0.0 0.0 0.0
72 1 25.35971016393443 5.416154754098361 1.43128401999e-05 0.0 0.0 0.0
73 1 28.061021639344265 5.123554754098361 8.83716115685e-06 0.0 0.0 0.0
74 1 30.83796983606558 4.7091331803278695 8.04196367577e-05 0.0 0.0 0.0
75 1 33.480003934426236 4.6368491147540984 7.98015090772e-05 0.0 0.0 0.0
76 1 36.286136393442625 4.805148393442623 1.02214221924e-05 0.0 0.0 0.0
77 1 39.388100327868855 4.83543337704918 8.48481245809e-05 0.0 0.0 0.0
78 1 40.91643672131148 4.82993986885246 6.0323123408e-05 0.0 0.0 0.0
79 1 43.541404590163935 5.21868131147541 9.43330066328e-05 0.0 0.0 0.0
80 1 45.727093770491805 4.684700196721312 1.62982229301e-05 0.0 0.0 0.0
81 1 49.33963081967214 5.815898360655738 9.3429425774e-05 0.0 0.0 0.0
82 1 52.94015081967214 4.755767409836066 2.01089510216e-06 0.0 0.0 0.0
83 1 54.20396065573771 3.89774 5.94363650592e-05 0.0 0.0 0.0
84 1 57.601554098360666 5.261144918032787 2.7537805648e-05 0.0 0.0 0.0
85 1 60.23773114754099 5.531124590163935 8.4781849111e-05 0.0 0.0 0.0
86 1 62.90874754098361 5.4885600000000005 5.18820234268e-05 0.0 0.0 0.0
87 1 65.3384131147541 5.487499672131148 4.90677027565e-05 0.0 0.0 0.0
88 1 67.90440655737704 5.536577704918033 5.67928331377e-05 0.0 0.0 0.0
89 1 70.0240524590164 4.5152699016393445 7.97466432124e-05 0.0 0.0 0.0
90 1 73.74630819672133 5.879720000000001 1.56723208762e-05 0.0 0.0 0.0
91 1 76.33401311475411 5.976512786885247 8.97337065849e-05 0.0 0.0 0.0
92 1 79.07319344262295 5.814232131147541 1.30557815303e-05 0.0 0.0 0.0
93 1 81.75329836065573 5.661040000000001 2.03443864234e-05 0.0 0.0 0.0
94 1 0.3253939213114755 8.031428196721311 2.96694030639e-05 0.0 0.0 0.0
95 1 2.9013852459016394 7.85940262295082 7.25263639515e-05 0.0 0.0 0.0
96 1 5.497648524590164 7.6135580327868855 2.60394120382e-05 0.0 0.0 0.0
97 1 8.196233442622953 7.7081291803278695 3.84144100391e-05 0.0 0.0 0.0
98 1 10.829784918032788 7.73736393442623 7.01805169342e-05 0.0 0.0 0.0
99 1 13.244151475409836 8.91851868852459 5.41291493846e-05 0.0 0.0 0.0
100 1 16.202163278688527 8.190224918032788 5.94549222639e-05 0.0 0.0 0.0
101 1 18.802743606557378 8.201838032786887 9.28538012901e-05 0.0 0.0 0.0
102 1 21.48799868852459 7.834459672131148 4.65242883217e-05 0.0 0.0 0.0
103 1 24.32523409836066 7.664554754098361 7.25178800114e-05 0.0 0.0 0.0
104 1 27.13676918032787 7.460820327868854 8.91016266459e-05 0.0 0.0 0.0
105 1 29.862064262295085 6.995336393442623 6.8398712112e-05 0.0 0.0 0.0
106 1 32.174740327868854 8.103732459016395 2.3853069007e-05 0.0 0.0 0.0
107 1 34.784106229508204 6.896170491803279 5.86110597438e-05 0.0 0.0 0.0
108 1 37.11576721311476 8.49620524590164 6.72316275977e-05 0.0 0.0 0.0
109 1 39.59001704918033 7.492630163934427 7.03957175467e-06 0.0 0.0 0.0
110 1 42.24573442622951 7.311162622950821 9.3248949177e-05 0.0 0.0 0.0
111 1 44.927960000000006 7.518734426229509 1.89133157924e-05 0.0 0.0 0.0
112 1 47.59680524590165 7.898079344262296 7.64512061691e-05 0.0 0.0 0.0
113 1 50.40369508196722 7.873691803278689 8.7219052337e-05 0.0 0.0 0.0
114 1 52.948734426229514 7.497275409836066 9.27381541903e-05 0.0 0.0 0.0
115 1 55.725783606557385 7.374883278688525 1.94960198963e-05 0.0 0.0 0.0
116 1 58.834563934426235 7.694041967213116 6.15188160295e-05 0.0 0.0 0.0
117 1 61.65756065573771 7.784422295081968 2.11364766114e-05 0.0 0.0 0.0
118 1 64.2104262295082 7.955488524590165 1.30372635715e-06 0.0 0.0 0.0
119 1 66.80772459016394 7.844810491803279 4.19127365008e-06 0.0 0.0 0.0
120 1 69.64687868852461 7.419972459016394 2.89647985649e-05 0.0 0.0 0.0
121 1 72.40171147540984 7.833449836065575 5.00665940916e-05 0.0 0.0 0.0
122 1 74.91822295081968 8.29565180327869 8.35406474991e-05 0.0 0.0 0.0
123 1 77.60135737704918 8.136350163934427 9.37906779657e-05 0.0 0.0 0.0
124 1 80.45313442622951 8.035568524590165 3.64398747829e-05 0.0 0.0 0.0
125 1 1.6064825573770494 10.35268786885246 2.76374000313e-06 0.0 0.0 0.0
126 1 4.47933993442623 10.08901967213115 3.66958915002e-05 0.0 0.0 0.0
127 1 7.162868196721312 9.872864262295083 5.25073517764e-05 0.0 0.0 0.0
128 1 9.510434098360657 11.186105573770492 4.21659710318e-05 0.0 0.0 0.0
129 1 12.347063606557379 10.189296393442623 2.18485329598e-05 0.0 0.0 0.0
130 1 14.808640000000002 10.472252459016396 8.28434984425e-05 0.0 0.0 0.0
131 1 17.47289049180328 10.563794098360658 4.82017245368e-05 0.0 0.0 0.0
132 1 20.631506229508197 10.233072786885247 2.33946990432e-05 0.0 0.0 0.0
133 1 23.328475409836066 9.828229508196722 5.85852497875e-05 0.0 0.0 0.0
134 1 26.041248524590166 9.693264918032789 1.99554280386e-06 0.0 0.0 0.0
135 1 28.737712786885247 9.44252262295082 1.41717703426e-05 0.0 0.0 0.0
136 1 31.410900327868855 9.435100327868852 1.38998127277e-05 0.0 0.0 0.0
137 1 33.91312262295082 9.51305967213115 6.64354007898e-05 0.0 0.0 0.0
138 1 36.63609508196721 9.9353731147541 5.27085289385e-05 0.0 0.0 0.0
139 1 39.20274491803279 10.07977967213115 1.02487449169e-05 0.0 0.0 0.0
140 1 41.45074098360656 9.620102295081969 4.58609692456e-05 0.0 0.0 0.0
141 1 43.67217836065574 10.96793049180328 9.19219785885e-05 0.0 0.0 0.0
142 1 46.35642360655738 9.97884655737705 7.77677968004e-05 0.0 0.0 0.0
143 1 49.092877377049184 10.01696786885246 6.06530383464e-05 0.0 0.0 0.0
144 1 51.87628852459017 10.01742229508197 7.75216232345e-05 0.0 0.0 0.0
145 1 54.295855737704926 9.635906229508198 5.80076614829e-06 0.0 0.0 0.0
146 1 56.32057704918033 8.818292459016394 2.36494972381e-05 0.0 0.0 0.0
147 1 59.98880655737705 9.815303606557377 2.07560494107e-05 0.0 0.0 0.0
148 1 62.65275409836066 10.238273442622953 2.77087507607e-05 0.0 0.0 0.0
149 1 65.85999344262297 10.22221704918033 2.45079665955e-05 0.0 0.0 0.0
150 1 68.49970491803279 9.679581639344264 7.40611287499e-06 0.0 0.0 0.0
151 1 70.91018360655738 9.79748 8.12338878242e-05 0.0 0.0 0.0
152 1 73.43780327868853 10.520017704918034 4.73047974507e-05 0.0 0.0 0.0
153 1 76.34461639344264 10.536932459016395 4.25181640803e-05 0.0 0.0 0.0
154 1 79.13125901639346 10.188791475409836 9.60626144189e-05 0.0 0.0 0.0
155 1 81.71542950819673 10.457660327868854 3.04180498118e-05 0.0 0.0 0.0
156 1 0.08925991475409836 12.846124590163935 6.92572110368e-05 0.0 0.0 0.0
157 1 3.3268594754098366 12.303388196721313 7.94571349187e-05 0.0 0.0 0.0
158 1 6.108548852459017 12.29238098360656 2.37817954963e-05 0.0 0.0 0.0
159 1 8.857827540983607 12.594422950819673 4.1837524612e-05 0.0 0.0 0.0
160 1 11.311779672131149 12.562158688524592 7.28953754236e-06 0.0 0.0 0.0
161 1 13.704939672131148 13.878227540983609 3.58128038182e-05 0.0 0.0 0.0
162 1 16.357122622950822 12.770285901639344 1.81746705483e-05 0.0 0.0 0.0
163 1 18.407342295081968 11.782312786885248 6.23200081953e-05 0.0 0.0 0.0
164 1 22.304451147540984 12.216744262295082 2.87607560884e-05 0.0 0.0 0.0
165 1 24.888924590163935 11.991348852459017 7.24013974771e-05 0.0 0.0 0.0
166 1 27.623914098360657 11.81765704918033 3.85405892249e-05 0.0 0.0 0.0
167 1 30.046005901639347 11.737728524590166 1.69918268638e-05 0.0 0.0 0.0
168 1 32.404326557377054 11.849870819672134 6.59868325828e-05 0.0 0.0 0.0
169 1 35.11068721311476 11.879560000000001 2.47334854978e-05 0.0 0.0 0.0
170 1 37.96211081967214 12.330653770491804 2.0894867656e-05 0.0 0.0 0.0
171 1 40.475491803278686 12.39588918032787 9.01667445723e-05 0.0 0.0 0.0
172 1 43.0591068852459 12.379933770491805 3.29965687232e-05 0.0 0.0 0.0
173 1 45.62171737704918 12.460670163934427 6.54505782396e-05 0.0 0.0 0.0
174 1 48.08687868852459 12.182460327868855 1.32845192985e-05 0.0 0.0 0.0
175 1 50.683672131147546 12.156911475409839 2.65039856035e-05 0.0 0.0 0.0
176 1 53.344085245901645 12.276678032786887 6.96382634446e-05 0.0 0.0 0.0
177 1 55.7404262295082 11.81876786885246 8.58955898936e-05 0.0 0.0 0.0
178 1 58.24532459016394 11.743434098360657 8.44627661023e-05 0.0 0.0 0.0
179 1 60.80424918032788 12.19341704918033 6.57846744367e-05 0.0 0.0 0.0
180 1 63.27683278688525 11.63669442622951 4.18923031556e-05 0.0 0.0 0.0
181 1 67.21620327868852 12.140148196721313 2.38243262234e-05 0.0 0.0 0.0
182 1 69.63173114754099 12.187459016393444 3.16344044032e-05 0.0 0.0 0.0
183 1 72.00585573770493 13.486461639344263 6.8731325997e-05 0.0 0.0 0.0
184 1 74.16539016393443 11.908592786885247 8.54466967791e-05 0.0 0.0 0.0
185 1 77.98105573770493 12.45365180327869 3.05447875799e-05 0.0 0.0 0.0
186 1 79.99264918032787 13.915137049180329 4.31612910579e-05 0.0 0.0 0.0
187 1 1.0671644590163936 14.048586885245903 7.2999714152e-05 0.0 0.0 0.0
188 1 4.419855540983607 15.714664918032788 3.83135315639e-05 0.0 0.0 0.0
189 1 7.2011409836065585 14.700991475409838 1.67889793678e-05 0.0 0.0 0.0
190 1 9.953247213114754 15.056605245901642 4.53387358134e-05 0.0 0.0 0.0
191 1 13.236981639344265 15.333653770491805 1.95643974638e-06 0.0 0.0 0.0
192 1 15.909967213114756 15.169555409836068 5.5123137229e-05 0.0 0.0 0.0
193 1 18.346752131147543 14.663274098360658 4.93738821403e-05 0.0 0.0 0.0
194 1 20.858820327868855 14.3028131147541 6.03948059564e-05 0.0 0.0 0.0
195 1 23.7638662295082 14.441665573770493 4.01274554486e-05 0.0 0.0 0.0
196 1 26.49779540983607 14.089838688524592 5.05341741881e-05 0.0 0.0 0.0
197 1 29.091609836065576 14.24434360655738 3.86433968702e-06 0.0 0.0 0.0
198 1 31.097194754098364 14.30124786885246 7.59577252484e-05 0.0 0.0 0.0
199 1 33.45930229508197 14.049697704918035 3.89133809045e-05 0.0 0.0 0.0
200 1 36.317744262295086 14.088121967213118 5.6899035709e-05 0.0 0.0 0.0
201 1 39.3041324590164 16.176059016393445 9.56636561112e-06 0.0 0.0 0.0
202 1 41.783330491803284 14.772790819672132 6.84595051538e-05 0.0 0.0 0.0
203 1 44.44147147540984 14.758097704918034 9.02235035899e-05 0.0 0.0 0.0
204 1 47.31485901639345 14.68932786885246 8.56502212913e-05 0.0 0.0 0.0
205 1 49.797238032786886 14.443432786885246 3.10472074634e-05 0.0 0.0 0.0
206 1 52.24992786885247 15.582578360655738 6.84756319395e-05 0.0 0.0 0.0
207 1 54.963357377049185 14.533156721311478 7.08999248392e-06 0.0 0.0 0.0
208 1 57.33243278688525 14.179512131147542 2.3681856219e-06 0.0 0.0 0.0
209 1 60.05848524590164 15.172281967213117 4.85532504669e-05 0.0 0.0 0.0
210 1 62.81786229508198 14.133110163934427 2.03707267027e-05 0.0 0.0 0.0
211 1 65.38638032786886 15.27033704918033 3.48010827866e-05 0.0 0.0 0.0
212 1 68.24674098360656 14.659638688524591 5.94201535765e-05 0.0 0.0 0.0
213 1 71.21969836065574 14.805358032786886 5.3407813852e-05 0.0 0.0 0.0
214 1 73.95382950819673 14.837723278688525 5.15714663605e-05 0.0 0.0 0.0
215 1 76.61373770491805 14.772285901639345 5.26992257971e-05 0.0 0.0 0.0
216 1 79.19336393442623 15.248524590163935 9.75234425297e-05 0.0 0.0 0.0
217 1 81.68917377049182 15.283969836065575 4.80230240716e-05 0.0 0.0 0.0
218 1 0.7041788852459018 17.037247213114757 4.66769183005e-05 0.0 0.0 0.0
219 1 3.550523016393443 17.002912786885247 6.45796555437e-05 0.0 0.0 0.0
220 1 6.139500327868853 17.163577704918037 8.27823703196e-06 0.0 0.0 0.0
221 1 8.672017704918034 17.06471475409836 3.26460175749e-05 0.0 0.0 0.0
222 1 10.770507540983607 16.37282557377049 2.26201039538e-05 0.0 0.0 0.0
223 1 14.555524590163936 17.469659016393443 4.30817057556e-05 0.0 0.0 0.0
224 1 17.34151081967213 17.323333770491804 7.27476927374e-05 0.0 0.0 0.0
225 1 20.186219016393444 16.82644393442623 8.17917169438e-05 0.0 0.0 0.0
226 1 22.61305704918033 17.35696131147541 7.66832949291e-05 0.0 0.0 0.0
227 1 26.302038688524593 16.04417442622951 2.62533308425e-05 0.0 0.0 0.0
228 1 27.777611147540984 16.49264262295082 5.83314865126e-05 0.0 0.0 0.0
229 1 30.19142229508197 17.011849836065576 4.41206650542e-05 0.0 0.0 0.0
230 1 32.31647081967213 16.645026885245905 7.27207814272e-05 0.0 0.0 0.0
231 1 35.05191475409837 16.041498360655737 1.88437972812e-05 0.0 0.0 0.0
232 1 37.32556065573771 15.219693770491805 6.17815016691e-05 0.0 0.0 0.0
233 1 40.67599475409837 17.489249836065575 5.16053059946e-05 0.0 0.0 0.0
234 1 43.12555409836066 17.053758032786888 9.34895686627e-05 0.0 0.0 0.0
235 1 45.95213573770492 16.759744262295083 8.95622063521e-07 0.0 0.0 0.0
236 1 48.783413114754104 17.01018360655738 7.6987738204e-05 0.0 0.0 0.0
237 1 51.49961967213115 16.92015672131148 2.26478735318e-05 0.0 0.0 0.0
238 1 54.060563934426234 17.04896131147541 3.38768661424e-05 0.0 0.0 0.0
239 1 56.57657049180329 16.899556065573773 4.31877053463e-05 0.0 0.0 0.0
240 1 60.23924590163935 16.68794491803279 9.69667590454e-05 0.0 0.0 0.0
241 1 61.75753442622951 16.538691147540987 2.29531177867e-05 0.0 0.0 0.0
242 1 64.55175081967214 16.56509836065574 9.80735895103e-05 0.0 0.0 0.0
243 1 66.9516262295082 17.067643278688525 5.22334754348e-05 0.0 0.0 0.0
244 1 69.53276721311477 16.718038032786886 9.25916924006e-05 0.0 0.0 0.0
245 1 72.35071475409836 17.05315213114754 3.85396912856e-05 0.0 0.0 0.0
246 1 75.730131147541 17.11253049180328 1.45712057873e-05 0.0 0.0 0.0
247 1 77.26861639344264 17.34004655737705 1.43986141622e-06 0.0 0.0 0.0
248 1 80.54805901639344 17.690712131147542 6.27522380119e-05 0.0 0.0 0.0
249 1 2.014097836065574 19.204203934426232 9.84873989382e-05 0.0 0.0 0.0
250 1 4.852080524590165 19.42096524590164 5.09672981681e-06 0.0 0.0 0.0
251 1 7.584424262295083 19.49109836065574 9.43738268755e-05 0.0 0.0 0.0
252 1 10.305629508196722 19.268833442622952 5.13263601324e-05 0.0 0.0 0.0
253 1 13.080002622950822 19.398849836065576 7.72410098128e-05 0.0 0.0 0.0
254 1 15.904160655737707 19.52109049180328 2.20638841172e-05 0.0 0.0 0.0
255 1 18.30792393442623 18.515041311475414 7.74956421613e-05 0.0 0.0 0.0
256 1 22.04320655737705 18.75417049180328 4.1129381428e-05 0.0 0.0 0.0
257 1 24.64934098360656 19.02248393442623 8.90683625569e-05 0.0 0.0 0.0
258 1 27.2989993442623 19.703315409836065 4.7724396708e-05 0.0 0.0 0.0
259 1 28.79007278688525 19.26994426229508 2.12925974501e-05 0.0 0.0 0.0
260 1 32.210640000000005 19.34103672131148 6.12871190247e-05 0.0 0.0 0.0
261 1 34.56658754098361 18.195680655737707 4.37487355882e-05 0.0 0.0 0.0
262 1 36.686940327868854 19.334876721311478 6.85956487247e-05 0.0 0.0 0.0
263 1 39.16396721311476 20.223936393442624 6.33531401e-05 0.0 0.0 0.0
264 1 42.141670819672136 19.679483278688526 4.67465173012e-05 0.0 0.0 0.0
265 1 44.83656983606558 18.961540327868853 2.89850075311e-05 0.0 0.0 0.0
266 1 47.04184983606558 20.02201967213115 8.71181526065e-05 0.0 0.0 0.0
267 1 50.80737704918033 19.145532459016398 5.473314951e-05 0.0 0.0 0.0
268 1 52.35798032786886 19.28473836065574 3.28491856414e-05 0.0 0.0 0.0
269 1 55.071914754098366 19.38708524590164 4.24598522672e-05 0.0 0.0 0.0
270 1 57.66870819672132 19.434345573770493 1.19367249176e-05 0.0 0.0 0.0
271 1 60.213495081967224 19.192893770491803 6.02988876875e-05 0.0 0.0 0.0
272 1 63.01730491803279 18.7157462295082 6.32246180003e-06 0.0 0.0 0.0
273 1 64.88550163934427 20.396062950819672 8.81107478123e-05 0.0 0.0 0.0
274 1 68.95564590163936 19.135030163934427 4.72253822093e-05 0.0 0.0 0.0
275 1 70.50321967213117 18.925741639344263 1.0182302938e-05 0.0 0.0 0.0
276 1 72.6885049180328 20.608936393442626 7.70346472322e-05 0.0 0.0 0.0
277 1 75.48474098360656 19.777639344262298 6.87082927802e-05 0.0 0.0 0.0
278 1 77.91339672131149 18.795523278688524 4.39359381749e-05 0.0 0.0 0.0
279 1 81.98556065573771 19.416622950819672 7.13062806119e-05 0.0 0.0 0.0
280 1 0.5796055081967214 21.584589508196725 3.3946355688e-05 0.0 0.0 0.0
281 1 3.4490950819672137 21.428519344262295 7.63828209314e-05 0.0 0.0 0.0
282 1 6.248259672131148 21.70708262295082 1.9276401037e-05 0.0 0.0 0.0
283 1 9.000517377049182 21.651289180327872 9.16621003051e-06 0.0 0.0 0.0
284 1 11.840580327868855 21.55676852459017 1.43654862824e-05 0.0 0.0 0.0
285 1 14.731084590163936 21.59892918032787 1.12781344522e-05 0.0 0.0 0.0
286 1 17.722168524590167 21.271792786885246 3.5930837746e-06 0.0 0.0 0.0
287 1 21.535208524590168 20.994491803278688 5.71281581044e-05 0.0 0.0 0.0
288 1 23.104089836065576 21.11355147540984 3.53018231092e-05 0.0 0.0 0.0
289 1 24.857821639344266 22.761856393442624 4.11371829884e-05 0.0 0.0 0.0
290 1 27.426844590163938 21.727986229508197 8.80976175972e-05 0.0 0.0 0.0
291 1 29.81960065573771 20.475183606557376 9.36930728021e-05 0.0 0.0 0.0
292 1 35.202986229508205 21.580903606557378 1.35553263149e-05 0.0 0.0 0.0
293 1 35.26635344262295 20.047417049180332 4.03730828965e-05 0.0 0.0 0.0
294 1 38.18866754098361 21.43573967213115 3.60750098855e-05 0.0 0.0 0.0
295 1 40.93835016393443 21.87860327868853 8.74712245577e-05 0.0 0.0 0.0
296 1 44.472120000000004 21.297341639344264 2.79986013472e-05 0.0 0.0 0.0
297 1 46.00939344262296 21.14546229508197 8.7968409014e-05 0.0 0.0 0.0
298 1 48.00972721311476 23.149885901639344 1.72322262131e-05 0.0 0.0 0.0
299 1 50.66751475409836 21.812105573770495 4.6886435692e-05 0.0 0.0 0.0
300 1 53.66319344262296 21.64447278688525 4.93108968924e-05 0.0 0.0 0.0
301 1 56.43418360655738 21.790141639344263 5.08389871939e-05 0.0 0.0 0.0
302 1 59.212747540983614 21.692036065573774 5.42410002757e-05 0.0 0.0 0.0
303 1 62.02665573770492 21.09769704918033 8.58754927222e-05 0.0 0.0 0.0
304 1 64.15034098360657 22.697176393442625 1.33506949087e-05 0.0 0.0 0.0
305 1 66.79308196721313 22.076278688524592 7.59054537677e-05 0.0 0.0 0.0
306 1 69.32625573770493 23.01143737704918 8.65266148231e-05 0.0 0.0 0.0
307 1 72.22448524590165 22.07249180327869 7.44038007022e-05 0.0 0.0 0.0
308 1 74.91670819672132 23.172001311475412 8.10641264544e-05 0.0 0.0 0.0
309 1 77.50390819672131 21.67093049180328 5.4832329121e-05 0.0 0.0 0.0
310 1 80.42990819672133 21.543388196721313 6.45793272291e-05 0.0 0.0 0.0
311 1 2.813054885245902 23.412392786885245 7.51080926008e-06 0.0 0.0 0.0
312 1 4.332065442622951 23.665205245901642 2.21745158469e-05 0.0 0.0 0.0
313 1 7.681419016393444 23.946091147540987 2.35016751936e-05 0.0 0.0 0.0
314 1 10.420750819672133 23.773308196721313 9.02498843731e-05 0.0 0.0 0.0
315 1 13.092474098360658 23.720190819672133 7.8643595784e-06 0.0 0.0 0.0
316 1 16.995339016393444 23.246123278688525 9.97569059e-05 0.0 0.0 0.0
317 1 18.532208524590168 23.421127868852462 2.15528864751e-05 0.0 0.0 0.0
318 1 21.28249704918033 23.710041967213115 7.49702136651e-06 0.0 0.0 0.0
319 1 24.093173770491806 24.08105573770492 3.97809628942e-05 0.0 0.0 0.0
320 1 26.732683278688526 24.27403540983607 8.11856547383e-05 0.0 0.0 0.0
321 1 29.321095081967215 23.2902531147541 2.60211355976e-05 0.0 0.0 0.0
322 1 31.74455016393443 23.545034754098364 3.32880939319e-05 0.0 0.0 0.0
323 1 33.92917901639345 23.790929836065576 5.63833469428e-05 0.0 0.0 0.0
324 1 36.54551278688525 23.522616393442625 4.15727437556e-05 0.0 0.0 0.0
325 1 39.24475409836066 23.795676065573772 9.96396772863e-06 0.0 0.0 0.0
326 1 41.829883934426235 24.286456393442627 7.5280290651e-05 0.0 0.0 0.0
327 1 44.42849508196722 24.007590163934427 6.58363613982e-05 0.0 0.0 0.0
328 1 47.12945311475411 24.40445573770492 9.03071751686e-05 0.0 0.0 0.0
329 1 49.606934426229515 24.365728524590164 9.02340617402e-05 0.0 0.0 0.0
330 1 52.204485245901644 23.684745573770492 3.04331171578e-05 0.0 0.0 0.0
331 1 55.00627540983607 23.99663344262295 8.59412263693e-05 0.0 0.0 0.0
332 1 57.97670819672132 24.008095081967213 4.93879158361e-05 0.0 0.0 0.0
333 1 60.76789508196722 23.55644590163935 8.40323912347e-05 0.0 0.0 0.0
334 1 63.38488524590164 24.020112131147542 4.80696893106e-05 0.0 0.0 0.0
335 1 66.01146885245902 24.555628196721315 1.91283401827e-05 0.0 0.0 0.0
336 1 68.66026885245903 24.42414754098361 2.57140916585e-05 0.0 0.0 0.0
337 1 71.11921967213117 24.425056393442624 5.07694465093e-05 0.0 0.0 0.0
338 1 74.05127868852459 24.456563278688527 8.51453364506e-05 0.0 0.0 0.0
339 1 76.7808655737705 24.3791593442623 4.71929405715e-05 0.0 0.0 0.0
340 1 79.31201967213116 23.760836721311478 9.86732154772e-05 0.0 0.0 0.0
341 1 81.87195409836066 23.799765901639347 2.50181583442e-05 0.0 0.0 0.0
342 1 0.445685593442623 26.33405049180328 8.85554440592e-05 0.0 0.0 0.0
343 1 2.778271081967213 25.835292459016394 2.14849890719e-06 0.0 0.0 0.0
344 1 5.176924590163935 24.959512131147545 9.76693761794e-05 0.0 0.0 0.0
345 1 8.909480655737704 26.07310885245902 2.76554601914e-05 0.0 0.0 0.0
346 1 11.594281311475411 26.05447737704918 7.0807530416e-05 0.0 0.0 0.0
347 1 14.189812459016395 26.044379016393446 2.22912206366e-05 0.0 0.0 0.0
348 1 16.746262950819673 25.607372459016396 9.74478889594e-05 0.0 0.0 0.0
349 1 19.620407868852464 25.759403278688527 9.21638999961e-06 0.0 0.0 0.0
350 1 23.284850491803283 26.013124590163937 3.74989801575e-05 0.0 0.0 0.0
351 1 25.90062885245902 26.356822295081972 2.05136165197e-05 0.0 0.0 0.0
352 1 28.518780327868853 25.86210360655738 6.43173102242e-05 0.0 0.0 0.0
353 1 30.04242098360656 25.885531803278692 2.12582748017e-05 0.0 0.0 0.0
354 1 32.654109508196726 26.297040000000003 5.56055342014e-05 0.0 0.0 0.0
355 1 35.27534098360656 25.976265573770494 5.10027174958e-05 0.0 0.0 0.0
356 1 37.927877377049185 25.867758688524592 3.40289839397e-06 0.0 0.0 0.0
357 1 40.018843934426236 27.426844590163938 1.70436565388e-05 0.0 0.0 0.0
358 1 43.865057049180336 26.308905573770495 8.8456590425e-05 0.0 0.0 0.0
359 1 45.387889836065575 26.434074754098365 4.08039044646e-05 0.0 0.0 0.0
360 1 48.385184262295084 26.79605049180328 3.65364901944e-05 0.0 0.0 0.0
361 1 50.96743606557377 26.232864918032792 5.02541014341e-06 0.0 0.0 0.0
362 1 53.46880000000001 25.926884590163937 7.92773087318e-05 0.0 0.0 0.0
363 1 55.6752918032787 25.403032131147544 4.00621318306e-06 0.0 0.0 0.0
364 1 59.39855737704919 25.89744786885246 9.65203386124e-05 0.0 0.0 0.0
365 1 61.76864262295083 26.081692459016395 7.56431823074e-05 0.0 0.0 0.0
366 1 64.2028524590164 26.485172459016397 8.83998480719e-05 0.0 0.0 0.0
367 1 67.00615737704918 26.81064262295082 6.37712362073e-05 0.0 0.0 0.0
368 1 69.75695081967214 26.88052327868853 9.32681273917e-05 0.0 0.0 0.0
369 1 72.52087213114754 26.420542950819673 1.77163332732e-05 0.0 0.0 0.0
370 1 74.62991475409838 25.87285836065574 6.39036199254e-05 0.0 0.0 0.0
371 1 78.11182950819673 26.38636 5.15865010825e-05 0.0 0.0 0.0
372 1 80.63339016393444 26.206407213114755 6.67135230403e-05 0.0 0.0 0.0
373 1 2.772272655737705 28.208710163934427 9.65149003789e-05 0.0 0.0 0.0
374 1 4.234520327868853 27.72732131147541 9.01190100305e-05 0.0 0.0 0.0
375 1 6.927424918032788 27.986041311475415 3.75514253236e-06 0.0 0.0 0.0
376 1 10.260893770491805 28.35579278688525 5.46347588767e-05 0.0 0.0 0.0
377 1 13.087121967213116 28.38962229508197 1.66253016683e-05 0.0 0.0 0.0
378 1 16.36560524590164 27.914393442622952 8.71707908426e-05 0.0 0.0 0.0
379 1 17.86753442622951 27.69010885245902 7.52612740747e-05 0.0 0.0 0.0
380 1 20.331988852459016 28.31060262295082 8.15838666793e-05 0.0 0.0 0.0
381 1 22.655773114754098 28.55094360655738 8.51015519904e-05 0.0 0.0 0.0
382 1 25.148553442622955 28.412091147540984 7.01860357258e-05 0.0 0.0 0.0
383 1 27.814369180327873 28.318327868852464 5.55725067201e-05 0.0 0.0 0.0
384 1 30.307805901639345 27.424017049180332 1.55254283293e-05 0.0 0.0 0.0
385 1 33.918373770491804 28.440215081967217 2.46815656571e-05 0.0 0.0 0.0
386 1 36.47805573770493 28.203610491803282 4.74631987669e-05 0.0 0.0 0.0
387 1 39.134379016393446 28.669397377049183 6.42983391305e-05 0.0 0.0 0.0
388 1 41.46669639344263 29.268230163934426 1.62685663869e-05 0.0 0.0 0.0
389 1 43.81345442622951 28.869647868852464 6.29969297044e-05 0.0 0.0 0.0
390 1 45.98687409836066 27.86763803278689 6.69883053323e-05 0.0 0.0 0.0
391 1 49.94881442622951 28.758616393442626 8.55652273742e-05 0.0 0.0 0.0
392 1 52.610944262295085 28.39780196721312 3.02488800274e-05 0.0 0.0 0.0
393 1 54.5432655737705 29.587843278688528 5.22111796333e-05 0.0 0.0 0.0
394 1 58.49424918032788 28.169528524590167 7.53727522536e-05 0.0 0.0 0.0
395 1 60.03374426229509 28.40572918032787 9.61612998444e-05 0.0 0.0 0.0
396 1 62.505318032786896 28.671720000000004 2.69749060723e-05 0.0 0.0 0.0
397 1 65.1500786885246 28.685100327868856 5.1148521515e-06 0.0 0.0 0.0
398 1 67.46361311475411 28.292173114754103 6.97599470514e-05 0.0 0.0 0.0
399 1 71.28786229508198 28.74427672131148 4.00394361202e-05 0.0 0.0 0.0
400 1 73.91747540983607 28.72110098360656 3.70127621296e-05 0.0 0.0 0.0
401 1 76.41934426229508 28.69979344262295 9.62906805115e-05 0.0 0.0 0.0
402 1 79.17417704918034 28.679697704918034 9.16628652445e-05 0.0 0.0 0.0
403 1 82.00121311475411 28.692926557377053 9.76301787735e-05 0.0 0.0 0.0
404 1 0.473021855737705 31.179546885245905 6.3367738559e-05 0.0 0.0 0.0
405 1 2.8083641967213118 30.929410491803285 6.60415403743e-05 0.0 0.0 0.0
406 1 5.445339016393443 30.132750819672133 1.31974001889e-05 0.0 0.0 0.0
407 1 7.738373770491804 29.296859016393448 5.70428131661e-05 0.0 0.0 0.0
408 1 11.397009836065575 30.45630229508197 8.6512282737e-05 0.0 0.0 0.0
409 1 13.995419016393443 30.839131147540986 1.40493570392e-05 0.0 0.0 0.0
410 1 17.149339016393444 30.136689180327874 6.77820217051e-06 0.0 0.0 0.0
411 1 18.673232131147543 30.308310819672137 2.07650401541e-05 0.0 0.0 0.0
412 1 21.251040655737704 30.91370754098361 1.59394144962e-06 0.0 0.0 0.0