ITEM: TIMESTEP
0
ITEM: NUMBER OF ATOMS
2232
ITEM: BOX BOUNDS xy xz yz pp pp pp
0.0 82.68810555352132 0
0.0 83.16 0
-10.0 10.0 0
ITEM: ATOMS id type x y z vx vy vz
1 1 1.4557544262295083 0.29007339016393446 7.58704573277e-05 0.0 0.0 0.0
2 1 3.6907488524590164 1.4937444590163935 5.88763865428e-05 0.0 0.0 0.0
3 1 6.603721967213115 0.7630472786885247 4.67453580705e-05 0.0 0.0 0.0
4 1 9.359160655737707 0.6399230163934426 3.87839320514e-05 0.0 0.0 0.0
5 1 12.09667475409836 0.16681128524590166 9.63906434733e-05 0.0 0.0 0.0
6 1 15.7319331147541 82.95146885245903 5.79394632241e-05 0.0 0.0 0.0
7 1 17.25113049180328 0.028156855081967216 8.78501471584e-06 0.0 0.0 0.0
8 1 19.802784262295084 0.49739778360655745 5.96247040039e-05 0.0 0.0 0.0
9 1 22.355851803278693 0.2597868918032787 5.86309656961e-05 0.0 0.0 0.0
10 1 25.162842622950823 0.27905456393442624 1.8485201165e-05 0.0 0.0 0.0
11 1 27.934792131147546 0.6059824262295082 1.21608999195e-05 0.0 0.0 0.0
12 1 30.34931016393443 1.9778598688524593 9.19853571548e-05 0.0 0.0 0.0
13 1 33.16241049180328 1.517783606557377 1.39943873903e-05 0.0 0.0 0.0
14 1 36.01772196721311 1.3097977704918033 3.61262058973e-05 0.0 0.0 0.0
15 1 39.809555409836065 0.9241666229508197 5.12448387228e-05 0.0 0.0 0.0
16 1 41.35213049180329 0.9098471475409837 8.31276799646e-05 0.0 0.0 0.0
17 1 43.91564983606558 1.248334098360656 5.36723377198e-05 0.0 0.0 0.0
18 1 46.563086557377055 1.062367737704918 5.92636272823e-05 0.0 0.0 0.0
19 1 49.31701049180328 0.6791652459016394 4.44431505863e-05 0.0 0.0 0.0
20 1 51.94142295081968 0.8497568524590164 7.44681354561e-05 0.0 0.0 0.0
21 1 54.62304262295083 1.6066946229508199 6.03315911962e-06 0.0 0.0 0.0
22 1 58.45638032786886 0.8430111475409837 4.70892926218e-05 0.0 0.0 0.0
23 1 59.993855737704926 0.9380518688524592 5.610944642e-05 0.0 0.0 0.0
24 1 63.242498360655745 0.35433430819672135 2.00418839522e-05 0.0 0.0 0.0
25 1 65.90392131147541 0.27078653114754103 4.67985392205e-05 0.0 0.0 0.0
26 1 68.26946229508198 1.6946059016393444 5.63543463107e-05 0.0 0.0 0.0
27 1 72.26790819672131 0.38695302295081974 7.79190566621e-05 0.0 0.0 0.0
28 1 73.84173770491805 0.6531367213114755 2.07153299439e-05 0.0 0.0 0.0
29 1 76.8192393442623 0.7241080000000001 4.36805239531e-05 0.0 0.0 0.0
30 1 80.18249836065574 0.2615238098360656 2.44109810029e-05 0.0 0.0 0.0
31 1 81.73663606557378 0.28365537704918037 3.92914992416e-05 0.0 0.0 0.0
32 1 0.2820956852459017 2.8268896393442624 4.81212423488e-05 0.0 0.0 0.0
33 1 2.936174098360656 2.83800793442623 9.62427752403e-05 0.0 0.0 0.0
34 1 5.538647868852459 2.9137506885245905 5.76965835629e-05 0.0 0.0 0.0
35 1 8.12428262295082 2.920511540983607 7.8363886253e-05 0.0 0.0 0.0
36 1 11.438968524590166 2.4418946885245902 2.48505690857e-05 0.0 0.0 0.0
37 1 12.957004590163935 2.4307208524590167 2.83502208026e-05 0.0 0.0 0.0
38 1 15.535368524590165 2.441864393442623 7.339937361e-05 0.0 0.0 0.0
39 1 18.32064786885246 2.61532393442623 9.83049539832e-05 0.0 0.0 0.0
40 1 21.258866885245904 2.7431540327868857 5.43184344374e-05 0.0 0.0 0.0
41 1 23.99592655737705 2.4337554098360656 8.24956325422e-05 0.0 0.0 0.0
42 1 26.283962622950824 3.829096393442623 6.20545813109e-05 0.0 0.0 0.0
43 1 29.174416393442627 2.9746892459016396 1.58088263011e-05 0.0 0.0 0.0
44 1 31.9173331147541 5.581565901639345 6.50240670172e-05 0.0 0.0 0.0
45 1 35.408740327868856 3.4129278032786887 8.68783561181e-05 0.0 0.0 0.0
46 1 36.95222426229509 3.486297442622951 6.71924099842e-05 0.0 0.0 0.0
47 1 39.68539606557378 3.5310180327868856 2.14195621869e-05 0.0 0.0 0.0
48 1 42.52354032786886 3.4630409180327875 1.57079962204e-05 0.0 0.0 0.0
49 1 45.33098557377049 3.4439196721311482 6.43628439196e-05 0.0 0.0 0.0
50 1 48.11318491803279 3.0875838688524593 1.46725319753e-05 0.0 0.0 0.0
51 1 50.52916721311476 3.1062203934426234 3.69649828184e-05 0.0 0.0 0.0
52 1 53.09061639344263 4.173899868852459 4.50668913832e-06 0.0 0.0 0.0
53 1 55.9519868852459 3.589785442622951 3.23620236119e-05 0.0 0.0 0.0
54 1 58.47152786885247 3.4498979016393445 9.87851207349e-05 0.0 0.0 0.0
55 1 60.93249836065574 2.1747223606557378 2.12749011736e-05 0.0 0.0 0.0
56 1 64.70221639344263 2.575485901639344 1.81061470075e-06 0.0 0.0 0.0
57 1 67.29900983606558 2.9090095081967218 7.92873874196e-05 0.0 0.0 0.0
58 1 69.75240655737704 3.3827438032786885 5.15341121256e-05 0.0 0.0 0.0
59 1 72.25427540983607 2.929938360655738 3.65156106098e-05 0.0 0.0 0.0
60 1 75.10706229508197 2.8300908196721317 7.19193860044e-05 0.0 0.0 0.0
61 1 77.70385573770493 3.2294860327868857 4.55445890511e-05 0.0 0.0 0.0
62 1 80.2496524590164 3.0537897049180334 7.15274566893e-05 0.0 0.0 0.0
63 1 1.808308393442623 5.185508196721312 2.23234393323e-05 0.0 0.0 0.0
64 1 4.687012721311476 5.1021967213114765 6.11300640604e-05 0.0 0.0 0.0
65 1 6.241392786885247 5.136783606557378 6.60009746862e-05 0.0 0.0 0.0
66 1 9.007283278688524 5.348697704918033 6.27383413861e-05 0.0 0.0 0.0
67 1 11.733537704918033 5.1021967213114765 1.21456637396e-05 0.0 0.0 0.0
68 1 14.5030131147541 4.737438885245902 6.47530265146e-05 0.0 0.0 0.0
69 1 16.94621049180328 5.702089836065575 1.84332517869e-05 0.0 0.0 0.0
70 1 19.80212786885246 4.717555213114754 3.4371628422e-05 0.0 0.0 0.0
71 1 22.674000655737707 4.886056459016394 4.80887560878e-05 0.0 0.0 0.0
72 1 25.55173049180328 5.2057049180327875 7.36421048062e-06 0.0 0.0 0.0
73 1 28.718677377049183 4.989428327868853 6.44444917928e-05 0.0 0.0 0.0
74 1 30.028838688524594 4.225613573770492 2.80585699193e-05 0.0 0.0 0.0
75 1 33.73877442622951 6.894706229508197 3.42648357975e-05 0.0 0.0 0.0
76 1 35.91532459016394 5.990499016393443 2.7097354525e-05 0.0 0.0 0.0
77 1 38.54524065573771 5.729658360655738 4.69911222373e-05 0.0 0.0 0.0
78 1 41.30487016393443 5.701433442622951 7.18480219059e-05 0.0 0.0 0.0
79 1 44.272020983606566 5.622969180327869 4.35864140067e-05 0.0 0.0 0.0
80 1 47.20307016393443 5.370257704918033 2.9160211125e-05 0.0 0.0 0.0
81 1 48.76160065573771 5.58217180327869 1.58762862687e-05 0.0 0.0 0.0
82 1 53.29611803278689 5.673006557377049 6.14090472644e-05 0.0 0.0 0.0
83 1 54.81036721311476 5.760559344262295 5.5522145655e-05 0.0 0.0 0.0
84 1 57.48996721311476 5.846546885245902 3.64722274612e-05 0.0 0.0 0.0
85 1 59.63031475409837 4.4767648524590165 9.53141118361e-06 0.0 0.0 0.0
86 1 63.69339016393443 5.237767213114755 8.95780458779e-05 0.0 0.0 0.0
87 1 65.27378360655739 4.980976 3.78591969484e-05 0.0 0.0 0.0
88 1 68.11596721311476 5.501940327868852 2.76534755301e-05 0.0 0.0 0.0
89 1 71.02732459016394 5.508150819672132 9.6962644715e-06 0.0 0.0 0.0
90 1 73.80235409836067 5.040187737704918 4.8058350178e-05 0.0 0.0 0.0
91 1 76.4117704918033 5.378184918032788 4.76722203321e-05 0.0 0.0 0.0
92 1 79.02977049180329 5.53056918032787 6.66840356772e-05 0.0 0.0 0.0
93 1 81.79470163934427 5.237615737704919 3.74841974984e-06 0.0 0.0 0.0
94 1 0.2978087344262295 7.553573770491805 2.68896171346e-05 0.0 0.0 0.0
95 1 2.8965026885245906 8.271213770491803 4.61896661724e-05 0.0 0.0 0.0
96 1 5.191011803278689 8.014311475409837 5.72149278764e-05 0.0 0.0 0.0
97 1 7.832944918032787 7.412600655737705 1.94185144755e-05 0.0 0.0 0.0
98 1 10.616507540983607 7.419568524590164 1.58159401796e-05 0.0 0.0 0.0
99 1 13.346700327868854 7.116567213114755 6.73179913076e-05 0.0 0.0 0.0
100 1 16.240587540983608 7.068549508196722 7.25620642391e-05 0.0 0.0 0.0
101 1 18.903777704918035 6.9501462295081975 6.98780741212e-05 0.0 0.0 0.0
102 1 21.09345573770492 8.112820983606557 8.92428379647e-05 0.0 0.0 0.0
103 1 23.882875409836068 7.21224918032787 7.95545368252e-06 0.0 0.0 0.0
104 1 26.51455868852459 7.759832786885246 4.37235267963e-05 0.0 0.0 0.0
105 1 29.073180327868855 7.736354098360656 2.68901667947e-05 0.0 0.0 0.0
106 1 31.45609049180328 7.135350163934427 5.68029704649e-06 0.0 0.0 0.0
107 1 35.113363278688524 8.83116786885246 5.21111821189e-05 0.0 0.0 0.0
108 1 37.59084459016394 8.136198688524592 4.39614091981e-05 0.0 0.0 0.0
109 1 40.13007737704918 8.87509573770492 3.02605781103e-05 0.0 0.0 0.0
110 1 42.87753836065574 7.716409836065575 9.5649596894e-05 0.0 0.0 0.0
111 1 45.41409508196722 8.635764590163935 4.87775310329e-05 0.0 0.0 0.0
112 1 47.6502255737705 8.404360655737706 8.58789081345e-06 0.0 0.0 0.0
113 1 49.49529704918033 7.01740131147541 5.88296356329e-05 0.0 0.0 0.0
114 1 53.31076065573771 8.12468655737705 3.489587098e-05 0.0 0.0 0.0
115 1 56.16102295081968 8.052382295081967 3.15143528319e-05 0.0 0.0 0.0
116 1 59.02946229508198 7.492175737704919 5.28333664326e-05 0.0 0.0 0.0
117 1 61.84387540983607 7.661727213114755 4.80066889694e-05 0.0 0.0 0.0
118 1 64.02360655737705 7.79164262295082 4.74597565402e-05 0.0 0.0 0.0
119 1 66.7052262295082 7.367915409836066 3.7283652758e-05 0.0 0.0 0.0
120 1 69.49035409836067 7.571801311475411 8.91053105693e-05 0.0 0.0 0.0
121 1 73.22018360655738 7.250471475409837 7.6346184496e-05 0.0 0.0 0.0
122 1 74.72635409836067 7.527822950819673 9.7102593606e-05 0.0 0.0 0.0
123 1 77.73869508196722 7.839104918032787 9.13004208105e-05 0.0 0.0 0.0
124 1 80.43596721311476 7.6061862295081974 4.17763906507e-05 0.0 0.0 0.0
125 1 1.3295855081967214 10.154810491803278 3.0791225588e-05 0.0 0.0 0.0
126 1 4.102898295081968 10.631301639344263 9.74394054257e-05 0.0 0.0 0.0
127 1 7.63956131147541 9.63701704918033 1.42146585491e-05 0.0 0.0 0.0
128 1 9.18153049180328 9.579708852459017 4.11847490019e-05 0.0 0.0 0.0
129 1 11.847548196721313 9.488975081967213 2.82189969155e-05 0.0 0.0 0.0
130 1 14.653074754098363 9.183802622950822 5.65670906245e-05 0.0 0.0 0.0
131 1 17.452845245901642 9.294632131147543 9.88281022746e-05 0.0 0.0 0.0
132 1 20.219493114754098 9.37824655737705 1.88253189892e-05 0.0 0.0 0.0
133 1 22.6834931147541 9.636613114754098 3.33830302392e-05 0.0 0.0 0.0
134 1 25.22918885245902 9.738909508196722 1.56150976451e-05 0.0 0.0 0.0
135 1 27.984728524590167 10.106035409836066 2.35682853377e-06 0.0 0.0 0.0
136 1 30.60944393442623 10.01742229508197 9.02245302089e-05 0.0 0.0 0.0
137 1 33.25789049180329 10.710624262295083 2.88416178475e-05 0.0 0.0 0.0
138 1 36.06871868852459 10.803680655737706 9.70343864484e-05 0.0 0.0 0.0
139 1 40.382233442622955 10.376873442622951 9.88147796811e-05 0.0 0.0 0.0
140 1 41.86522819672132 10.05897704918033 4.24824716123e-05 0.0 0.0 0.0
141 1 43.82829901639345 11.745201311475412 8.19377508397e-05 0.0 0.0 0.0
142 1 46.68482229508197 11.058815737704919 4.40779098405e-05 0.0 0.0 0.0
143 1 50.102360000000004 9.90533049180328 3.40959882181e-05 0.0 0.0 0.0
144 1 51.655639344262305 10.152033442622953 2.55943851801e-05 0.0 0.0 0.0
145 1 54.516000000000005 10.197526557377051 7.38193182658e-05 0.0 0.0 0.0
146 1 57.47078032786886 9.842569180327871 6.82165440651e-05 0.0 0.0 0.0
147 1 60.26701639344263 9.789906229508198 5.02862321968e-05 0.0 0.0 0.0
148 1 62.95721967213115 10.307800655737706 1.32425045014e-05 0.0 0.0 0.0
149 1 65.47625573770492 9.808588196721313 8.25801645799e-05 0.0 0.0 0.0
150 1 67.97459016393444 9.642116721311476 7.60818397827e-05 0.0 0.0 0.0
151 1 70.61228196721312 9.910076721311476 3.98615864222e-05 0.0 0.0 0.0
152 1 73.15454426229508 9.747998032786887 2.08338111567e-05 0.0 0.0 0.0
153 1 75.36558032786887 8.951186885245903 4.66964636071e-05 0.0 0.0 0.0
154 1 79.0141180327869 9.973241967213115 8.2452988652e-05 0.0 0.0 0.0
155 1 81.48266229508197 9.979300983606558 1.1375959262e-05 0.0 0.0 0.0
156 1 82.47028196721313 12.451127213114756 7.80530269589e-05 0.0 0.0 0.0
157 1 2.497698229508197 12.517725901639345 4.56731266788e-05 0.0 0.0 0.0
158 1 5.257257049180328 12.735194098360658 9.04899008993e-05 0.0 0.0 0.0
159 1 7.8709147540983615 12.309497704918034 3.50574123266e-05 0.0 0.0 0.0
160 1 10.59641180327869 11.881428196721313 9.78980081513e-05 0.0 0.0 0.0
161 1 13.266771803278688 11.480523278688526 2.90938902614e-06 0.0 0.0 0.0
162 1 15.911431475409836 11.396908852459017 9.81708361022e-05 0.0 0.0 0.0
163 1 18.59865573770492 11.525763934426232 5.91483367018e-05 0.0 0.0 0.0
164 1 21.13768655737705 11.898544918032789 3.94613454129e-05 0.0 0.0 0.0
165 1 23.62163081967213 12.019826229508197 9.97585381645e-05 0.0 0.0 0.0
166 1 26.27482360655738 12.067288524590165 8.61654652585e-05 0.0 0.0 0.0
167 1 29.127055081967217 12.444765245901639 9.13018276906e-05 0.0 0.0 0.0
168 1 31.77646098360656 12.691417704918035 1.49178034899e-05 0.0 0.0 0.0
169 1 34.66711672131148 12.938423606557379 9.17187175422e-05 0.0 0.0 0.0
170 1 36.86446950819673 12.117275409836067 2.8153351122e-05 0.0 0.0 0.0
171 1 40.37723475409837 13.129585573770493 1.09868705773e-05 0.0 0.0 0.0
172 1 43.028660327868856 13.064451147540986 2.78852587046e-05 0.0 0.0 0.0
173 1 45.31886754098361 13.348921967213116 1.05316786426e-05 0.0 0.0 0.0
174 1 47.75368327868853 13.119083278688526 8.65196975526e-05 0.0 0.0 0.0
175 1 50.27999016393443 12.80058098360656 1.21990146417e-05 0.0 0.0 0.0
176 1 53.33247213114755 12.380640655737706 3.33085342688e-05 0.0 0.0 0.0
177 1 56.165567213114755 12.013918688524592 8.0706827625e-05 0.0 0.0 0.0
178 1 58.825980327868855 12.017150163934428 7.93348311947e-06 0.0 0.0 0.0
179 1 61.52628196721312 12.286675409836066 4.43727383332e-06 0.0 0.0 0.0
180 1 65.16371147540984 12.214320655737707 9.85082370203e-05 0.0 0.0 0.0
181 1 66.70371147540985 12.125758032786887 5.7834163681e-05 0.0 0.0 0.0
182 1 69.25253770491804 12.034115409836067 8.29617488688e-05 0.0 0.0 0.0
183 1 72.09169180327869 12.162920000000002 3.60180370576e-05 0.0 0.0 0.0
184 1 74.77331147540984 11.853203278688525 6.6879670523e-05 0.0 0.0 0.0
185 1 77.40746885245902 12.092231475409836 8.90375046142e-05 0.0 0.0 0.0
186 1 79.99214426229508 12.425275409836066 4.07510368589e-05 0.0 0.0 0.0
187 1 1.1587969836065575 14.712655081967215 7.8406708409e-05 0.0 0.0 0.0
188 1 3.856296327868853 14.791270819672132 7.93305294854e-05 0.0 0.0 0.0
189 1 6.639066229508197 14.788847213114755 6.96416137266e-05 0.0 0.0 0.0
190 1 9.249845901639345 14.333057704918035 4.62323030476e-05 0.0 0.0 0.0
191 1 12.856475409836067 13.724278032786886 7.992395536e-05 0.0 0.0 0.0
192 1 14.396929836065576 13.714836065573772 8.7439430777e-05 0.0 0.0 0.0
193 1 16.991602622950822 13.694285901639345 9.38793179374e-05 0.0 0.0 0.0
194 1 19.67695868852459 14.058786229508197 8.07401681932e-05 0.0 0.0 0.0
195 1 22.136969836065575 14.35290098360656 4.4905676806e-05 0.0 0.0 0.0
196 1 25.545873442622952 14.163304262295084 1.91616124339e-05 0.0 0.0 0.0
197 1 26.88809704918033 13.456419016393443 9.6046745758e-05 0.0 0.0 0.0
198 1 30.213234754098362 14.814547540983607 9.32923988475e-05 0.0 0.0 0.0
199 1 32.31672327868853 14.159618360655738 6.90375769333e-05 0.0 0.0 0.0
200 1 36.217770491803286 14.976272786885247 4.01693168414e-05 0.0 0.0 0.0
201 1 38.762910819672136 15.299874754098362 4.13832063939e-05 0.0 0.0 0.0
202 1 41.47982426229509 15.381166557377052 2.43680326722e-05 0.0 0.0 0.0
203 1 43.98022885245902 15.712039344262296 9.47158177697e-05 0.0 0.0 0.0
204 1 46.4727062295082 15.640340983606558 1.48499726848e-05 0.0 0.0 0.0
205 1 49.21733967213115 15.28073836065574 4.397940421e-05 0.0 0.0 0.0
206 1 51.21787540983607 14.040457704918035 4.38055767054e-05 0.0 0.0 0.0
207 1 54.922459016393454 14.254593442622953 9.15759464524e-05 0.0 0.0 0.0
208 1 57.354649180327876 14.308013770491804 2.87853580421e-05 0.0 0.0 0.0
209 1 59.70352786885246 14.356889836065575 6.68329559509e-05 0.0 0.0 0.0
210 1 62.221554098360656 14.54689049180328 2.13859468205e-05 0.0 0.0 0.0
211 1 64.85874098360657 14.959408524590167 1.0966896454e-05 0.0 0.0 0.0
212 1 68.87738360655739 14.227428852459019 5.89736554571e-05 0.0 0.0 0.0
213 1 70.41586885245903 14.151691147540985 1.59489231634e-05 0.0 0.0 0.0
214 1 73.23028196721312 14.258380327868855 1.43837798736e-05 0.0 0.0 0.0
215 1 75.9144262295082 14.348760655737706 8.09730483118e-05 0.0 0.0 0.0
216 1 78.5864524590164 14.663375081967216 4.07963133548e-07 0.0 0.0 0.0
217 1 81.2089967213115 14.915531147540985 5.463534977e-05 0.0 0.0 0.0
218 1 0.7521460983606558 16.912835409836067 3.67561479067e-05 0.0 0.0 0.0
219 1 2.3120095737704918 16.985190163934426 8.76554802619e-05 0.0 0.0 0.0
220 1 5.083262295081968 16.93848524590164 6.0048514164e-05 0.0 0.0 0.0
221 1 7.759731803278689 16.841692459016397 5.71850057196e-05 0.0 0.0 0.0
222 1 10.265942950819674 16.594585573770495 8.83820220423e-05 0.0 0.0 0.0
223 1 12.765792131147544 16.43922229508197 8.3231552431e-05 0.0 0.0 0.0
224 1 16.390346229508197 15.907291147540985 9.98732704444e-05 0.0 0.0 0.0
225 1 17.924287213114756 16.05573704918033 4.29664689865e-05 0.0 0.0 0.0
226 1 20.6968931147541 16.63159606557377 5.81340911284e-05 0.0 0.0 0.0
227 1 23.185028196721312 16.901929180327873 4.22187610085e-06 0.0 0.0 0.0
228 1 25.69224918032787 18.15569114754099 3.58265983055e-05 0.0 0.0 0.0
229 1 28.462986885245904 16.83108918032787 2.05904130149e-05 0.0 0.0 0.0
230 1 31.308250491803282 17.078398032786886 2.28430614447e-05 0.0 0.0 0.0
231 1 34.57784721311476 16.985341639344263 3.33438156045e-05 0.0 0.0 0.0
232 1 37.32929704918033 17.51949442622951 1.9075258734e-05 0.0 0.0 0.0
233 1 39.9772386885246 17.571601967213116 7.89177606333e-05 0.0 0.0 0.0
234 1 42.647649180327875 17.937869508196723 9.72041906382e-06 0.0 0.0 0.0
235 1 45.236414426229516 18.093081311475412 1.62763836244e-06 0.0 0.0 0.0
236 1 48.019926557377055 17.592505573770495 5.13982455098e-05 0.0 0.0 0.0
237 1 50.74830163934426 17.06835016393443 6.26343437232e-05 0.0 0.0 0.0
238 1 54.21254426229509 16.51384918032787 2.31723422951e-05 0.0 0.0 0.0
239 1 55.74850491803279 16.67870491803279 9.66958120681e-05 0.0 0.0 0.0
240 1 58.197862295081976 16.81876918032787 7.45086928515e-05 0.0 0.0 0.0
241 1 60.700236065573776 16.796047868852458 8.93016151189e-06 0.0 0.0 0.0
242 1 63.29854426229509 16.9532793442623 4.70418676057e-05 0.0 0.0 0.0
243 1 65.59693114754099 16.33207868852459 6.10822424401e-05 0.0 0.0 0.0
244 1 69.91448524590166 16.471940983606558 3.0604049419e-05 0.0 0.0 0.0
245 1 71.46508852459017 16.33409836065574 7.62233916443e-05 0.0 0.0 0.0
246 1 74.21285245901639 16.587920655737705 2.29054052066e-05 0.0 0.0 0.0
247 1 77.03534426229508 16.831796065573773 1.40701527915e-05 0.0 0.0 0.0
248 1 79.73514098360657 17.193216393442622 1.76229188854e-05 0.0 0.0 0.0
249 1 0.7461476721311476 19.39915278688525 9.49283979456e-05 0.0 0.0 0.0
250 1 4.528372524590164 18.976687868852462 7.17778668407e-05 0.0 0.0 0.0
251 1 6.073709508196722 19.127304918032788 8.90174071969e-05 0.0 0.0 0.0
252 1 9.632068852459017 18.994208524590167 6.13661092087e-05 0.0 0.0 0.0
253 1 11.154396721311477 18.840511475409837 8.6366088169e-05 0.0 0.0 0.0
254 1 13.721500983606559 18.820920655737705 4.18312859804e-05 0.0 0.0 0.0
255 1 16.300167868852462 18.512163278688526 7.49020163597e-05 0.0 0.0 0.0
256 1 19.207132459016396 18.465761311475415 1.5861124562e-05 0.0 0.0 0.0
257 1 22.03023016393443 19.19698360655738 5.86788037627e-05 0.0 0.0 0.0
258 1 24.904021639344265 19.504579672131147 2.90579236378e-05 0.0 0.0 0.0
259 1 27.45648327868853 19.27625573770492 9.44110402888e-06 0.0 0.0 0.0
260 1 30.01202491803279 19.083579016393443 6.04233050784e-05 0.0 0.0 0.0
261 1 32.06148721311475 18.449099016393447 9.47960786821e-05 0.0 0.0 0.0
262 1 35.043028196721316 20.55112327868853 5.80169028111e-05 0.0 0.0 0.0
263 1 39.25773049180328 19.7629462295082 2.5375263125e-06 0.0 0.0 0.0
264 1 40.80848524590164 19.94804918032787 9.26089251042e-05 0.0 0.0 0.0
265 1 43.56417639344263 20.366272786885247 1.7332526062e-05 0.0 0.0 0.0
266 1 47.50273901639345 19.74896 8.94553110027e-05 0.0 0.0 0.0
267 1 49.02188590163935 19.44833180327869 9.02528643003e-05 0.0 0.0 0.0
268 1 51.57636721311476 19.481757377049185 7.69811458064e-05 0.0 0.0 0.0
269 1 54.245868852459026 19.23535737704918 9.4201042384e-05 0.0 0.0 0.0
270 1 57.13955409836066 19.229904262295083 4.97163607233e-05 0.0 0.0 0.0
271 1 59.79441311475411 19.16946557377049 5.79013008595e-05 0.0 0.0 0.0
272 1 62.389691803278694 19.095141639344263 6.91196999474e-05 0.0 0.0 0.0
273 1 64.29929180327869 20.463419016393445 6.03230761541e-05 0.0 0.0 0.0
274 1 67.03291803278688 19.173252459016396 6.99763992599e-05 0.0 0.0 0.0
275 1 69.79835409836066 19.236771147540985 6.57491632227e-05 0.0 0.0 0.0
276 1 72.53854426229508 18.722007213114757 5.75353155853e-06 0.0 0.0 0.0
277 1 75.32670163934428 18.867423606557377 2.20399850822e-05 0.0 0.0 0.0
278 1 77.9739868852459 19.309176393442623 6.09040061205e-05 0.0 0.0 0.0
279 1 80.90251147540985 19.716190819672132 8.27735991286e-05 0.0 0.0 0.0
280 1 82.24912786885245 21.901223606557377 4.94247797596e-05 0.0 0.0 0.0
281 1 1.90675731147541 21.733641311475413 1.66733454765e-05 0.0 0.0 0.0
282 1 4.323022360655738 21.546468196721314 7.64329218087e-05 0.0 0.0 0.0
283 1 6.962213770491804 21.745910819672133 2.67025094774e-05 0.0 0.0 0.0
284 1 9.57077180327869 21.507589508196727 5.81516112305e-05 0.0 0.0 0.0
285 1 12.394980327868854 21.1920662295082 4.59043091663e-05 0.0 0.0 0.0
286 1 15.221814426229509 20.984342950819673 7.32639367507e-06 0.0 0.0 0.0
287 1 17.976748196721314 20.49871278688525 1.99950511616e-05 0.0 0.0 0.0
288 1 20.365060983606558 21.81306491803279 3.81602896311e-06 0.0 0.0 0.0
289 1 23.348874098360657 21.596101639344266 9.40038236665e-05 0.0 0.0 0.0
290 1 27.10369704918033 21.52960393442623 3.45419403916e-05 0.0 0.0 0.0
291 1 28.656370491803283 21.525867540983608 9.99020462155e-05 0.0 0.0 0.0
292 1 31.283862950819675 21.445181639344263 8.01906424721e-05 0.0 0.0 0.0
293 1 33.92917901639345 21.653056393442625 3.46786013011e-05 0.0 0.0 0.0
294 1 36.34400000000001 22.24118491803279 9.8811335461e-05 0.0 0.0 0.0
295 1 38.79381180327869 22.23356065573771 5.92537270694e-05 0.0 0.0 0.0
296 1 41.645841311475415 22.361001967213117 4.45896526274e-05 0.0 0.0 0.0
297 1 44.880447213114756 22.614016393442625 1.33428308928e-05 0.0 0.0 0.0
298 1 47.46411278688525 22.11409704918033 8.18707784473e-05 0.0 0.0 0.0
299 1 50.2011724590164 21.85199409836066 1.21621081742e-05 0.0 0.0 0.0
300 1 52.86289836065574 21.621246557377052 1.5245964005e-05 0.0 0.0 0.0
301 1 55.736386885245906 21.34490491803279 5.94389494471e-05 0.0 0.0 0.0
302 1 59.42784262295082 21.279669508196722 6.29416884001e-05 0.0 0.0 0.0
303 1 60.97996065573771 21.479768524590167 5.30273635891e-05 0.0 0.0 0.0
304 1 63.69389508196722 21.911877377049183 4.11429052795e-06 0.0 0.0 0.0
305 1 66.25938360655739 21.514456393442625 9.09589621514e-05 0.0 0.0 0.0
306 1 68.64714098360656 22.454159344262298 5.88590664324e-05 0.0 0.0 0.0
307 1 71.24140983606559 21.187370491803282 2.02577963479e-05 0.0 0.0 0.0
308 1 73.8775868852459 20.97485049180328 3.88286268197e-05 0.0 0.0 0.0
309 1 76.4880131147541 21.366565901639344 9.50856857931e-05 0.0 0.0 0.0
310 1 78.60059016393443 20.728551475409837 8.03076834388e-05 0.0 0.0 0.0
311 1 0.9169160000000002 24.309531147540984 2.51261234476e-05 0.0 0.0 0.0
312 1 3.5118412459016395 24.039046557377052 3.69756482338e-05 0.0 0.0 0.0
313 1 5.919911475409837 25.12017704918033 7.65340219908e-06 0.0 0.0 0.0
314 1 8.669897049180328 23.92044131147541 3.32834613573e-05 0.0 0.0 0.0
315 1 11.354344262295083 23.476163934426232 7.90050967567e-05 0.0 0.0 0.0
316 1 14.011323934426231 23.21098098360656 5.42958372617e-05 0.0 0.0 0.0
317 1 16.842803278688528 22.89606360655738 9.75315366696e-06 0.0 0.0 0.0
318 1 19.603240655737704 23.14362491803279 6.19207608841e-05 0.0 0.0 0.0
319 1 21.67951409836066 24.860447213114757 6.7883800025e-05 0.0 0.0 0.0
320 1 24.454846557377053 24.09802098360656 1.44288271839e-05 0.0 0.0 0.0
321 1 27.07224065573771 24.013093770491807 7.1573786379e-05 0.0 0.0 0.0
322 1 29.881907540983608 23.90822229508197 4.45935838036e-05 0.0 0.0 0.0
323 1 32.48602229508197 23.959723934426233 9.19628759372e-06 0.0 0.0 0.0
324 1 35.08650163934427 24.299331803278694 4.85477330236e-05 0.0 0.0 0.0
325 1 37.59453049180328 25.50982229508197 9.87157781019e-05 0.0 0.0 0.0
326 1 40.31220131147541 24.42142098360656 5.61656655791e-05 0.0 0.0 0.0
327 1 42.4826924590164 23.6591462295082 7.24575290648e-05 0.0 0.0 0.0
328 1 46.364754754098364 24.623034754098363 8.97172394456e-05 0.0 0.0 0.0
329 1 48.97093967213115 24.223341639344266 9.22305337112e-05 0.0 0.0 0.0
330 1 51.56475409836066 24.045004590163938 3.43875492563e-05 0.0 0.0 0.0
331 1 54.08379016393443 23.50827672131148 1.3414460048e-06 0.0 0.0 0.0
332 1 56.74723278688525 23.668992131147544 7.14808927269e-05 0.0 0.0 0.0
333 1 59.042085245901646 23.98638360655738 2.22122602412e-05 0.0 0.0 0.0
334 1 61.763593442622955 24.02369704918033 3.83101740151e-05 0.0 0.0 0.0
335 1 66.10689836065573 23.743568524590167 4.37417116035e-05 0.0 0.0 0.0
336 1 67.65699672131149 23.620923934426234 2.36835691078e-05 0.0 0.0 0.0
337 1 70.3593180327869 23.810066229508198 1.42908083393e-05 0.0 0.0 0.0
338 1 72.94853770491804 23.339836065573774 3.2421824403e-06 0.0 0.0 0.0
339 1 75.49685901639344 24.498168524590167 3.23930174477e-05 0.0 0.0 0.0
340 1 78.26179016393444 23.585680655737708 9.98732036226e-05 0.0 0.0 0.0
341 1 80.88837377049181 23.94553573770492 8.11911282028e-05 0.0 0.0 0.0
342 1 82.24054426229509 26.38772327868853 4.05425278943e-05 0.0 0.0 0.0
343 1 2.4691047213114756 26.529403278688527 6.2898792558e-05 0.0 0.0 0.0
344 1 5.383739016393442 26.571715409836067 7.98225967097e-05 0.0 0.0 0.0
345 1 8.000123278688525 26.232965901639346 4.41901489065e-05 0.0 0.0 0.0
346 1 10.624333770491804 25.871141639344266 5.28335225498e-05 0.0 0.0 0.0
347 1 13.074549508196723 25.615350163934426 5.43308083228e-05 0.0 0.0 0.0
348 1 15.77348786885246 25.118157377049183 7.31142728415e-05 0.0 0.0 0.0
349 1 17.92413573770492 26.402264918032788 7.52334488229e-05 0.0 0.0 0.0
350 1 20.77323672131148 26.086792131147543 7.31114805085e-05 0.0 0.0 0.0
351 1 23.184573770491802 26.50188524590164 8.83644855639e-06 0.0 0.0 0.0
352 1 25.933246557377053 26.376514098360655 2.60488756567e-05 0.0 0.0 0.0
353 1 28.632639344262298 26.228421639344266 6.33011093455e-05 0.0 0.0 0.0
354 1 31.232310819672136 26.377069508196723 7.48001286273e-05 0.0 0.0 0.0
355 1 33.87000262295083 26.49421049180328 8.84532235195e-05 0.0 0.0 0.0
356 1 36.78282426229509 26.80271540983607 3.87592317853e-05 0.0 0.0 0.0
357 1 39.51867213114755 26.863053114754102 2.40287842066e-05 0.0 0.0 0.0
358 1 42.22361901639345 26.475680000000004 7.03674240084e-06 0.0 0.0 0.0
359 1 44.92785901639345 26.64174754098361 7.79731284717e-05 0.0 0.0 0.0
360 1 47.613820983606566 26.72026229508197 2.98985799486e-05 0.0 0.0 0.0
361 1 50.22520655737705 26.492796721311475 6.21372441133e-05 0.0 0.0 0.0
362 1 53.84748852459017 25.85392393442623 2.90942554201e-05 0.0 0.0 0.0
363 1 55.379409836065584 25.80565377049181 4.51815411984e-06 0.0 0.0 0.0
364 1 57.63386885245902 27.41099016393443 3.63274596178e-05 0.0 0.0 0.0
365 1 60.23621639344263 26.299766557377055 7.90209198923e-06 0.0 0.0 0.0
366 1 62.52248524590164 25.382532459016396 7.95589606626e-05 0.0 0.0 0.0
367 1 66.14476721311476 26.54475278688525 2.36346882669e-05 0.0 0.0 0.0
368 1 68.90464918032788 25.953089836065576 1.04167718304e-05 0.0 0.0 0.0
369 1 71.81600655737707 25.888914754098362 6.41644126839e-05 0.0 0.0 0.0
370 1 75.4640393442623 26.023323934426234 9.5054957992e-05 0.0 0.0 0.0
371 1 76.99394098360656 26.01181180327869 5.95890969281e-05 0.0 0.0 0.0
372 1 79.60133770491804 26.116430819672132 7.67112595871e-05 0.0 0.0 0.0
373 1 0.677064786885246 28.519992131147543 1.7521573234e-05 0.0 0.0 0.0
374 1 4.123296983606558 28.68459540983607 7.09080109816e-05 0.0 0.0 0.0
375 1 7.893838032786887 28.27717704918033 2.01169226574e-05 0.0 0.0 0.0
376 1 9.440351475409837 28.323680000000003 7.83316115495e-05 0.0 0.0 0.0
377 1 12.046435409836066 28.211184262295085 6.16815156166e-05 0.0 0.0 0.0
378 1 14.552545573770493 27.59331606557377 7.76211546978e-05 0.0 0.0 0.0
379 1 17.29313967213115 27.791243934426234 9.57187657357e-05 0.0 0.0 0.0
380 1 19.447927868852464 28.282175737704918 9.14967647459e-06 0.0 0.0 0.0
381 1 21.596101639344266 29.828335737704922 7.29574530232e-05 0.0 0.0 0.0
382 1 24.323870819672134 28.598910819672135 4.88100724165e-05 0.0 0.0 0.0
383 1 27.09183147540984 28.567555409836068 6.81570475436e-05 0.0 0.0 0.0
384 1 29.721141639344268 28.72917967213115 8.89748626541e-05 0.0 0.0 0.0
385 1 32.74479278688525 28.828345573770495 8.78700917421e-05 0.0 0.0 0.0
386 1 35.46200918032787 28.69878360655738 1.11456301582e-05 0.0 0.0 0.0
387 1 38.227344262295084 29.033544262295084 6.44893412562e-05 0.0 0.0 0.0
388 1 41.09012852459017 28.884946885245906 3.00879079846e-05 0.0 0.0 0.0
389 1 43.76922360655738 28.833495737704922 9.27455750304e-05 0.0 0.0 0.0
390 1 46.3210793442623 28.98522360655738 2.78913061867e-07 0.0 0.0 0.0
391 1 48.84637639344263 28.945082622950824 3.26971562404e-05 0.0 0.0 0.0
392 1 51.326432786885256 28.809057704918036 4.05816641257e-05 0.0 0.0 0.0
393 1 53.9232262295082 28.40451737704918 9.60031636246e-05 0.0 0.0 0.0
394 1 56.769449180327875 28.683181639344266 4.077835942e-05 0.0 0.0 0.0
395 1 59.351600000000005 28.992393442622955 8.26756192532e-05 0.0 0.0 0.0
396 1 62.08320655737705 28.223150819672135 5.93726898982e-06 0.0 0.0 0.0
397 1 64.70423606557378 29.35633836065574 7.62564228661e-05 0.0 0.0 0.0
398 1 68.67895081967214 28.06203147540984 8.42643056637e-05 0.0 0.0 0.0
399 1 70.23864262295083 27.91605967213115 7.17255459291e-05 0.0 0.0 0.0
400 1 72.81372459016394 29.269997377049183 4.7566014683e-05 0.0 0.0 0.0
401 1 75.38678688524591 28.35968065573771 2.1840848373e-05 0.0 0.0 0.0
402 1 78.08355409836065 28.404163934426233 1.07233769617e-05 0.0 0.0 0.0
403 1 80.64702295081969 28.610776393442627 3.20091886285e-05 0.0 0.0 0.0
404 1 0.15575055081967215 30.59919409836066 1.69194651959e-05 0.0 0.0 0.0
405 1 1.4866907540983607 29.813491147540987 6.77568499949e-05 0.0 0.0 0.0
406 1 5.283613770491804 30.839535081967217 7.6884692169e-05 0.0 0.0 0.0
407 1 8.006939672131148 30.754506885245906 5.72205660077e-05 0.0 0.0 0.0
408 1 10.885022950819673 30.669377704918038 5.93879414647e-05 0.0 0.0 0.0
409 1 14.3366931147541 30.028030819672136 4.10592292911e-05 0.0 0.0 0.0
410 1 15.8705331147541 29.86575016393443 6.94865141742e-05 0.0 0.0 0.0
411 1 18.112773114754102 31.713750163934428 3.17256178908e-05 0.0 0.0 0.0
412 1 21.0288262295082 31.252760000000006 6.38418653681e-05 0.0 0.0 0.0