ITEM: TIMESTEP
0
ITEM: NUMBER OF ATOMS
2232
ITEM: BOX BOUNDS xy xz yz pp pp pp
0.0 82.68810555352132 0
0.0 83.16 0
-10.0 10.0 0
ITEM: ATOMS id type x y z vx vy vz
1 1 0.6204483278688525 0.9125989508196722 1.80897094717e-06 0.0 0.0 0.0
2 1 3.532164196721312 1.053400393442623 4.69784523642e-05 0.0 0.0 0.0
3 1 6.198272786885247 0.4837488393442623 3.73368577705e-05 0.0 0.0 0.0
4 1 8.740080655737705 83.10900327868853 9.28026039613e-05 0.0 0.0 0.0
5 1 11.117537704918034 0.9829037377049181 1.89364715742e-05 0.0 0.0 0.0
6 1 13.934778360655738 0.28864144262295083 1.77374551044e-05 0.0 0.0 0.0
7 1 16.64401704918033 0.5145114754098361 4.703194771e-05 0.0 0.0 0.0
8 1 20.576015737704918 0.1281436524590164 6.41082413844e-05 0.0 0.0 0.0
9 1 22.12257967213115 0.2624715409836066 1.96659816129e-05 0.0 0.0 0.0
10 1 24.783548196721313 0.49149781639344264 4.20926101794e-05 0.0 0.0 0.0
11 1 27.63350754098361 0.48272183606557384 4.45610462803e-05 0.0 0.0 0.0
12 1 30.424593442622957 0.6679156721311477 5.97790454479e-05 0.0 0.0 0.0
13 1 34.24561114754099 0.18656216393442623 6.57991873574e-05 0.0 0.0 0.0
14 1 35.763748196721316 0.4225906426229509 9.11571691207e-05 0.0 0.0 0.0
15 1 38.38361639344262 0.8581132459016395 3.78449722575e-05 0.0 0.0 0.0
16 1 41.8297324590164 0.8140540983606558 9.4910931166e-05 0.0 0.0 0.0
17 1 44.466767868852465 0.4442218360655738 2.90425994017e-05 0.0 0.0 0.0
18 1 46.67724852459017 1.6315517377049182 2.6942228568e-05 0.0 0.0 0.0
19 1 50.49432786885246 0.24365476065573774 8.15384753728e-05 0.0 0.0 0.0
20 1 52.045436065573774 0.44923314754098365 6.01588084974e-05 0.0 0.0 0.0
21 1 54.7280655737705 1.0116032786885245 1.56665608752e-05 0.0 0.0 0.0
22 1 57.08098360655738 2.333069704918033 1.02431681549e-05 0.0 0.0 0.0
23 1 60.016072131147546 1.867919016393443 4.07389579718e-05 0.0 0.0 0.0
24 1 62.467449180327876 1.8070360000000003 2.90779009443e-05 0.0 0.0 0.0
25 1 64.82036721311475 0.9718056393442623 9.29005120147e-05 0.0 0.0 0.0
26 1 67.07028196721312 2.0391064262295084 5.74075353147e-05 0.0 0.0 0.0
27 1 69.91398032786887 1.090395737704918 9.35158048188e-05 0.0 0.0 0.0
28 1 72.40221639344263 2.577788327868853 4.34663879039e-05 0.0 0.0 0.0
29 1 75.11918032786886 1.4686045901639344 5.15941267829e-05 0.0 0.0 0.0
30 1 77.99468852459017 1.0003688524590164 2.83266995758e-05 0.0 0.0 0.0
31 1 80.67883278688525 0.7378417704918034 2.53255568878e-05 0.0 0.0 0.0
32 1 82.68739672131149 2.9562647868852463 1.22433428114e-05 0.0 0.0 0.0
33 1 1.3658335737704919 2.250066229508197 8.7780307828e-05 0.0 0.0 0.0
34 1 5.071901639344262 2.9937095081967215 3.82434493211e-05 0.0 0.0 0.0
35 1 7.821584262295083 2.5691087868852462 9.79419966946e-05 0.0 0.0 0.0
36 1 10.558139016393444 2.402334360655738 4.80384051381e-05 0.0 0.0 0.0
37 1 12.642339672131149 3.9967998688524595 8.79374796134e-05 0.0 0.0 0.0
38 1 15.271195409836068 2.745143409836066 8.34629704779e-05 0.0 0.0 0.0
39 1 17.883994754098364 2.7800332459016395 5.44486713506e-05 0.0 0.0 0.0
40 1 20.531179016393445 2.4776681311475413 6.30503030138e-05 0.0 0.0 0.0
41 1 23.466015081967214 2.70964262295082 1.26100328456e-05 0.0 0.0 0.0
42 1 26.33288918032787 2.5786062950819675 1.03712189848e-05 0.0 0.0 0.0
43 1 28.824609180327872 3.6256396721311477 6.44724479488e-05 0.0 0.0 0.0
44 1 31.60630360655738 2.775953508196722 1.46566163793e-05 0.0 0.0 0.0
45 1 34.37300196721312 2.655045836065574 1.22139068338e-05 0.0 0.0 0.0
46 1 37.139498360655736 2.9437933114754102 5.8390218366e-05 0.0 0.0 0.0
47 1 39.387999344262305 2.014936 7.1682483621e-05 0.0 0.0 0.0
48 1 43.345344918032794 2.9135689180327873 5.07350348337e-05 0.0 0.0 0.0
49 1 45.90462295081968 2.973285573770492 9.51793689277e-05 0.0 0.0 0.0
50 1 48.53282229508197 4.172910229508197 1.62645872225e-05 0.0 0.0 0.0
51 1 50.892203278688534 2.6543843934426232 9.30302551532e-05 0.0 0.0 0.0
52 1 53.33348196721312 4.086761114754099 2.55971332395e-05 0.0 0.0 0.0
53 1 56.273114754098366 3.6676135081967214 1.15992115333e-05 0.0 0.0 0.0
54 1 58.84870163934427 4.119126360655739 9.87475281323e-05 0.0 0.0 0.0
55 1 61.44953442622951 4.329232852459017 4.77687753273e-05 0.0 0.0 0.0
56 1 64.77795409836067 3.5376476065573774 5.01475824414e-05 0.0 0.0 0.0
57 1 66.30735081967214 3.360800065573771 4.34143327404e-05 0.0 0.0 0.0
58 1 68.98190163934427 3.2316824262295083 2.63726079077e-05 0.0 0.0 0.0
59 1 71.61100983606558 3.901375409836066 5.13452003468e-05 0.0 0.0 0.0
60 1 74.06289180327869 4.0385111475409845 7.42521737079e-05 0.0 0.0 0.0
61 1 77.70940983606557 3.065731016393443 9.52880167389e-05 0.0 0.0 0.0
62 1 79.29232786885247 3.1526880000000004 1.63035216283e-05 0.0 0.0 0.0
63 1 0.2652162754098361 5.787219016393443 2.19813925459e-05 0.0 0.0 0.0
64 1 3.7601700327868857 5.3905049180327875 7.67489640103e-05 0.0 0.0 0.0
65 1 6.510716065573772 4.977300196721312 2.0294647709e-05 0.0 0.0 0.0
66 1 9.242019672131148 4.748128 3.23799444688e-05 0.0 0.0 0.0
67 1 11.792461639344264 5.285027540983608 5.09621724214e-05 0.0 0.0 0.0
68 1 14.380721967213116 5.352181639344263 6.79311494706e-05 0.0 0.0 0.0
69 1 16.969285245901638 5.069982950819672 7.826639352e-05 0.0 0.0 0.0
70 1 19.724269508196723 4.824042426229508 8.3157573722e-05 0.0 0.0 0.0
71 1 22.245274754098364 5.675783606557378 6.54738749414e-05 0.0 0.0 0.0
72 1 25.12532721311476 4.86872262295082 6.77456246859e-05 0.0 0.0 0.0
73 1 27.955594754098364 4.877467803278689 3.79399473587e-05 0.0 0.0 0.0
74 1 31.427815081967218 4.7376660983606556 4.33608013387e-05 0.0 0.0 0.0
75 1 32.946305573770495 4.848005836065575 8.04379365982e-05 0.0 0.0 0.0
76 1 35.60040721311476 5.06584262295082 1.45098913486e-05 0.0 0.0 0.0
77 1 39.7291724590164 4.501672459016394 7.50193367822e-05 0.0 0.0 0.0
78 1 41.31456459016393 4.700019409836066 9.03931179828e-05 0.0 0.0 0.0
79 1 44.181388196721315 5.333600655737706 4.74882660392e-05 0.0 0.0 0.0
80 1 48.338933770491806 5.669169180327869 7.81375433817e-05 0.0 0.0 0.0
81 1 49.854899672131154 5.426202622950821 7.62406822932e-05 0.0 0.0 0.0
82 1 52.63770491803279 5.466747540983607 5.21829364906e-05 0.0 0.0 0.0
83 1 54.883580327868856 5.900219672131148 6.38528111118e-05 0.0 0.0 0.0
84 1 57.25265573770493 6.211097704918033 9.59459832562e-05 0.0 0.0 0.0
85 1 59.85904262295083 6.5961481967213125 7.79741934472e-05 0.0 0.0 0.0
86 1 62.77090491803279 6.754894426229509 9.45216620524e-05 0.0 0.0 0.0
87 1 65.24550819672132 6.201403278688526 5.17078764073e-05 0.0 0.0 0.0
88 1 68.79306229508198 5.053068196721312 7.9998505967e-05 0.0 0.0 0.0
89 1 69.54589508196722 7.0276006557377055 9.14799375288e-05 0.0 0.0 0.0
90 1 72.50420983606558 6.4059455737704925 7.55919254067e-05 0.0 0.0 0.0
91 1 75.08181639344262 6.24856262295082 1.93467334014e-05 0.0 0.0 0.0
92 1 77.65386885245901 5.721933114754099 7.45040568906e-05 0.0 0.0 0.0
93 1 80.40163278688524 5.638217704918033 1.73289603281e-05 0.0 0.0 0.0
94 1 81.97697704918033 8.041324590163935 3.55907021143e-05 0.0 0.0 0.0
95 1 1.3839348852459017 6.95352918032787 9.47919437987e-05 0.0 0.0 0.0
96 1 5.444278688524591 7.371601311475411 8.81491072665e-05 0.0 0.0 0.0
97 1 8.140288524590165 7.065570491803279 7.06886521998e-05 0.0 0.0 0.0
98 1 10.248119344262296 8.675299672131148 9.8996020883e-05 0.0 0.0 0.0
99 1 13.01729180327869 7.658192786885246 8.59646201373e-05 0.0 0.0 0.0
100 1 15.706232786885248 7.55488655737705 7.67012275955e-05 0.0 0.0 0.0
101 1 18.41425967213115 7.184276721311476 7.60736148915e-05 0.0 0.0 0.0
102 1 21.288354098360657 6.891373770491804 9.48903830197e-05 0.0 0.0 0.0
103 1 24.035815081967215 7.21608655737705 4.6670726258e-05 0.0 0.0 0.0
104 1 27.25502098360656 6.904905573770493 6.58909122585e-05 0.0 0.0 0.0
105 1 28.76533180327869 7.234213114754099 6.23066503359e-05 0.0 0.0 0.0
106 1 31.56656655737705 7.265164590163935 3.06685726836e-05 0.0 0.0 0.0
107 1 34.22566688524591 7.98300655737705 4.83046498128e-06 0.0 0.0 0.0
108 1 37.06572983606558 7.116314754098361 3.34173167571e-05 0.0 0.0 0.0
109 1 39.516803934426235 6.898897049180328 6.10795448549e-05 0.0 0.0 0.0
110 1 42.31536262295082 7.14984131147541 5.23966972757e-05 0.0 0.0 0.0
111 1 45.36991475409836 7.89176786885246 6.04108535325e-05 0.0 0.0 0.0
112 1 47.773021639344265 7.6782380327868855 5.7367281529e-05 0.0 0.0 0.0
113 1 50.684177049180335 7.498840655737705 8.49354233588e-05 0.0 0.0 0.0
114 1 53.35165901639345 8.205019016393443 2.09930344783e-06 0.0 0.0 0.0
115 1 55.785868852459025 8.537356065573771 3.70231485224e-05 0.0 0.0 0.0
116 1 58.25643278688525 8.68479213114754 1.05878634734e-05 0.0 0.0 0.0
117 1 60.481606557377056 8.009363278688525 5.26661461669e-05 0.0 0.0 0.0
118 1 64.2412262295082 8.832985573770493 4.07359534327e-05 0.0 0.0 0.0
119 1 66.76329180327869 8.389465573770494 3.23490026304e-05 0.0 0.0 0.0
120 1 69.24900327868853 8.513220983606558 2.0067183233e-05 0.0 0.0 0.0
121 1 71.01924590163935 10.000810491803279 4.65007819247e-05 0.0 0.0 0.0
122 1 74.27647213114754 8.64672131147541 9.1360122198e-06 0.0 0.0 0.0
123 1 76.83994098360657 8.223196065573772 7.42811129981e-05 0.0 0.0 0.0
124 1 79.38523278688525 7.838953442622952 2.70651597647e-05 0.0 0.0 0.0
125 1 0.893704918032787 10.039689180327871 2.54730432262e-05 0.0 0.0 0.0
126 1 4.249874885245902 9.547394098360657 2.78258494346e-05 0.0 0.0 0.0
127 1 7.123737049180329 9.48291606557377 9.88052763278e-05 0.0 0.0 0.0
128 1 9.879478688524593 10.18944786885246 6.51647453966e-05 0.0 0.0 0.0
129 1 12.329088524590166 9.964708852459017 1.63508575507e-05 0.0 0.0 0.0
130 1 14.559917377049183 11.153588852459018 7.29218775941e-05 0.0 0.0 0.0
131 1 17.05512131147541 9.629140327868853 7.08924693912e-05 0.0 0.0 0.0
132 1 19.749515409836068 9.136946229508197 3.20864486843e-05 0.0 0.0 0.0
133 1 22.47758754098361 9.196880000000002 7.39651153372e-06 0.0 0.0 0.0
134 1 24.093173770491806 10.936423606557378 9.83060665201e-05 0.0 0.0 0.0
135 1 27.923633442622954 9.185822295081968 5.57661262035e-05 0.0 0.0 0.0
136 1 30.60883803278689 10.389092459016394 7.59250583912e-05 0.0 0.0 0.0
137 1 34.44131737704918 9.484632786885248 5.56068912434e-05 0.0 0.0 0.0
138 1 35.94996196721312 9.355727213114754 7.42035657744e-06 0.0 0.0 0.0
139 1 38.6495062295082 9.401018360655739 7.54496567795e-05 0.0 0.0 0.0
140 1 41.10305442622951 9.179157377049181 2.28096975661e-06 0.0 0.0 0.0
141 1 43.02315672131148 8.531953442622951 4.37183279884e-05 0.0 0.0 0.0
142 1 46.83064262295082 10.227266229508198 8.73677091838e-05 0.0 0.0 0.0
143 1 49.389718688524596 9.58884786885246 4.51921309719e-05 0.0 0.0 0.0
144 1 51.609186885245904 11.028924590163935 2.6344179579e-05 0.0 0.0 0.0
145 1 54.48570491803279 10.839731803278688 1.73194596405e-05 0.0 0.0 0.0
146 1 56.95576393442624 11.058512786885245 8.17368723538e-05 0.0 0.0 0.0
147 1 59.67373770491804 10.856242622950822 3.96591135499e-06 0.0 0.0 0.0
148 1 62.55480000000001 10.912137049180329 5.56868173256e-05 0.0 0.0 0.0
149 1 66.28765901639345 10.821706229508198 4.72182632412e-05 0.0 0.0 0.0
150 1 67.81705573770492 10.866441967213117 2.23724246203e-05 0.0 0.0 0.0
151 1 70.19824918032788 11.276536393442624 7.32291056152e-05 0.0 0.0 0.0
152 1 72.4072655737705 10.59328131147541 9.60108138451e-05 0.0 0.0 0.0
153 1 76.11942295081968 10.680935081967215 3.79669611636e-05 0.0 0.0 0.0
154 1 78.55918688524591 10.311385573770494 7.59704319076e-05 0.0 0.0 0.0
155 1 80.90099672131149 11.453762622950821 4.08727653819e-07 0.0 0.0 0.0
156 1 82.64952786885246 12.568924590163936 5.24290882042e-05 0.0 0.0 0.0
157 1 2.016834491803279 11.145611147540986 3.71095378868e-05 0.0 0.0 0.0
158 1 5.9773711475409845 11.582264262295084 5.85420039566e-05 0.0 0.0 0.0
159 1 8.172199344262294 13.214260327868853 4.56049958757e-05 0.0 0.0 0.0
160 1 12.052797377049181 12.361857704918034 1.73124714738e-05 0.0 0.0 0.0
161 1 13.635412459016393 12.403917377049181 3.39450149441e-05 0.0 0.0 0.0
162 1 16.90808918032787 12.114700327868855 9.70685271034e-05 0.0 0.0 0.0
163 1 18.349327213114755 11.590342950819673 3.64469895396e-05 0.0 0.0 0.0
164 1 20.983636065573773 11.368734426229508 9.0963331198e-05 0.0 0.0 0.0
165 1 25.606867540983608 10.914611147540985 8.78857048481e-05 0.0 0.0 0.0
166 1 27.31121836065574 11.907128524590165 7.48838783642e-05 0.0 0.0 0.0
167 1 29.885542950819673 11.735001967213115 9.97424296621e-05 0.0 0.0 0.0
168 1 32.331264918032794 12.251078688524592 5.53074045502e-05 0.0 0.0 0.0
169 1 34.802384262295085 11.879055081967214 6.85059074282e-06 0.0 0.0 0.0
170 1 37.43583475409836 11.580244590163936 8.3413784159e-05 0.0 0.0 0.0
171 1 40.291398688524595 11.67829967213115 7.56328473723e-05 0.0 0.0 0.0
172 1 43.14282229508197 11.341872786885247 6.16998292551e-05 0.0 0.0 0.0
173 1 44.526752131147546 10.659728524590165 5.56010357626e-05 0.0 0.0 0.0
174 1 48.10379344262296 12.174028196721313 1.6179310364e-05 0.0 0.0 0.0
175 1 50.92350819672132 12.383417704918035 1.0546348298e-05 0.0 0.0 0.0
176 1 53.068400000000004 14.14845967213115 3.43248276656e-05 0.0 0.0 0.0
177 1 55.61268196721312 13.442836721311476 9.06644570296e-06 0.0 0.0 0.0
178 1 58.15393442622951 13.23980918032787 8.73797270347e-05 0.0 0.0 0.0
179 1 60.78758688524591 12.984623606557378 7.47806532825e-05 0.0 0.0 0.0
180 1 63.532321311475414 13.158315409836067 6.25963269543e-05 0.0 0.0 0.0
181 1 66.20939672131148 13.427133770491805 7.71924828401e-05 0.0 0.0 0.0
182 1 69.07076721311476 13.54437573770492 5.92777354542e-05 0.0 0.0 0.0
183 1 71.89527868852458 13.338621639344264 6.6970170228e-05 0.0 0.0 0.0
184 1 74.68242622950821 12.867987540983608 2.95743713889e-05 0.0 0.0 0.0
185 1 77.55944918032787 12.923276065573772 1.94285826898e-06 0.0 0.0 0.0
186 1 80.21380327868853 12.846881967213116 1.88684750016e-05 0.0 0.0 0.0
187 1 1.633864262295082 14.157447213114756 9.3415998161e-05 0.0 0.0 0.0
188 1 4.3875508852459015 13.759218360655739 1.76085795845e-05 0.0 0.0 0.0
189 1 7.1570616393442625 14.386427540983608 6.57047020255e-05 0.0 0.0 0.0
190 1 9.451156721311476 15.24801967213115 5.26215885697e-05 0.0 0.0 0.0
191 1 11.76368131147541 15.129767868852461 2.70239863861e-05 0.0 0.0 0.0
192 1 14.435404590163936 15.091343606557379 1.92129327255e-05 0.0 0.0 0.0
193 1 17.108945573770495 14.767842622950822 3.50107478279e-05 0.0 0.0 0.0
194 1 20.647209180327874 13.4465731147541 4.68571383973e-05 0.0 0.0 0.0
195 1 21.906323278688525 12.575084590163936 6.56244328456e-08 0.0 0.0 0.0
196 1 25.19944918032787 14.65812393442623 8.52664512798e-05 0.0 0.0 0.0
197 1 28.074502950819674 14.03096524590164 5.7680796566e-05 0.0 0.0 0.0
198 1 30.816712786885248 14.320232786885247 1.78600392588e-05 0.0 0.0 0.0
199 1 33.7930531147541 14.420105573770494 7.52070552444e-05 0.0 0.0 0.0
200 1 37.22240590163935 13.698577704918034 1.09039939336e-05 0.0 0.0 0.0
201 1 38.76543540983607 13.662678032786888 8.93941137226e-05 0.0 0.0 0.0
202 1 40.88210229508197 15.454884590163935 7.17614266906e-05 0.0 0.0 0.0
203 1 43.5566531147541 14.314577704918035 9.06344681535e-05 0.0 0.0 0.0
204 1 46.48209770491804 14.302863606557379 3.84642777052e-05 0.0 0.0 0.0
205 1 49.235870163934436 14.370825573770494 5.44444384564e-05 0.0 0.0 0.0
206 1 52.02826885245902 15.25529049180328 8.08106258703e-05 0.0 0.0 0.0
207 1 54.20093114754099 16.07805442622951 8.63352177846e-05 0.0 0.0 0.0
208 1 56.85074098360656 15.779243934426232 2.87237666173e-05 0.0 0.0 0.0
209 1 59.50913442622951 15.43589967213115 4.21837590554e-05 0.0 0.0 0.0
210 1 62.38262295081968 15.227520000000002 6.69939638635e-05 0.0 0.0 0.0
211 1 65.04101639344263 16.321980327868854 2.53845995966e-05 0.0 0.0 0.0
212 1 67.85896393442623 15.70305180327869 2.54415812516e-06 0.0 0.0 0.0
213 1 71.60091147540983 15.246656393442624 6.65473417853e-05 0.0 0.0 0.0
214 1 73.16918688524592 15.206161967213117 2.76830845361e-05 0.0 0.0 0.0
215 1 75.89523934426231 14.953400000000002 3.18497162692e-05 0.0 0.0 0.0
216 1 78.69450491803279 15.237517377049182 8.01104574903e-05 0.0 0.0 0.0
217 1 81.64676065573771 15.15329704918033 4.54796283566e-05 0.0 0.0 0.0
218 1 0.3000010885245902 16.760198688524593 4.00563691514e-05 0.0 0.0 0.0
219 1 2.8694794754098365 16.175806557377047 7.41869909771e-05 0.0 0.0 0.0
220 1 5.466343606557378 16.225742950819672 5.96724034385e-05 0.0 0.0 0.0
221 1 7.807749508196722 17.197154754098364 8.94700759609e-05 0.0 0.0 0.0
222 1 10.386971803278689 17.713433442622954 5.86240512607e-05 0.0 0.0 0.0
223 1 13.17583606557377 17.45557180327869 2.51385094291e-05 0.0 0.0 0.0
224 1 15.95561180327869 17.206647213114756 5.94255485817e-05 0.0 0.0 0.0
225 1 18.889740983606558 16.721168524590166 6.15907941934e-05 0.0 0.0 0.0
226 1 21.3515193442623 15.853971803278691 4.13328281031e-05 0.0 0.0 0.0
227 1 24.34568327868853 15.92713442622951 5.01360405907e-05 0.0 0.0 0.0
228 1 26.924501639344264 16.28289967213115 7.34103678e-05 0.0 0.0 0.0
229 1 29.266412459016394 16.32516131147541 9.65454310755e-05 0.0 0.0 0.0
230 1 32.066132459016394 16.196609180327872 7.08921457994e-05 0.0 0.0 0.0
231 1 35.027779672131146 16.57120786885246 6.7933592194e-05 0.0 0.0 0.0
232 1 37.25881049180328 16.563735081967216 6.62166062234e-05 0.0 0.0 0.0
233 1 39.95113442622951 16.703193442622954 2.51577262164e-05 0.0 0.0 0.0
234 1 42.82901573770492 16.895011803278692 5.46247889927e-05 0.0 0.0 0.0
235 1 45.345628196721314 16.485876721311474 8.9037352099e-05 0.0 0.0 0.0
236 1 48.638653114754106 16.408573770491806 7.41997163872e-05 0.0 0.0 0.0
237 1 50.15891081967214 16.69784131147541 4.7536018494e-05 0.0 0.0 0.0
238 1 51.26382295081967 19.102008524590165 8.47436225511e-05 0.0 0.0 0.0
239 1 55.53290491803279 18.29408918032787 5.42015115918e-07 0.0 0.0 0.0
240 1 58.4008393442623 17.931204590163937 4.70289265749e-05 0.0 0.0 0.0
241 1 61.066806557377056 17.398213114754103 9.95505305173e-05 0.0 0.0 0.0
242 1 64.0453180327869 17.472335081967216 2.79164346946e-05 0.0 0.0 0.0
243 1 66.48710163934427 18.10312918032787 4.09942171182e-05 0.0 0.0 0.0
244 1 69.18487868852459 18.023301639344265 8.22382645482e-05 0.0 0.0 0.0
245 1 71.75541639344263 17.731509508196723 5.92421510881e-05 0.0 0.0 0.0
246 1 75.5029180327869 17.058504262295084 2.94444741751e-05 0.0 0.0 0.0
247 1 77.04140327868853 17.19452918032787 9.5017875854e-06 0.0 0.0 0.0
248 1 79.25243934426231 16.690419016393445 3.45162874413e-06 0.0 0.0 0.0
249 1 1.6007466885245905 18.76608655737705 1.0247301463e-05 0.0 0.0 0.0
250 1 4.178772327868852 18.534480655737706 9.32799773501e-05 0.0 0.0 0.0
251 1 6.21584393442623 20.334311475409837 9.11248195574e-05 0.0 0.0 0.0
252 1 9.01021180327869 19.761835409836067 7.54265531587e-05 0.0 0.0 0.0
253 1 11.146217049180327 19.051466229508197 7.15327146907e-05 0.0 0.0 0.0
254 1 14.771680000000002 19.440000655737705 8.34001423788e-05 0.0 0.0 0.0
255 1 16.842752786885246 18.455057049180333 7.47195460511e-05 0.0 0.0 0.0
256 1 20.661750819672132 18.5162531147541 4.68582503634e-06 0.0 0.0 0.0
257 1 23.19320786885246 17.778214426229507 5.84868379451e-05 0.0 0.0 0.0
258 1 25.87093967213115 18.38078360655738 3.37551861636e-05 0.0 0.0 0.0
259 1 28.304392131147544 18.789514754098363 7.04363559517e-05 0.0 0.0 0.0
260 1 30.588641311475413 18.336653770491804 6.08243824361e-05 0.0 0.0 0.0
261 1 33.344130491803284 18.08969836065574 9.35507267882e-05 0.0 0.0 0.0
262 1 35.784500327868855 19.08827475409836 2.15675921858e-05 0.0 0.0 0.0
263 1 38.297830819672136 18.900394754098365 7.45256641308e-05 0.0 0.0 0.0
264 1 40.57592 18.092677377049185 6.20071582271e-05 0.0 0.0 0.0
265 1 44.14165114754099 19.05681836065574 6.23656209346e-05 0.0 0.0 0.0
266 1 46.22433704918033 19.18794557377049 3.04769459516e-05 0.0 0.0 0.0
267 1 48.61931475409836 19.10104918032787 2.96308089051e-05 0.0 0.0 0.0
268 1 52.67557377049181 19.7527468852459 8.81073473505e-05 0.0 0.0 0.0
269 1 54.61041967213115 20.59096131147541 9.95944114078e-05 0.0 0.0 0.0
270 1 57.357173770491805 20.251656393442627 8.9088513963e-05 0.0 0.0 0.0
271 1 60.89210491803279 19.58309442622951 8.84112088087e-05 0.0 0.0 0.0
272 1 62.40281967213116 19.292564590163934 2.02457380216e-05 0.0 0.0 0.0
273 1 64.52751475409836 21.02226229508197 1.55135934588e-05 0.0 0.0 0.0
274 1 68.22351475409836 20.276902295081968 7.96131524501e-05 0.0 0.0 0.0
275 1 70.87231475409837 20.189248524590166 1.56217483137e-05 0.0 0.0 0.0
276 1 73.30097049180328 19.83489704918033 4.30834082291e-05 0.0 0.0 0.0
277 1 75.70185573770493 19.601069508196726 4.67906745508e-05 0.0 0.0 0.0
278 1 78.35721967213115 19.605209836065576 8.40577395651e-05 0.0 0.0 0.0
279 1 81.5200262295082 19.22732918032787 8.34955450967e-05 0.0 0.0 0.0
280 1 0.1786904918032787 21.13617180327869 4.75959308724e-05 0.0 0.0 0.0
281 1 2.825556655737705 20.99242163934426 7.81765532521e-06 0.0 0.0 0.0
282 1 5.4699285245901645 21.680776393442624 7.1398589631e-05 0.0 0.0 0.0
283 1 8.00037573770492 22.100969180327873 2.51096089192e-05 0.0 0.0 0.0
284 1 10.848365901639344 21.90127409836066 7.84483861139e-05 0.0 0.0 0.0
285 1 13.732659672131149 21.791252459016395 8.98218972892e-05 0.0 0.0 0.0
286 1 16.404635409836068 21.387520000000002 6.10717613852e-05 0.0 0.0 0.0
287 1 19.288474754098363 20.80428918032787 5.25170119831e-05 0.0 0.0 0.0
288 1 22.89071147540984 20.18707737704918 3.10261473427e-05 0.0 0.0 0.0
289 1 24.40723278688525 20.24191147540984 8.79026367632e-05 0.0 0.0 0.0
290 1 27.00554098360656 21.008932459016396 6.64195396728e-05 0.0 0.0 0.0
291 1 30.62151147540984 20.70345704918033 3.20028446501e-05 0.0 0.0 0.0
292 1 32.959736393442626 19.971073442622952 1.89671911547e-05 0.0 0.0 0.0
293 1 33.3535724590164 22.039167213114755 4.44690550662e-05 0.0 0.0 0.0
294 1 36.025750163934426 20.593889836065575 8.00935766684e-05 0.0 0.0 0.0
295 1 39.95391147540984 20.875028196721313 2.49358795236e-05 0.0 0.0 0.0
296 1 42.53065967213115 21.136474754098362 7.33695579823e-06 0.0 0.0 0.0
297 1 45.05434098360656 21.786657704918035 5.21396028867e-06 0.0 0.0 0.0
298 1 47.63735016393443 21.598020327868856 1.87799332297e-05 0.0 0.0 0.0
299 1 49.84828524590164 22.701821639344264 5.98986184417e-05 0.0 0.0 0.0
300 1 52.29688524590165 21.277245901639347 2.91985551517e-05 0.0 0.0 0.0
301 1 56.05549508196722 22.53762229508197 2.82377844574e-05 0.0 0.0 0.0
302 1 58.05244590163935 21.631193442622955 4.11215749895e-05 0.0 0.0 0.0
303 1 61.494977049180335 22.458602622950824 8.75447435654e-05 0.0 0.0 0.0
304 1 64.0528918032787 22.45905704918033 4.97776407144e-05 0.0 0.0 0.0
305 1 65.94784918032786 21.544801967213115 1.08928333576e-05 0.0 0.0 0.0
306 1 69.52115409836065 22.494956721311475 4.70025001861e-05 0.0 0.0 0.0
307 1 73.09900327868853 22.148784918032792 1.0650615821e-06 0.0 0.0 0.0
308 1 74.63041967213115 22.156964590163938 5.63404692124e-05 0.0 0.0 0.0
309 1 77.1191606557377 21.94924131147541 3.6862495147e-06 0.0 0.0 0.0
310 1 79.20699672131148 20.93258885245902 2.74456462701e-05 0.0 0.0 0.0
311 1 1.4859788196721313 23.34993442622951 9.01435926275e-05 0.0 0.0 0.0
312 1 3.654869377049181 24.60667540983607 6.54340479431e-05 0.0 0.0 0.0
313 1 6.330662295081968 24.243689836065574 9.64689614918e-05 0.0 0.0 0.0
314 1 9.03061049180328 24.093022295081973 1.67102620806e-05 0.0 0.0 0.0
315 1 12.608510163934428 24.011478032786886 8.89763182312e-05 0.0 0.0 0.0
316 1 15.927336393442625 23.805521967213117 2.79935808753e-05 0.0 0.0 0.0
317 1 18.494188196721314 22.954078688524593 2.53968147322e-05 0.0 0.0 0.0
318 1 20.92688327868853 23.049053770491803 8.5214222862e-05 0.0 0.0 0.0
319 1 23.216585573770494 22.598818360655738 9.45519932884e-05 0.0 0.0 0.0
320 1 25.513962622950825 23.9548262295082 7.23111852356e-05 0.0 0.0 0.0
321 1 28.38194754098361 23.449807213114756 3.60193688239e-06 0.0 0.0 0.0
322 1 30.837363934426232 23.077682622950825 2.52087123238e-06 0.0 0.0 0.0
323 1 33.14509180327869 24.532452459016397 4.27524365362e-05 0.0 0.0 0.0
324 1 35.55920590163935 23.01345704918033 7.86249417765e-05 0.0 0.0 0.0
325 1 38.41583016393443 22.9253993442623 5.37253841076e-05 0.0 0.0 0.0
326 1 41.0772531147541 23.342360655737707 5.64564225359e-05 0.0 0.0 0.0
327 1 43.41870950819673 24.832272786885248 7.54270850464e-05 0.0 0.0 0.0
328 1 46.35516131147541 24.145685245901642 7.30782217788e-05 0.0 0.0 0.0
329 1 49.135189508196724 24.08888196721312 3.29034937922e-05 0.0 0.0 0.0
330 1 51.82983606557378 24.034754754098365 5.66894140776e-05 0.0 0.0 0.0
331 1 54.606380327868855 24.552901639344263 1.61012261171e-05 0.0 0.0 0.0
332 1 57.48744262295083 24.602131147540987 9.46836505225e-05 0.0 0.0 0.0
333 1 60.175626229508204 24.849843934426232 3.33510824028e-05 0.0 0.0 0.0
334 1 63.09859672131148 24.77107672131148 8.34334493229e-05 0.0 0.0 0.0
335 1 66.02813114754099 24.388500327868858 8.39823350969e-05 0.0 0.0 0.0
336 1 67.5757049180328 24.438285245901643 5.61548934327e-05 0.0 0.0 0.0
337 1 70.23359344262295 24.885844590163938 9.6237899463e-05 0.0 0.0 0.0
338 1 72.95611147540986 24.7255331147541 6.8724081697e-06 0.0 0.0 0.0
339 1 75.7796131147541 24.514022950819676 3.28320738013e-05 0.0 0.0 0.0
340 1 78.93585573770493 23.989615081967212 7.84225392247e-05 0.0 0.0 0.0
341 1 81.59980327868854 23.505853114754103 5.33154632106e-05 0.0 0.0 0.0
342 1 0.32091479344262297 25.872908852459016 3.31393757606e-05 0.0 0.0 0.0
343 1 2.942389639344263 25.945314098360658 6.37039795453e-05 0.0 0.0 0.0
344 1 4.268885049180328 28.024566557377053 4.92400708613e-05 0.0 0.0 0.0
345 1 7.825219672131148 26.413070163934428 7.95624666175e-05 0.0 0.0 0.0
346 1 10.014039344262295 25.253222950819673 7.2500152312e-05 0.0 0.0 0.0
347 1 13.562249836065574 25.228330491803284 2.38809595225e-05 0.0 0.0 0.0
348 1 18.28368786885246 25.30351278688525 7.77295735241e-06 0.0 0.0 0.0
349 1 19.802430819672132 25.419492459016396 9.62937979036e-05 0.0 0.0 0.0
350 1 22.303239344262295 25.29730229508197 7.78054999135e-05 0.0 0.0 0.0
351 1 24.895236065573773 25.347188196721316 7.2322853024e-05 0.0 0.0 0.0
352 1 27.408566557377053 25.607069508196723 5.10122646034e-05 0.0 0.0 0.0
353 1 30.135578360655742 25.626458360655743 9.86079528997e-05 0.0 0.0 0.0
354 1 32.72070819672132 26.002470819672133 4.20476442038e-05 0.0 0.0 0.0
355 1 35.57374754098361 25.448979672131152 5.08251000695e-05 0.0 0.0 0.0
356 1 37.0834524590164 25.038279344262296 3.78167351909e-05 0.0 0.0 0.0
357 1 39.37633573770493 26.48461704918033 7.06945829985e-06 0.0 0.0 0.0
358 1 42.40241049180329 26.015346229508197 1.69351252186e-05 0.0 0.0 0.0
359 1 44.965475409836074 26.491382950819677 8.01627085506e-05 0.0 0.0 0.0
360 1 47.9181855737705 26.432913442622954 3.8431295143e-05 0.0 0.0 0.0
361 1 50.57965901639345 26.3332931147541 2.37445978671e-05 0.0 0.0 0.0
362 1 53.19967868852459 26.448919344262297 4.52160316474e-05 0.0 0.0 0.0
363 1 55.87927868852459 26.66557967213115 9.39449711712e-05 0.0 0.0 0.0
364 1 58.52201967213115 27.015992786885246 3.50484727839e-05 0.0 0.0 0.0
365 1 61.54900327868853 26.85078360655738 8.68435646455e-06 0.0 0.0 0.0
366 1 64.26293770491804 27.479558032786887 7.38442939417e-05 0.0 0.0 0.0
367 1 66.5704131147541 27.326870819672134 1.99406977018e-07 0.0 0.0 0.0
368 1 69.11217049180328 26.90430491803279 2.65666134562e-06 0.0 0.0 0.0
369 1 71.77056393442624 26.996149508196723 8.25627661249e-05 0.0 0.0 0.0
370 1 74.38099016393443 26.750607868852462 2.04011679158e-05 0.0 0.0 0.0
371 1 76.74400655737705 25.724563934426232 6.49852200434e-05 0.0 0.0 0.0
372 1 80.48948852459017 26.06149573770492 7.32282747347e-05 0.0 0.0 0.0
373 1 1.9932598688524592 28.22259540983607 3.48851050688e-05 0.0 0.0 0.0
374 1 5.679469508196722 28.569019672131148 2.10486411008e-05 0.0 0.0 0.0
375 1 7.711613114754099 28.893833442622956 9.78147115961e-05 0.0 0.0 0.0
376 1 10.110226229508196 27.941002622950823 3.31971927647e-05 0.0 0.0 0.0
377 1 12.651983606557378 27.789880655737708 8.12141598504e-05 0.0 0.0 0.0
378 1 15.215099016393445 27.6354262295082 8.28346864136e-05 0.0 0.0 0.0
379 1 17.913633442622952 27.797000000000004 4.18235969122e-05 0.0 0.0 0.0
380 1 21.794332459016395 27.609978360655738 9.97532069551e-05 0.0 0.0 0.0
381 1 23.339684590163937 27.6276 7.67240036128e-05 0.0 0.0 0.0
382 1 26.06189967213115 27.821135081967213 8.50526786001e-05 0.0 0.0 0.0
383 1 28.81582360655738 27.800483934426232 9.7889794474e-05 0.0 0.0 0.0
384 1 30.40050885245902 29.4464662295082 1.18142917058e-05 0.0 0.0 0.0
385 1 33.24673180327869 28.889693114754103 1.83481591202e-05 0.0 0.0 0.0
386 1 35.61712000000001 28.54549049180328 7.69558108134e-05 0.0 0.0 0.0
387 1 38.39376524590164 27.694400655737706 9.40567042553e-05 0.0 0.0 0.0
388 1 40.93895606557378 28.10661573770492 4.72891904328e-05 0.0 0.0 0.0
389 1 43.76164983606558 28.54968131147541 7.72436863741e-06 0.0 0.0 0.0
390 1 45.79505573770492 27.787709508196727 5.42831577422e-05 0.0 0.0 0.0
391 1 49.22415606557378 28.66293442622951 4.44360846548e-05 0.0 0.0 0.0
392 1 51.79348196721312 28.70580196721312 6.77680925391e-05 0.0 0.0 0.0
393 1 54.55285901639345 28.82930491803279 3.89987600174e-05 0.0 0.0 0.0
394 1 57.19105573770492 29.109584918032787 4.70662107683e-05 0.0 0.0 0.0
395 1 59.190026229508206 28.40583016393443 2.94580552818e-05 0.0 0.0 0.0
396 1 62.42301639344263 30.416110819672134 6.8937643267e-05 0.0 0.0 0.0
397 1 65.89937704918033 29.806876721311475 5.07288347858e-05 0.0 0.0 0.0
398 1 68.5608 29.357752131147542 6.57487303722e-06 0.0 0.0 0.0
399 1 70.99551475409837 29.12331868852459 4.93005319858e-05 0.0 0.0 0.0
400 1 73.50192786885246 30.27377442622951 8.6118809245e-06 0.0 0.0 0.0
401 1 75.9689573770492 28.58487409836066 5.06852750846e-05 0.0 0.0 0.0
402 1 78.89495737704918 28.365386229508196 3.07574542042e-06 0.0 0.0 0.0
403 1 82.06836721311477 28.4215331147541 5.13747003153e-05 0.0 0.0 0.0
404 1 1.014546950819672 30.62343016393443 5.62124398477e-05 0.0 0.0 0.0
405 1 3.553900918032787 30.68800918032787 8.0868568523e-05 0.0 0.0 0.0
406 1 5.5915127868852466 30.098113442622957 6.23657741624e-05 0.0 0.0 0.0
407 1 9.114527868852461 30.6614 1.71782770415e-05 0.0 0.0 0.0
408 1 11.501275409836067 30.228180327868856 5.49164206537e-05 0.0 0.0 0.0
409 1 14.019402622950821 30.06473836065574 9.13138826739e-05 0.0 0.0 0.0
410 1 16.52733049180328 29.98698098360656 1.04611738509e-05 0.0 0.0 0.0
411 1 19.125386229508198 30.121592131147544 2.06194850591e-05 0.0 0.0 0.0
412 1 21.651642622950824 30.11871409836066 4.91805653699e-05 0.0 0.0 0.0