# input file

2232 atoms
1 atom types

0.0 82.68810555352132 xlo xhi
0.0 83.16 ylo yhi
-10.0 10.0 zlo zhi
0.0 0.0 0.0 xy xz yz

Masses

1 12.0100 #C

Atoms

1 1 1.5257108196721314 1.0561269508196724 1.1834277660596339e-05
2 1 4.194333901639345 1.2184883934426232 4.063144188242225e-05
3 1 7.02356131147541 0.9330430819672132 5.740880199846463e-05
4 1 9.811264262295083 0.6019329836065574 3.61063225064246e-05
5 1 12.611842622950821 0.4705472524590164 5.8766401916113976e-05
6 1 14.77556786885246 2.0129971147540986 7.76611426007487e-05
7 1 17.79295803278689 1.4363201311475413 4.430063675369903e-05
8 1 20.64412918032787 1.1283453770491805 6.24773478925208e-06
9 1 23.133678032786886 1.190697704918033 4.425630501075384e-05
10 1 25.695228196721313 1.0108459016393443 4.645624018675853e-05
11 1 28.665509508196724 1.3276314754098362 9.782860035596604e-05
12 1 31.49204065573771 1.3848184918032789 6.381379762431364e-05
13 1 34.02294229508197 1.2381902950819672 4.677266108902871e-05
14 1 36.59494426229509 1.305379737704918 8.652732907170034e-05
15 1 38.89201836065574 1.0952833442622953 4.74774353974651e-05
16 1 41.529659672131146 0.6853201967213116 3.585813853231078e-05
17 1 44.53579016393443 0.6743887213114754 4.404199853662766e-05
18 1 47.0202393442623 83.06659016393442 3.179671918879069e-05
19 1 49.543011803278695 82.79746885245902 4.954753306480969e-05
20 1 52.08078032786886 82.65003278688525 2.6818560146416548e-05
21 1 54.71746229508197 82.79746885245902 4.292132878303937e-05
22 1 57.186511475409844 83.10647868852459 1.1850384040842144e-05
23 1 59.83430163934427 0.2683957442622951 2.4637964828105588e-05
24 1 62.46542950819673 0.7267032786885246 5.991037869674476e-06
25 1 65.71457704918033 0.3845652655737705 8.720241239820242e-05
26 1 68.43053114754099 1.238084262295082 8.580866307186428e-05
27 1 71.32876065573771 0.4485600918032787 6.39391658459772e-05
28 1 73.47920655737705 1.9612884590163937 7.586550046860177e-05
29 1 76.12194754098361 0.6777262295081967 9.574773518569686e-05
30 1 78.98634754098362 0.7837287213114754 6.905031843445061e-05
31 1 0.004667543081967213 0.7843346229508198 6.112202150916666e-05
32 1 82.36172459016394 3.2925300983606562 3.2933593972945954e-05
33 1 2.5757434098360656 3.4431673442622954 2.5425099671888176e-05
34 1 5.815342950819673 3.34573331147541 5.7908028993266415e-06
35 1 9.395666229508198 2.7428056393442626 9.476614728263447e-05
36 1 10.951520655737705 2.7110462950819674 1.2880838064969635e-05
37 1 13.620416393442625 3.0904265573770497 9.036262475464275e-05
38 1 16.141674098360657 3.6916173114754103 5.990267124069435e-05
39 1 20.207678032786887 3.2098598688524596 4.151249897143609e-05
40 1 21.730460327868855 3.549528327868853 2.5219291486781927e-05
41 1 25.14471606557377 3.2650373114754103 1.0947667379585903e-05
42 1 26.387470819672135 2.3732561311475413 7.677997745674153e-05
43 1 29.701247868852462 3.4812028196721316 7.691767482423894e-06
44 1 33.56881901639345 3.480990754098361 3.10681778088795e-08
45 1 35.10619344262295 3.5866196065573774 7.259246693542243e-06
46 1 37.848100327868856 3.743250229508197 2.5269497717203096e-05
47 1 41.206663606557385 2.8305200000000004 4.0938487279688266e-05
48 1 42.420436065573774 1.9167344918032787 5.221192138308541e-05
49 1 46.752329836065584 2.392973180327869 6.090651640186223e-05
50 1 48.25996459016394 2.140297049180328 8.549956835071162e-05
51 1 51.53193442622951 1.796917442622951 9.241347710842193e-05
52 1 53.05880655737705 1.8114590819672132 7.45755332621339e-05
53 1 55.5364393442623 2.1832251803278693 4.725946543257164e-05
54 1 58.13020327868853 2.36399593442623 9.161858717592064e-05
55 1 60.76234098360656 2.7745094426229513 7.049734999183816e-05
56 1 63.37781639344263 1.9985463606557379 6.0443824868674955e-05
57 1 67.51713442622952 2.465974229508197 2.938269287948714e-08
58 1 69.88772459016394 2.745814950819672 6.780811090785554e-05
59 1 72.56833442622953 3.2040785573770494 7.614075673699743e-05
60 1 75.05101639344262 3.2845826885245906 2.4504021080059093e-05
61 1 77.63720655737706 2.8152664262295084 7.11193513991513e-05
62 1 80.00325245901641 3.329899081967213 4.3299425603759734e-05
63 1 1.2292431475409837 5.364350163934427 8.298708105056875e-05
64 1 3.3842131147540986 4.757181180327869 3.717506615108964e-05
65 1 6.9403003278688535 5.6478616393442636 8.914345145463595e-05
66 1 9.23161836065574 5.547635409836066 9.608947969535952e-05
67 1 11.783625573770493 5.236302950819672 1.9287142910222478e-05
68 1 14.455247868852462 5.6743698360655745 9.657070360341199e-05
69 1 16.70359737704918 5.118101639344263 6.730757341678556e-05
70 1 20.33350360655738 5.956164590163935 4.0442939987460526e-05
71 1 22.89409442622951 6.082596065573771 8.828328261207293e-05
72 1 25.26776459016394 6.009635409836067 5.7841996216991256e-05
73 1 27.844512786885247 5.7018878688524595 2.157001775055928e-05
74 1 30.153200000000005 5.831752786885246 1.934601151822163e-05
75 1 32.83259803278689 5.8852236065573775 1.8543879526543252e-05
76 1 36.047663606557386 5.905672786885247 8.666813647961661e-05
77 1 38.84687868852459 5.827006557377049 2.8823736389372e-05
78 1 42.24952131147541 5.020955409836066 6.725407399069761e-06
79 1 43.82218950819673 4.9137916065573775 1.1025638253845062e-05
80 1 46.5897462295082 5.157788196721312 6.672360625720677e-05
81 1 49.567601311475414 4.711804196721312 7.77184347941158e-05
82 1 51.1476918032787 4.688840524590164 1.560240175850819e-05
83 1 53.92979016393443 4.394236000000001 8.058465154770518e-05
84 1 56.657862295081976 4.610320721311476 6.914362009194699e-05
85 1 59.22587540983607 4.830636655737706 7.217173814681483e-05
86 1 61.595455737704924 4.0652415081967215 9.10706480856072e-05
87 1 65.60702950819673 4.203452721311476 9.145381450771299e-05
88 1 68.14424262295083 5.005621049180328 4.227851971359839e-05
89 1 70.68499016393443 5.116990819672131 7.835063485357332e-05
90 1 72.96620983606557 4.673965639344263 8.076552624605792e-05
91 1 76.50063606557377 5.2953783606557385 7.462857770333996e-05
92 1 78.08456393442624 6.880265573770492 9.642149885987786e-05
93 1 81.24989508196722 5.801659672131148 9.900443293923842e-05
94 1 82.68032786885247 7.777858360655738 3.582768013002279e-05
95 1 2.4488171147540982 7.627948196721312 5.718879191367035e-05
96 1 5.321078688524591 7.608155409836066 8.868761515038252e-05
97 1 7.9636177049180334 8.137208524590164 4.378544356592299e-05
98 1 10.360261639344262 7.823149508196722 8.665737741162106e-05
99 1 13.013504918032787 7.697121967213116 5.3329919979989227e-05
100 1 15.7596531147541 7.915347540983608 4.964869957243938e-05
101 1 18.922156721311477 8.07581049180328 2.945802223486628e-05
102 1 21.66052918032787 8.375681311475411 5.6099106441887896e-05
103 1 24.181786885245902 8.553059016393442 6.438146910847165e-05
104 1 26.728593442622955 8.312970491803279 5.8243939140831906e-05
105 1 29.24353967213115 8.302367213114756 2.6370241147702823e-05
106 1 32.1154124590164 7.911055737704919 2.9741025770099385e-05
107 1 33.51055147540984 7.242594754098361 1.4714923825889016e-05
108 1 37.10884983606557 7.9582150819672135 2.4526558336490935e-05
109 1 39.770929180327876 8.086464262295083 9.382682582730153e-05
110 1 42.246895737704925 7.834207213114755 7.223102150591785e-05
111 1 44.95562950819672 7.321715409836067 5.982921285113867e-05
112 1 47.706675409836066 7.827895737704918 7.04580796464566e-05
113 1 50.10145114754099 7.690810491803279 7.379457555080253e-05
114 1 53.56826885245902 6.511574426229509 8.678052831701198e-05
115 1 55.109783606557386 6.727275409836066 3.636248653278045e-05
116 1 57.71970491803279 7.088190819672132 2.849077095184932e-05
117 1 60.52654426229508 6.879861639344263 3.0448922540666147e-05
118 1 64.45884590163935 6.162120655737706 9.868251856207926e-05
119 1 65.92512786885247 6.670472131147542 1.0861929779928947e-06
120 1 69.40199344262295 7.433049836065575 4.486374155747098e-05
121 1 72.1103737704918 7.379982950819673 6.462437130989669e-05
122 1 74.79350819672132 7.540799344262296 4.1468490278469377e-05
123 1 77.30547540983606 8.180833442622951 9.990646804169018e-05
124 1 79.29434754098362 7.780786885245902 5.475046161682568e-05
125 1 1.1626091147540984 11.023067540983607 3.20054189710349e-05
126 1 3.644927540983607 9.680995409836067 1.3959613875194888e-05
127 1 6.31288918032787 10.164706885245902 5.2658693142565205e-05
128 1 9.261509508196722 10.550363278688526 8.810592274767612e-05
129 1 11.95236918032787 10.04044655737705 5.747960814559694e-06
130 1 14.485997377049182 9.99000524590164 4.739493146226972e-05
131 1 16.503296393442625 9.264791475409837 7.642960251093488e-05
132 1 19.853881967213116 11.506728524590166 3.63119437127062e-05
133 1 22.675212459016397 10.869471475409837 9.599542167014645e-05
134 1 25.38929836065574 10.866744918032788 6.459651006722038e-05
135 1 27.86662819672131 10.816808524590165 6.757768417404255e-05
136 1 30.565617049180332 11.263509508196723 4.761569977091907e-06
137 1 32.8105331147541 10.731224918032787 2.8357051219685572e-06
138 1 35.460241967213115 10.038123934426231 4.8313467351531874e-05
139 1 38.157110163934426 10.242767213114757 1.4281487608688305e-06
140 1 40.78162360655738 10.327997377049181 4.632052454325636e-05
141 1 43.44299606557377 9.773092459016393 8.186999054767937e-05
142 1 46.12320196721312 9.737495737704918 3.829886391426819e-05
143 1 48.6865193442623 10.173845901639345 4.37226030646823e-05
144 1 52.25750163934427 9.587787540983609 5.6688658522013724e-05
145 1 53.770236065573776 9.360069508196723 2.0800326713176387e-05
146 1 56.311993442622956 9.329875409836067 5.748266259492885e-05
147 1 59.000681967213126 9.204706229508197 7.129222417954889e-05
148 1 61.831757377049186 9.146741639344263 6.580001759609788e-06
149 1 64.28161967213116 8.543314098360657 3.0105105487156916e-05
150 1 66.75319344262296 7.985480655737706 8.19503422896937e-05
151 1 70.69609836065574 9.63999606557377 7.535952967881892e-05
152 1 73.26815081967214 9.709876721311476 1.1134289082010329e-05
153 1 75.91543606557379 10.162636721311477 6.568071494442972e-05
154 1 78.70763278688526 10.59525049180328 4.5671494846336695e-05
155 1 81.37763934426229 10.11628524590164 3.6100202228062316e-05
156 1 1.345147081967213 12.526309508196722 3.9752014737147424e-05
157 1 2.8534180327868857 12.357262950819674 5.1672647043200936e-05
158 1 5.05544131147541 12.090615737704919 2.0341609540430263e-05
159 1 7.441986885245902 12.925144262295085 2.0170541409681686e-05
160 1 11.002012459016395 12.454964590163936 7.654603187934988e-05
161 1 13.616225573770492 12.352466229508199 9.626570095566194e-05
162 1 16.11072262295082 12.184076065573771 5.8767106413932674e-05
163 1 18.79638163934426 12.613357377049182 8.950980370031038e-05
164 1 21.20307344262295 13.234457049180328 7.622717678892128e-05
165 1 23.759220983606557 13.139784918032788 1.958236708159511e-05
166 1 26.466742950819675 13.366796065573771 8.899610333702045e-05
167 1 29.540986885245907 13.218451147540986 3.106488646813075e-05
168 1 32.31566295081968 13.415268196721312 3.548946611631073e-05
169 1 34.62970229508197 12.580790163934427 4.0926890309640275e-05
170 1 37.127481311475414 12.337520655737706 7.252919652613774e-05
171 1 39.47338098360656 13.691458360655739 6.09629124108126e-05
172 1 42.05633967213115 12.273749508196723 3.93778939868903e-05
173 1 44.8005186885246 12.009576393442623 8.288212951441122e-05
174 1 47.4590131147541 12.260571147540984 1.165218696450222e-05
175 1 50.00460786885247 12.52176524590164 5.1324736021450385e-06
176 1 52.65133770491804 13.37835868852459 3.0155886133829094e-05
177 1 55.20571803278689 11.868350819672132 9.943709918538604e-05
178 1 57.75706885245902 11.627 7.820516756421294e-05
179 1 60.42758032786886 11.324705573770492 1.6988898138485222e-05
180 1 64.32756721311476 10.816202622950822 2.027296335725456e-05
181 1 65.87615081967213 10.6376131147541 7.435038597948491e-05
182 1 68.78700327868853 11.16813049180328 2.116120577149232e-05
183 1 72.49613114754099 11.97428262295082 2.060505669472742e-05
184 1 74.04774426229508 12.126666885245902 4.2878316599759794e-05
185 1 76.8576131147541 12.472081311475412 4.387830174995181e-05
186 1 79.7225180327869 12.650569836065575 8.919165911552123e-05
187 1 1.398198819672131 15.119720000000001 1.7759377763430828e-05
188 1 4.189108 14.795007213114756 2.889310868215559e-05
189 1 7.0207842622950825 14.456358688524592 4.747035551407475e-06
190 1 9.703918688524592 14.78642360655738 1.831708408995545e-05
191 1 12.356859016393443 14.701748852459017 5.191396146824956e-07
192 1 14.975313442622951 14.699274754098363 9.248598711407508e-05
193 1 17.262945573770494 14.644087213114755 7.073968448918589e-05
194 1 19.26393573770492 16.368432786885247 9.472697426385304e-05
195 1 22.08294360655738 15.53021836065574 4.1320488540323244e-05
196 1 24.359518032786887 15.383236721311476 7.937058390370035e-05
197 1 27.501219016393446 14.550475409836066 1.483061892240919e-05
198 1 30.447163278688528 15.378843934426232 7.700405451496808e-05
199 1 34.26247540983607 15.3068931147541 8.193847916116028e-05
200 1 35.76501049180328 14.863928524590166 3.596173815705309e-05
201 1 38.673136393442626 15.012929836065576 8.679254267212492e-05
202 1 41.97126098360656 14.547445901639344 3.7499064484530245e-05
203 1 43.47273573770492 14.302712131147542 1.7195294848343356e-05
204 1 46.13092721311476 14.38052 8.857696219673722e-05
205 1 48.86152393442623 14.730882622950821 5.2546722344953093e-05
206 1 51.80307540983607 14.66509180327869 7.110013717763524e-05
207 1 54.28323278688525 14.575317377049183 7.647329585814637e-05
208 1 56.76440000000001 14.214603934426231 5.733910511855143e-05
209 1 59.84288524590164 13.625819016393445 4.980526849783188e-05
210 1 61.36268852459017 13.515746885245903 9.734890752160141e-05
211 1 63.62573114754099 13.440261639344264 2.6657553323329774e-05
212 1 67.70193442622951 12.86904786885246 5.0558555403470156e-05
213 1 69.04047213114754 13.630009836065575 4.427741651463409e-05
214 1 72.53702950819672 15.378641967213115 2.6525094902241642e-06
215 1 75.41758688524591 14.476201967213116 1.3513297835651917e-06
216 1 78.09213770491804 14.65706360655738 8.211334950118406e-05
217 1 80.37386229508196 14.058836721311478 6.0529781139813334e-06
218 1 82.46826229508198 17.23027737704918 5.785976921423077e-05
219 1 2.67038524590164 17.12722360655738 2.2856266708463714e-05
220 1 5.39964393442623 16.817860327868857 8.47399949717411e-05
221 1 8.273940327868853 16.925306885245902 2.364311657347088e-05
222 1 11.882539016393444 16.836340327868857 7.670072738205678e-05
223 1 13.417136393442625 16.99634885245902 7.202620179785125e-06
224 1 15.915723278688526 17.26107737704918 5.7373503108050976e-05
225 1 18.397496393442623 17.63582754098361 6.715349733484415e-05
226 1 20.83710885245902 17.89379016393443 3.893618071083182e-05
227 1 23.180887868852462 18.044457704918035 6.881374152725578e-05
228 1 25.46852 17.904746885245906 6.680289469784703e-05
229 1 27.817449180327873 18.756341639344264 9.941522106287496e-05
230 1 30.698965901639347 17.711060327868854 8.554455119870439e-05
231 1 34.09676131147542 17.779577704918037 5.881170290579718e-05
232 1 36.979893770491806 17.018464262295083 8.183634549921059e-06
233 1 39.72932393442623 17.46683147540984 4.745789182293504e-05
234 1 42.34530426229509 17.182916065573774 9.576370844149211e-05
235 1 45.03449770491804 16.582720000000002 3.372413291951434e-05
236 1 47.51298885245902 17.69500393442623 3.401835334074898e-05
237 1 50.30750819672132 16.71975475409836 5.047972253584297e-05
238 1 52.93106229508197 17.049617704918035 2.4260970889922574e-05
239 1 55.36830163934427 16.819779016393444 6.169673462856156e-05
240 1 58.0120524590164 16.674514098360657 9.826052463261865e-05
241 1 60.472013114754105 16.40726098360656 6.28260774819863e-05
242 1 62.76333114754099 16.01367737704918 9.851160471596165e-05
243 1 65.27125901639344 15.474273442622952 7.615603566228589e-05
244 1 67.72061639344264 16.52849180327869 7.635010530878863e-05
245 1 69.81754098360656 14.970718688524592 2.072865524880069e-05
246 1 74.33504262295084 16.70177967213115 7.012493492904204e-05
247 1 76.85306885245903 16.86264655737705 6.447129350711431e-05
248 1 79.59224918032787 16.862141639344266 8.503372497941557e-05
249 1 1.1346619016393444 19.29741180327869 5.1951287322910416e-05
250 1 3.9235009180327873 19.26938885245902 4.9719816791207094e-05
251 1 6.570700327868853 18.958561311475414 1.0535875968120268e-05
252 1 9.340781639344264 19.335230163934426 7.396533180003249e-05
253 1 11.847901639344263 19.478172459016395 5.051116277502727e-05
254 1 14.48685573770492 19.597232131147543 3.62907896236544e-06
255 1 17.056434098360658 19.894123934426233 9.49650161454112e-05
256 1 19.641059016393445 20.168748852459018 1.3754888593080618e-05
257 1 21.725057704918033 21.72748131147541 7.69936639569043e-05
258 1 24.42591475409836 20.547841311475413 3.708776587734576e-05
259 1 27.187715409836066 20.165820327868854 8.696224185638641e-05
260 1 29.70059147540984 19.793948196721313 9.619504492858765e-05
261 1 32.25658754098361 20.147289836065575 1.9365559949826885e-05
262 1 36.621957377049185 19.035561311475412 7.396644429336626e-05
263 1 38.11222295081968 19.396527213114755 2.5473015840609415e-05
264 1 41.47320983606557 19.576025573770494 9.749121361752786e-05
265 1 44.26747672131148 19.02803803278689 3.225362441491056e-05
266 1 46.992165901639346 19.126244590163935 7.928111650964454e-06
267 1 49.51438295081968 18.99557180327869 1.2704240078062879e-05
268 1 51.46276065573771 20.57106754098361 7.465433178940909e-05
269 1 54.10247213114754 19.43444655737705 7.27542541657016e-05
270 1 56.93556721311476 19.01748524590164 4.252537701326543e-05
271 1 59.80097704918033 18.891811147540984 7.028241685932054e-05
272 1 62.54066229508197 18.612036065573772 2.6861367149007288e-05
273 1 64.97790163934427 17.837542295081967 5.317190760653492e-05
274 1 67.2131737704918 18.735690491803282 7.383492866392972e-05
275 1 69.87661639344263 17.865868196721312 8.99801701146107e-05
276 1 72.56782950819674 18.403403934426233 4.651983473326853e-05
277 1 75.17876065573772 19.15199540983607 2.7266712810260754e-05
278 1 77.98660983606558 19.12104393442623 2.6177386527156355e-05
279 1 80.86666229508197 19.139624918032787 6.157671598363681e-05
280 1 82.13198688524591 21.231146885245902 5.8874096923941935e-05
281 1 2.2975941639344266 21.536672786885248 8.176513824574263e-05
282 1 6.174390163934427 21.196206557377053 6.140242708923903e-05
283 1 7.708987540983607 21.248415081967217 7.132331070518586e-05
284 1 10.514867540983607 21.796756065573774 2.39211919346904e-05
285 1 13.179572459016395 21.924803278688525 7.234863653078498e-05
286 1 15.668717377049182 22.156611147540985 1.4778396436397967e-05
287 1 18.31736590163935 22.415432131147544 1.4374210831916956e-05
288 1 20.924611147540986 23.064908196721316 4.699702851534444e-05
289 1 23.46308655737705 23.11848 2.9056242747358463e-05
290 1 26.093608524590167 22.56332262295082 6.93787683237369e-05
291 1 28.85359147540984 22.30929836065574 6.427315657537994e-05
292 1 31.64376852459017 21.581660983606557 9.479041558080265e-05
293 1 34.31150295081967 21.861032131147542 6.059952512401892e-05
294 1 36.92404983606558 21.65139016393443 3.197269950792955e-05
295 1 39.01112852459016 20.660589508196725 1.4554367895794363e-05
296 1 43.00765573770492 21.360759344262295 5.131050665353809e-06
297 1 45.85933180327869 21.296483278688527 2.597468630630111e-05
298 1 48.584828852459026 21.400900327868854 4.0052071226862674e-05
299 1 50.2097055737705 22.944283278688527 4.9517480686185606e-05
300 1 53.50666885245902 22.069815737704918 4.236730091279656e-05
301 1 56.002983606557386 21.26058360655738 7.594038502209397e-05
302 1 58.545750819672136 21.027008524590165 9.359383505180717e-05
303 1 61.164760655737716 21.014638032786888 8.461466951838087e-05
304 1 65.19451147540984 20.235044590163934 7.166650911965318e-05
305 1 66.77137049180328 20.182331147540985 3.0378369144793017e-05
306 1 69.76452459016393 20.96374229508197 7.562318289971888e-05
307 1 71.22575737704918 20.373745573770496 1.9902313497701442e-05
308 1 73.62058360655737 22.108946885245903 8.845690389359122e-05
309 1 76.46327213114755 21.376260327868856 5.7878811395669367e-05
310 1 79.28374426229509 21.25553442622951 2.856937845461627e-06
311 1 0.7523430163934427 23.45692655737705 2.5513282798666606e-06
312 1 3.018723147540984 22.91363475409836 6.305712105885988e-05
313 1 7.252137704918034 23.520697704918035 9.166108500617165e-07
314 1 8.796480000000003 23.585226229508198 2.293684358838678e-05
315 1 11.645883934426232 24.171486557377055 4.2540658080813065e-05
316 1 14.35365836065574 24.536340327868857 9.235779417439537e-05
317 1 17.100109508196724 24.60505967213115 8.143743511017411e-05
318 1 19.42404524590164 26.26629049180328 4.0392484326002164e-05
319 1 22.28536524590164 25.51325573770492 7.346170422547975e-05
320 1 25.03514885245902 25.117652459016398 8.546233901051765e-05
321 1 27.676324590163937 24.64040393442623 8.777535274792961e-05
322 1 30.36041836065574 24.047175737704922 5.4518523509677186e-05
323 1 33.1287324590164 23.94477836065574 3.279471248480197e-05
324 1 36.03731278688525 23.99592655737705 6.99983334830033e-05
325 1 38.756296393442625 23.568917377049182 9.10351667029314e-05
326 1 41.44609573770492 23.441779016393447 1.0701847128250319e-05
327 1 44.22243803278689 23.391085245901643 5.6715528538880036e-05
328 1 46.83609573770492 23.60254491803279 8.341472499074185e-05
329 1 49.25081573770492 24.133617704918034 6.12711274977399e-05
330 1 51.48346229508197 23.774923934426234 2.9370351704525844e-06
331 1 55.9292655737705 23.611885901639347 2.447493094521205e-05
332 1 57.44856393442624 23.488281967213116 8.3934107551091e-05
333 1 59.787849180327875 23.32377967213115 6.110089379737206e-05
334 1 61.940819672131155 22.338280655737705 7.739302776943649e-05
335 1 65.3656786885246 23.18290754098361 5.39179265029932e-07
336 1 68.153331147541 23.317922622950825 8.36837716790219e-05
337 1 70.46787540983607 23.597344262295085 6.17774552115686e-05
338 1 73.14949508196722 23.595829508196722 3.370829290780152e-05
339 1 75.41809180327868 23.792394098360656 2.820123578504852e-06
340 1 77.95328524590165 23.502116721311477 9.91018400124728e-05
341 1 80.74144262295083 23.36952524590164 8.898450088490782e-05
342 1 82.22539672131148 25.656046557377053 1.095260019628277e-05
343 1 2.065690360655738 25.715980327868852 6.366886314938849e-05
344 1 4.565600131147542 26.204135081967213 6.532879862718354e-05
345 1 7.075113442622952 26.23983278688525 9.497255049235898e-05
346 1 9.840751475409837 25.923198688524593 5.423157409235622e-05
347 1 12.471980327868854 26.634880655737707 2.9042874422808142e-05
348 1 15.825999344262296 26.928440000000002 6.64350076816482e-05
349 1 18.66838491803279 27.64961442622951 3.527019641396182e-05
350 1 21.606250491803284 27.80740131147541 3.832807055641719e-06
351 1 24.218746885245903 27.488545573770494 1.1065618658779042e-05
352 1 26.773480655737707 27.14757442622951 6.495019065590871e-05
353 1 29.336091147540987 26.552579016393445 9.987680436026907e-05
354 1 31.95161704918033 26.154148196721312 6.749725166043568e-05
355 1 34.75310426229508 25.948646557377053 7.797872636496657e-05
356 1 37.57403081967213 25.99570491803279 9.809941271848085e-05
357 1 40.40505573770492 25.78091278688525 6.768871685885236e-05
358 1 43.285411147540984 25.5232531147541 9.185141044910972e-07
359 1 44.83929639344262 25.68457442622951 7.77876428846555e-05
360 1 47.52530885245902 26.267148852459016 4.2421412844047215e-06
361 1 50.45645901639345 26.46962098360656 6.256527941660149e-05
362 1 53.37791475409836 26.28214491803279 7.007532626981323e-05
363 1 56.19586229508197 26.291990819672137 6.793767163011106e-05
364 1 59.023908196721315 25.899972459016396 9.429779035447106e-05
365 1 61.514163934426236 25.238176393442625 3.345590116282131e-05
366 1 63.82264918032788 26.383280000000003 9.778063709048597e-05
367 1 66.57697704918033 25.445394754098363 8.411622038511287e-05
368 1 69.01623606557376 25.913605245901643 3.587002916432766e-05
369 1 71.6524131147541 25.895276721311475 9.345869107005402e-05
370 1 74.12196721311477 26.28103409836066 9.951778796512337e-05
371 1 76.82984262295084 26.049781639344268 5.495396611742153e-05
372 1 79.50338360655738 25.589094426229508 3.0687956592918564e-06
373 1 0.6552624262295083 28.096416393442624 3.760853433609166e-05
374 1 3.186068131147541 28.33337442622951 6.125598007806182e-05
375 1 5.914508852459018 28.60365704918033 8.269150068139002e-05
376 1 8.579819672131148 28.22335278688525 3.0451252265394602e-05
377 1 10.805952786885246 29.59163016393443 5.6273844692785425e-05
378 1 13.161445901639347 28.028959344262297 1.638951290738322e-05
379 1 16.82503016393443 29.29756590163935 2.814465997109501e-05
380 1 19.217281311475414 29.118420983606562 8.638728064886253e-05
381 1 23.050770491803284 29.969157377049186 3.3925135874837224e-05
382 1 26.000299672131153 29.662672131147545 9.312027815725423e-05
383 1 28.733976393442624 29.08413704918033 2.081329557590177e-05
384 1 31.199844590163938 28.569120655737706 5.0377253765395317e-05
385 1 33.79118491803279 28.103333770491805 2.885130781107407e-05
386 1 36.021862295081974 29.20274229508197 3.8400736808518276e-05
387 1 38.8226931147541 28.04350098360656 8.844842242403666e-05
388 1 41.516531803278696 28.861872131147543 7.468801165495817e-05
389 1 43.759630163934425 28.476114754098365 8.001705310646068e-05
390 1 46.307446557377055 29.23859147540984 7.519102663401745e-05
391 1 49.19027606557378 28.4122931147541 6.404258922784743e-05
392 1 52.0100918032787 28.400276065573774 3.6905459775115936e-05
393 1 54.686157377049184 28.42885442622951 3.0486408959419466e-05
394 1 58.26350163934426 28.15948065573771 7.137040170702295e-05
395 1 60.79667540983608 27.98220393442623 6.701717401992102e-05
396 1 63.1864524590164 27.772057049180333 1.6754347347121303e-05
397 1 65.74588196721312 27.827345573770494 6.861882983034448e-05
398 1 68.01599344262296 28.03774491803279 3.843359304913934e-05
399 1 70.62339016393443 29.09378098360656 5.5132448066008124e-05
400 1 73.1313180327869 29.48059868852459 1.0039842493003838e-05
401 1 75.76900983606559 28.45349442622951 4.3111428405799104e-05
402 1 79.23476721311475 27.752264262295085 1.6213446173278867e-05
403 1 80.76668852459018 27.833404590163937 3.932082193630688e-05
404 1 82.07038688524591 30.337141639344267 8.160636899891499e-05
405 1 1.7973971147540986 30.62055213114754 8.623574662436103e-05
406 1 4.495805311475411 30.69038229508197 1.8170632269011832e-05
407 1 7.353777704918033 30.686241967213117 1.4938809145163124e-05
408 1 10.019744918032789 30.918706229508203 8.948426273943577e-05
409 1 12.508586885245903 30.888512131147543 6.892126160433252e-05
410 1 15.108510819672132 30.974752131147543 8.731744279813658e-05
411 1 17.436233442622953 30.711083934426235 4.687815011460861e-05
412 1 21.38802491803279 31.853662950819675 6.589764586598288e-05
413 1 23.763714754098363 31.330971803278693 1.954706865162548e-05
414 1 27.817701639344264 31.484870819672135 1.99074005193852e-05
415 1 31.055236065573773 30.940619672131152 2.845113546465167e-05
416 1 32.56453704918033 30.627620983606562 1.9562459128666054e-06
417 1 35.26074885245902 30.538099016393446 2.139577067029407e-05
418 1 37.79356918032787 30.340726557377053 2.415124224287061e-05
419 1 39.568255081967216 31.89501573770492 7.770885303414642e-05
420 1 42.49036721311476 31.197219016393447 8.623828343183345e-05
421 1 45.84787016393443 30.70765049180328 6.399883592332995e-05
422 1 48.45652918032787 30.565061639344265 9.5481627514672e-05
423 1 51.14617704918034 30.466956065573775 7.653576584195215e-05
424 1 53.84546885245902 30.59964852459017 3.836821729853622e-05
425 1 55.82828196721312 29.431268196721316 7.96801762334608e-06
426 1 59.499036065573776 30.498513442622954 7.652048401090155e-05
427 1 62.82038688524591 30.250194754098363 3.355016800618245e-05
428 1 64.37654426229508 30.11598754098361 7.26465633245301e-05
429 1 66.85367213114755 31.486436065573773 8.168776831164527e-05
430 1 69.84531147540984 30.451909508196724 8.347562805039347e-05
431 1 72.61377704918033 30.9210793442623 1.5190802957491401e-05
432 1 74.91317377049181 31.04983344262295 5.0696814907501054e-05
433 1 77.30951475409837 30.687049836065576 4.415483778068672e-05
434 1 79.62304918032787 30.364003278688525 3.10391599654292e-05
435 1 0.701972393442623 34.25429573770492 7.088902281714022e-05
436 1 3.1204287868852463 32.927017704918036 3.9894593235519474e-06
437 1 5.930211803278689 32.783368524590166 2.144386084502814e-05
438 1 8.35179868852459 33.1003055737705 1.8476379631198182e-05
439 1 11.031701639344265 33.31752131147542 3.2570457443485636e-06
440 1 13.606581639344263 33.273492459016396 6.495014427935915e-05
441 1 16.255432131147543 33.391188852459024 2.335182760975274e-06
442 1 19.618640655737707 33.51650950819673 7.951995825414579e-05
443 1 23.043398688524594 34.08908655737705 1.2866984946567318e-05
444 1 26.843967213114755 33.54448196721312 5.782524982882965e-05
445 1 28.34877442622951 33.862024918032795 3.964208318555673e-06
446 1 31.268513442622954 33.7314531147541 9.368485455471857e-05
447 1 34.08227016393443 32.86445836065574 4.052093047115799e-05
448 1 36.81428065573771 32.774734426229514 8.057809527225599e-05
449 1 38.700502950819676 34.333416393442626 6.103744776950865e-05
450 1 41.39156459016394 33.33393114754099 2.3003952448995103e-05
451 1 43.469706229508205 32.382059672131156 2.014560843472113e-05
452 1 47.325714754098364 32.91227409836066 8.279812044974423e-05
453 1 49.923013114754106 32.73888524590164 5.964934045255205e-05
454 1 52.55893770491804 32.78695344262295 3.944428336450443e-05
455 1 56.56697704918033 33.1810924590164 8.776163487835466e-05
456 1 56.700780327868856 31.647858360655743 5.243984436078665e-05
457 1 60.16754754098361 33.07228262295082 1.1605555294841752e-05
458 1 62.76181639344263 33.14266819672132 4.27298234050866e-05
459 1 66.1245704918033 32.89611672131148 7.71257805775833e-05
460 1 68.70773114754098 32.60982819672132 3.1793209688900872e-06
461 1 71.30654426229508 32.81881377049181 9.501560102623796e-05