ITEM: TIMESTEP
0
ITEM: NUMBER OF ATOMS
2232
ITEM: BOX BOUNDS xy xz yz pp pp pp
0.0 82.68810555352132 0
0.0 83.16 0
-10.0 10.0 0
ITEM: ATOMS id type x y z vx vy vz
1 1 1.8633040655737707 0.4543070688524591 9.88926100396e-05 0.0 0.0 0.0
2 1 4.295029704918033 0.5702140327868853 1.9238037734e-06 0.0 0.0 0.0
3 1 6.891171803278689 0.30474176393442626 9.14319216457e-05 0.0 0.0 0.0
4 1 9.536790819672131 0.41734757377049186 5.9199857697e-05 0.0 0.0 0.0
5 1 12.064662950819674 0.66490131147541 5.87443200511e-06 0.0 0.0 0.0
6 1 14.640502295081967 0.7829612459016394 3.33866511005e-05 0.0 0.0 0.0
7 1 18.58941573770492 0.5107296393442623 6.22792506098e-05 0.0 0.0 0.0
8 1 20.130829508196726 0.7235828852459018 5.61458014688e-05 0.0 0.0 0.0
9 1 22.81754885245902 0.946145704918033 4.79877143124e-05 0.0 0.0 0.0
10 1 25.486040655737707 0.9915580327868854 2.29471189402e-06 0.0 0.0 0.0
11 1 27.845674098360657 1.0077608524590165 2.76741091022e-05 0.0 0.0 0.0
12 1 30.402528524590167 0.6672794754098361 5.3995494156e-05 0.0 0.0 0.0
13 1 33.01946819672132 1.0089676065573772 8.98449047515e-05 0.0 0.0 0.0
14 1 35.493314098360656 0.7070013770491804 4.81475376574e-05 0.0 0.0 0.0
15 1 38.30757573770492 0.16738234754098363 3.69913881742e-05 0.0 0.0 0.0
16 1 40.84610163934427 1.6531369836065575 8.07285057769e-05 0.0 0.0 0.0
17 1 43.810778360655746 1.4142905573770492 2.17986406182e-05 0.0 0.0 0.0
18 1 46.35819081967213 1.0915873442622952 1.59199346987e-05 0.0 0.0 0.0
19 1 49.09191803278689 0.4437679147540984 5.45071404384e-05 0.0 0.0 0.0
20 1 51.86619016393443 0.8715188196721312 4.38944481134e-05 0.0 0.0 0.0
21 1 54.51145573770492 1.2370946229508197 8.9874007129e-06 0.0 0.0 0.0
22 1 57.22740983606558 0.7833500327868853 9.02396069305e-05 0.0 0.0 0.0
23 1 60.12866885245902 0.33993101639344264 9.08941947209e-05 0.0 0.0 0.0
24 1 62.74868852459017 0.7298186229508197 5.34953363878e-05 0.0 0.0 0.0
25 1 65.57420983606559 0.8626827540983608 1.17661267109e-05 0.0 0.0 0.0
26 1 68.79154754098361 1.60584131147541 1.98742407934e-05 0.0 0.0 0.0
27 1 71.16466229508198 1.2337823606557379 9.00106867287e-05 0.0 0.0 0.0
28 1 73.70339016393443 0.7756954754098362 2.90894360703e-06 0.0 0.0 0.0
29 1 76.34512131147542 0.7304548196721312 2.68543975764e-05 0.0 0.0 0.0
30 1 79.07622295081968 0.8012948196721312 3.93316316084e-05 0.0 0.0 0.0
31 1 81.76844590163935 0.6454064262295083 2.20605989099e-05 0.0 0.0 0.0
32 1 1.028139344262295 2.649971409836066 4.10618846893e-05 0.0 0.0 0.0
33 1 2.5370565901639344 2.8767805901639347 3.15546268124e-05 0.0 0.0 0.0
34 1 5.575355409836066 2.761108918032787 9.4993176636e-05 0.0 0.0 0.0
35 1 8.369975737704918 2.677529836065574 8.52166063965e-05 0.0 0.0 0.0
36 1 10.7792931147541 2.980364524590164 4.61835487627e-05 0.0 0.0 0.0
37 1 13.15165049180328 3.1341878032786887 7.71820398283e-05 0.0 0.0 0.0
38 1 15.77232655737705 2.974643803278689 2.90225208504e-05 0.0 0.0 0.0
39 1 18.349731147540986 2.9183000000000003 3.15919949519e-05 0.0 0.0 0.0
40 1 21.09456655737705 3.1658613114754104 4.58839157602e-05 0.0 0.0 0.0
41 1 24.19334950819672 3.3696159344262298 6.98283423215e-05 0.0 0.0 0.0
42 1 26.826244590163938 3.51143731147541 7.31236276251e-05 0.0 0.0 0.0
43 1 29.286457704918035 3.1788680000000005 6.72473327966e-05 0.0 0.0 0.0
44 1 31.569091147540988 4.252308590163935 5.48860387515e-05 0.0 0.0 0.0
45 1 34.37032590163935 3.332918491803279 4.59781387016e-05 0.0 0.0 0.0
46 1 37.3281862295082 2.596293573770492 1.61856829415e-06 0.0 0.0 0.0
47 1 40.073173114754105 2.9840403278688528 2.56550517625e-06 0.0 0.0 0.0
48 1 42.450579672131155 3.5651353442622953 1.32164607726e-05 0.0 0.0 0.0
49 1 45.565620983606564 3.5640901639344267 4.6885014605e-05 0.0 0.0 0.0
50 1 48.26925508196722 2.8108736393442624 6.60948273539e-05 0.0 0.0 0.0
51 1 50.38864852459017 4.115132459016394 2.23205267866e-05 0.0 0.0 0.0
52 1 53.71570491803279 3.34511731147541 5.21881791592e-05 0.0 0.0 0.0
53 1 56.49578360655739 3.1513701639344265 7.0887104132e-05 0.0 0.0 0.0
54 1 59.00775081967214 2.484136131147541 9.63416266941e-05 0.0 0.0 0.0
55 1 61.388944262295084 3.7969129180327874 4.5421920306e-05 0.0 0.0 0.0
56 1 64.21900983606558 2.903904786885246 9.99336359726e-05 0.0 0.0 0.0
57 1 66.46438032786885 2.1805945573770495 8.78566144331e-05 0.0 0.0 0.0
58 1 70.0856524590164 3.8617191475409838 5.78578265873e-05 0.0 0.0 0.0
59 1 72.66123934426231 3.3149585573770497 9.88932813005e-05 0.0 0.0 0.0
60 1 75.23480655737706 3.0385967213114755 9.60535467563e-05 0.0 0.0 0.0
61 1 77.7437442622951 3.0018285901639348 1.3112683819e-06 0.0 0.0 0.0
62 1 80.4965573770492 3.0279883934426235 9.63642693714e-06 0.0 0.0 0.0
63 1 1.2032449180327869 5.388333770491804 2.56565182432e-05 0.0 0.0 0.0
64 1 3.18419993442623 4.269627278688525 5.2847009847e-06 0.0 0.0 0.0
65 1 6.733738360655738 4.813439147540985 5.78916116578e-05 0.0 0.0 0.0
66 1 9.326139016393444 5.317796721311476 9.39512732853e-05 0.0 0.0 0.0
67 1 11.78483737704918 5.624130491803279 2.32746490813e-05 0.0 0.0 0.0
68 1 15.396465573770493 5.088462950819673 1.40440137262e-05 0.0 0.0 0.0
69 1 16.91616786885246 5.245542950819672 3.89323721531e-05 0.0 0.0 0.0
70 1 19.567088524590165 5.245845901639345 9.78395424629e-05 0.0 0.0 0.0
71 1 21.725764590163937 4.583767081967213 4.15914502397e-06 0.0 0.0 0.0
72 1 25.303260327868855 5.772071475409836 1.75210150817e-05 0.0 0.0 0.0
73 1 28.210325901639347 5.839377049180328 5.8505515726e-05 0.0 0.0 0.0
74 1 30.879625573770493 5.616960655737705 6.15482971484e-05 0.0 0.0 0.0
75 1 33.41618229508197 5.654072131147542 7.40384065396e-05 0.0 0.0 0.0
76 1 35.268979016393445 4.600080983606558 5.46154848638e-05 0.0 0.0 0.0
77 1 38.257083934426234 6.348334426229509 6.4325244426e-05 0.0 0.0 0.0
78 1 41.055339672131154 5.687497704918034 6.2946548711e-05 0.0 0.0 0.0
79 1 43.26344721311476 4.8710149508196725 5.43659546209e-05 0.0 0.0 0.0
80 1 47.0534124590164 5.287754098360656 7.27808641484e-06 0.0 0.0 0.0
81 1 49.5759324590164 5.402118032786886 8.64377460222e-05 0.0 0.0 0.0
82 1 51.70916065573771 4.873781901639345 8.57338360147e-05 0.0 0.0 0.0
83 1 55.37234098360656 5.4317062295081975 6.82949636219e-05 0.0 0.0 0.0
84 1 59.00118688524591 4.766946295081968 5.46024633333e-05 0.0 0.0 0.0
85 1 60.52452459016394 5.048927868852459 7.20587304277e-05 0.0 0.0 0.0
86 1 63.11626885245902 5.1659678688524595 8.98367302465e-06 0.0 0.0 0.0
87 1 65.9276524590164 4.9931596721311475 6.96038225602e-05 0.0 0.0 0.0
88 1 68.54110819672132 5.880578360655738 7.36754699461e-05 0.0 0.0 0.0
89 1 72.47441967213116 5.552331147540984 5.46699236056e-05 0.0 0.0 0.0
90 1 73.99775737704918 5.493003278688525 1.70278857068e-05 0.0 0.0 0.0
91 1 76.32492459016395 5.420194098360656 3.85351904522e-05 0.0 0.0 0.0
92 1 78.92020327868853 5.2012616393442626 1.61537408751e-05 0.0 0.0 0.0
93 1 81.51396721311477 5.651648524590164 2.61023662616e-06 0.0 0.0 0.0
94 1 0.46810445901639347 7.96912131147541 2.9289986117e-05 0.0 0.0 0.0
95 1 3.5046815081967218 7.081929836065575 2.39513897406e-05 0.0 0.0 0.0
96 1 5.02442924590164 6.896978360655738 7.73882237924e-05 0.0 0.0 0.0
97 1 7.485258360655738 7.2517337704918035 5.14787142386e-05 0.0 0.0 0.0
98 1 9.732295081967214 6.812707540983607 6.36887856155e-05 0.0 0.0 0.0
99 1 13.087879344262296 7.886466229508198 3.85442067865e-05 0.0 0.0 0.0
100 1 15.573186885245903 9.042577049180329 9.67861839557e-05 0.0 0.0 0.0
101 1 18.223804590163933 7.545242622950821 3.9177061395e-05 0.0 0.0 0.0
102 1 21.04917442622951 7.495407213114754 9.1530945653e-05 0.0 0.0 0.0
103 1 23.617036065573775 7.605428852459017 5.42734864149e-05 0.0 0.0 0.0
104 1 25.949959344262297 7.169987540983607 2.60165844711e-05 0.0 0.0 0.0
105 1 29.568706885245906 7.999567868852459 6.51497346813e-05 0.0 0.0 0.0
106 1 32.168933770491805 7.981643278688526 9.77054587245e-05 0.0 0.0 0.0
107 1 34.88776590163935 7.680055737704919 8.3288975695e-07 0.0 0.0 0.0
108 1 37.6361862295082 7.77548524590164 9.97066878145e-05 0.0 0.0 0.0
109 1 40.1037206557377 8.02304655737705 5.88961258756e-05 0.0 0.0 0.0
110 1 42.891272131147545 7.706109508196723 8.77609379721e-05 0.0 0.0 0.0
111 1 46.17525901639345 7.555391475409837 4.15164914242e-05 0.0 0.0 0.0
112 1 47.70102032786886 7.603308196721312 9.07976518603e-05 0.0 0.0 0.0
113 1 50.99874098360657 7.655971147540985 9.95546289618e-05 0.0 0.0 0.0
114 1 53.70308196721312 7.685963278688526 9.77023709509e-05 0.0 0.0 0.0
115 1 56.501337704918036 7.690911475409837 8.70575901785e-05 0.0 0.0 0.0
116 1 59.26727868852459 7.2467855737704925 3.90919911253e-05 0.0 0.0 0.0
117 1 62.61993442622951 7.207300983606558 3.69858864271e-05 0.0 0.0 0.0
118 1 64.14377704918033 7.122323278688525 2.69133112177e-05 0.0 0.0 0.0
119 1 66.77137049180328 7.600127213114755 6.55392589925e-05 0.0 0.0 0.0
120 1 69.23789508196722 7.329238688524591 5.72539273671e-05 0.0 0.0 0.0
121 1 72.90006557377049 8.33336918032787 2.70223110304e-06 0.0 0.0 0.0
122 1 75.32417704918034 7.999517377049181 9.09696491271e-06 0.0 0.0 0.0
123 1 77.82958032786885 7.621232786885247 3.11204020227e-06 0.0 0.0 0.0
124 1 80.29459016393443 8.713521967213117 8.49263288272e-05 0.0 0.0 0.0
125 1 1.7387054426229511 10.272658360655738 8.88957038623e-05 0.0 0.0 0.0
126 1 4.261821245901639 9.924719344262295 7.38850238672e-05 0.0 0.0 0.0
127 1 6.708340983606558 9.388950819672132 2.80173818933e-05 0.0 0.0 0.0
128 1 9.01096918032787 10.834834098360657 2.93045705811e-05 0.0 0.0 0.0
129 1 11.903644590163935 10.16713049180328 7.255342633e-05 0.0 0.0 0.0
130 1 14.890992131147543 10.42665836065574 6.5559464592e-05 0.0 0.0 0.0
131 1 17.584679344262295 9.892051147540984 4.56727562517e-05 0.0 0.0 0.0
132 1 19.84534885245902 10.90128131147541 4.18045078426e-05 0.0 0.0 0.0
133 1 22.55802098360656 9.984400655737707 8.28160629315e-05 0.0 0.0 0.0
134 1 25.166175081967218 9.912954754098362 1.52779615211e-05 0.0 0.0 0.0
135 1 27.962512131147545 10.179702950819674 4.95854004516e-05 0.0 0.0 0.0
136 1 31.292295081967218 10.265993442622952 1.82482877883e-05 0.0 0.0 0.0
137 1 33.52660786885246 11.20968524590164 6.03794319327e-05 0.0 0.0 0.0
138 1 36.21105508196722 10.003183606557377 8.85277038678e-05 0.0 0.0 0.0
139 1 38.870104918032794 10.340519344262297 6.63920531987e-05 0.0 0.0 0.0
140 1 41.66780524590164 10.005556721311475 1.35113158653e-05 0.0 0.0 0.0
141 1 44.28151344262296 11.105268196721312 2.19368604184e-05 0.0 0.0 0.0
142 1 46.662555409836074 10.144106229508196 1.87760779532e-05 0.0 0.0 0.0
143 1 48.48657180327869 8.912661639344265 1.65905114173e-05 0.0 0.0 0.0
144 1 52.14036065573771 9.86725967213115 9.60730403957e-05 0.0 0.0 0.0
145 1 54.12923278688525 9.179460327868853 7.6459796401e-05 0.0 0.0 0.0
146 1 57.87925901639345 9.537194754098362 9.81844597786e-05 0.0 0.0 0.0
147 1 60.27660983606558 9.631311475409836 8.28292148847e-05 0.0 0.0 0.0
148 1 62.58913442622951 10.021512131147542 3.27766407758e-05 0.0 0.0 0.0
149 1 65.3192262295082 9.59576524590164 2.70221263369e-05 0.0 0.0 0.0
150 1 67.6095344262295 8.887365245901641 4.21512459898e-05 0.0 0.0 0.0
151 1 71.35653114754099 10.44887475409836 3.84056282558e-05 0.0 0.0 0.0
152 1 74.1669049180328 10.636704262295082 5.43646248094e-05 0.0 0.0 0.0
153 1 76.74350163934426 10.216460983606558 3.99581725308e-05 0.0 0.0 0.0
154 1 79.456931147541 9.988944918032788 6.37375667215e-05 0.0 0.0 0.0
155 1 81.92396065573772 10.252663606557377 1.15678150995e-05 0.0 0.0 0.0
156 1 0.10771012459016395 12.605682622950821 3.7683300631e-05 0.0 0.0 0.0
157 1 2.876124196721312 12.449763934426231 6.35814110277e-05 0.0 0.0 0.0
158 1 6.503091803278689 11.933586229508197 3.98450467494e-05 0.0 0.0 0.0
159 1 8.07964786885246 12.083849836065575 9.38462024426e-05 0.0 0.0 0.0
160 1 10.48134098360656 12.556099672131149 1.45839659955e-05 0.0 0.0 0.0
161 1 13.27641573770492 12.42209442622951 2.70665062108e-05 0.0 0.0 0.0
162 1 17.279052459016395 12.121264262295083 7.49699310684e-05 0.0 0.0 0.0
163 1 18.840662950819677 12.06632918032787 2.88490606707e-05 0.0 0.0 0.0
164 1 21.463510163934426 12.522876065573772 5.10744901632e-05 0.0 0.0 0.0
165 1 24.06954360655738 12.367563278688525 4.89215514087e-05 0.0 0.0 0.0
166 1 26.63639540983607 12.252189508196722 7.91279709074e-05 0.0 0.0 0.0
167 1 28.89363147540984 11.44492655737705 8.50534895878e-05 0.0 0.0 0.0
168 1 32.84224196721312 12.584274098360657 2.62093655673e-05 0.0 0.0 0.0
169 1 35.22808065573771 12.525198688524592 6.90935322212e-05 0.0 0.0 0.0
170 1 37.14202295081968 13.807236065573772 8.47786740794e-05 0.0 0.0 0.0
171 1 40.7377462295082 12.318838688524592 6.17186370815e-05 0.0 0.0 0.0
172 1 43.58063672131148 12.44936 7.65384173716e-05 0.0 0.0 0.0
173 1 46.13855147540984 12.895707540983608 2.12768767146e-05 0.0 0.0 0.0
174 1 50.57208524590165 12.476019672131148 5.9332313032e-05 0.0 0.0 0.0
175 1 49.57542754098361 11.24588786885246 4.60957627579e-05 0.0 0.0 0.0
176 1 53.4920262295082 12.165848524590166 9.53423728224e-05 0.0 0.0 0.0
177 1 57.22993442622951 11.506122622950821 7.05399336027e-05 0.0 0.0 0.0
178 1 58.68460327868853 11.94807737704918 5.82659100593e-05 0.0 0.0 0.0
179 1 61.32330491803279 12.282535081967215 9.61297940546e-05 0.0 0.0 0.0
180 1 63.32984918032788 11.372874754098362 3.77504678075e-05 0.0 0.0 0.0
181 1 66.74309508196723 13.006940983606558 3.54793920106e-05 0.0 0.0 0.0
182 1 69.5464 11.90773442622951 7.37006308416e-06 0.0 0.0 0.0
183 1 72.28558032786887 12.703131803278689 5.83993613699e-05 0.0 0.0 0.0
184 1 76.18657704918034 12.7104531147541 1.32960436605e-05 0.0 0.0 0.0
185 1 78.61472786885247 12.26612524590164 6.01659541812e-05 0.0 0.0 0.0
186 1 80.13655081967214 12.429870163934428 2.72896563909e-05 0.0 0.0 0.0
187 1 1.3174573770491804 14.688772459016395 1.87995574765e-05 0.0 0.0 0.0
188 1 3.9592743606557383 14.850245245901641 4.12389917311e-06 0.0 0.0 0.0
189 1 6.309455737704919 16.104158688524592 2.66419295757e-06 0.0 0.0 0.0
190 1 8.970020327868854 14.863676065573772 2.57939141166e-05 0.0 0.0 0.0
191 1 11.640026885245902 14.70740393442623 3.2830949186e-05 0.0 0.0 0.0
192 1 14.374208524590165 14.699173770491804 3.97209339219e-06 0.0 0.0 0.0
193 1 16.996096393442624 14.544113442622953 1.03324724124e-05 0.0 0.0 0.0
194 1 19.792736393442624 14.57082360655738 8.7208700146e-05 0.0 0.0 0.0
195 1 22.611037377049183 14.814648524590165 1.53005283963e-05 0.0 0.0 0.0
196 1 25.721635409836068 14.721137704918034 4.79149219025e-05 0.0 0.0 0.0
197 1 28.449152131147542 14.308821639344263 4.65443034403e-06 0.0 0.0 0.0
198 1 31.08664196721312 14.418994754098362 5.39051783667e-05 0.0 0.0 0.0
199 1 33.691110163934425 15.041912131147543 8.60385517971e-05 0.0 0.0 0.0
200 1 36.63230819672132 15.252059016393444 3.26433932322e-05 0.0 0.0 0.0
201 1 38.616434098360656 14.1727462295082 4.79971931508e-05 0.0 0.0 0.0
202 1 42.342022295081975 14.435404590163936 1.92983104273e-05 0.0 0.0 0.0
203 1 44.83015737704919 14.954308852459018 5.15544622585e-05 0.0 0.0 0.0
204 1 46.88042754098361 14.243283278688526 1.41059042411e-06 0.0 0.0 0.0
205 1 50.18920590163935 15.159911475409837 1.7808304354e-05 0.0 0.0 0.0
206 1 52.439777049180336 14.459691147540985 4.84379229535e-06 0.0 0.0 0.0
207 1 55.648531147540986 14.24202098360656 9.65166257937e-05 0.0 0.0 0.0
208 1 57.17035409836066 14.093575081967215 6.71140444588e-05 0.0 0.0 0.0
209 1 59.96961967213115 14.353405901639345 6.44723701301e-05 0.0 0.0 0.0
210 1 62.92036065573771 14.343459016393444 1.42285506358e-05 0.0 0.0 0.0
211 1 65.91704918032788 14.328462950819674 2.18378991886e-05 0.0 0.0 0.0
212 1 68.49869508196723 14.319677377049182 1.16598245745e-06 0.0 0.0 0.0
213 1 70.52442622950821 15.757179016393444 5.67614378288e-05 0.0 0.0 0.0
214 1 73.3161180327869 15.190459016393445 4.29429210066e-06 0.0 0.0 0.0
215 1 75.82051147540983 15.102199344262296 9.87540080629e-05 0.0 0.0 0.0
216 1 78.35368524590166 14.778597377049183 7.25031767282e-05 0.0 0.0 0.0
217 1 81.1660786885246 14.786827540983607 2.21024174045e-05 0.0 0.0 0.0
218 1 0.26923895737704917 16.81008459016394 3.43206317233e-05 0.0 0.0 0.0
219 1 2.76524924590164 18.103230163934427 1.60961431636e-05 0.0 0.0 0.0
220 1 5.604034754098361 17.498994754098362 5.31762918397e-05 0.0 0.0 0.0
221 1 8.072629508196721 17.52944131147541 7.61852372246e-05 0.0 0.0 0.0
222 1 10.430647213114757 17.14014950819672 8.9830505804e-05 0.0 0.0 0.0
223 1 13.160385573770492 16.924297049180332 4.81490051558e-05 0.0 0.0 0.0
224 1 15.925316721311479 16.909048524590165 3.08100569264e-05 0.0 0.0 0.0
225 1 18.51600065573771 16.752725901639344 5.63559112089e-05 0.0 0.0 0.0
226 1 21.142028852459017 16.82179868852459 7.87129535018e-05 0.0 0.0 0.0
227 1 23.450261639344266 16.118043934426233 8.90294343101e-05 0.0 0.0 0.0
228 1 27.23886360655738 16.74368786885246 2.47502543145e-05 0.0 0.0 0.0
229 1 29.92356327868853 16.750857704918037 4.00230407165e-05 0.0 0.0 0.0
230 1 32.3772124590164 17.01710098360656 1.53417092966e-06 0.0 0.0 0.0
231 1 34.30615081967213 16.45876262295082 7.67992676103e-05 0.0 0.0 0.0
232 1 38.42446426229508 17.072742950819674 3.56634046987e-05 0.0 0.0 0.0
233 1 41.073516721311485 16.46719475409836 6.48090953884e-05 0.0 0.0 0.0
234 1 43.59174491803279 17.018817704918035 7.08987844487e-05 0.0 0.0 0.0
235 1 46.234081967213115 17.160952131147543 2.09807026216e-05 0.0 0.0 0.0
236 1 48.87636852459017 17.492380327868855 1.68967296391e-05 0.0 0.0 0.0
237 1 51.44104918032787 17.26774229508197 5.08971808047e-05 0.0 0.0 0.0
238 1 53.883337704918034 16.948684590163936 9.65743769269e-05 0.0 0.0 0.0
239 1 56.6452393442623 18.012597377049183 5.22522012735e-05 0.0 0.0 0.0
240 1 59.044609836065575 16.345105573770493 3.19406659265e-05 0.0 0.0 0.0
241 1 61.67018360655738 17.270014426229512 9.45118624261e-05 0.0 0.0 0.0
242 1 64.51792131147542 16.405241311475415 8.84018269323e-05 0.0 0.0 0.0
243 1 67.23135081967213 16.723541639344262 3.9336860684e-05 0.0 0.0 0.0
244 1 69.82360000000001 17.125456393442622 4.82105414792e-05 0.0 0.0 0.0
245 1 72.19065573770492 17.52767409836066 6.78502975759e-05 0.0 0.0 0.0
246 1 74.89550163934426 17.519696393442622 3.34623640242e-05 0.0 0.0 0.0
247 1 77.52612459016395 17.31005442622951 3.0520624653e-05 0.0 0.0 0.0
248 1 80.15927213114755 16.973021639344264 9.47060949097e-05 0.0 0.0 0.0
249 1 1.9310186229508197 19.388549508196725 4.03415624592e-05 0.0 0.0 0.0
250 1 4.262210032786886 19.897557377049182 9.89007602157e-05 0.0 0.0 0.0
251 1 6.70672524590164 19.968346885245904 2.69822788857e-05 0.0 0.0 0.0
252 1 9.403139016393444 19.877865573770492 1.1338451297e-05 0.0 0.0 0.0
253 1 12.258500983606558 19.194560000000003 3.13479909861e-05 0.0 0.0 0.0
254 1 14.946280655737707 19.04333704918033 9.43829151541e-05 0.0 0.0 0.0
255 1 17.35019540983607 19.177493770491804 5.18922335275e-05 0.0 0.0 0.0
256 1 19.88735803278689 19.11533836065574 4.84992647034e-05 0.0 0.0 0.0
257 1 22.470316721311477 18.939929836065577 5.7687898841e-05 0.0 0.0 0.0
258 1 25.73769180327869 18.975829508196725 7.48794295849e-05 0.0 0.0 0.0
259 1 28.777651803278694 19.025059016393442 5.77725566353e-05 0.0 0.0 0.0
260 1 31.45028393442623 19.33674491803279 7.74280591503e-05 0.0 0.0 0.0
261 1 34.20228918032787 19.358506885245905 5.52655920271e-05 0.0 0.0 0.0
262 1 36.1371855737705 18.06394754098361 3.35092249487e-05 0.0 0.0 0.0
263 1 39.680750819672134 18.9074131147541 4.6459705722e-05 0.0 0.0 0.0
264 1 41.991811147540986 19.043539016393442 8.86214285608e-05 0.0 0.0 0.0
265 1 44.46575803278689 19.346893770491803 4.14555492746e-05 0.0 0.0 0.0
266 1 47.22038885245902 19.60430098360656 5.18385173333e-05 0.0 0.0 0.0
267 1 50.644793442622955 19.70735475409836 1.91371950337e-05 0.0 0.0 0.0
268 1 53.42083278688525 19.366030163934425 5.51959601535e-05 0.0 0.0 0.0
269 1 56.26453114754099 19.501903606557377 2.68987257838e-05 0.0 0.0 0.0
270 1 58.51596065573771 19.095495081967215 3.53383606202e-05 0.0 0.0 0.0
271 1 61.09003278688525 18.682068196721314 1.59514665861e-05 0.0 0.0 0.0
272 1 63.410636065573776 18.723622950819674 7.37331554132e-05 0.0 0.0 0.0
273 1 65.90139672131149 18.826727213114758 5.04641685601e-05 0.0 0.0 0.0
274 1 68.50879344262296 19.280345573770493 2.47798233403e-05 0.0 0.0 0.0
275 1 70.74961967213116 19.785667540983606 9.34092131075e-05 0.0 0.0 0.0
276 1 73.39841967213115 19.74476918032787 4.10851613773e-05 0.0 0.0 0.0
277 1 76.14214426229508 19.737245901639348 1.66698688416e-05 0.0 0.0 0.0
278 1 79.23577704918033 19.456965901639347 3.99176798425e-06 0.0 0.0 0.0
279 1 81.89820983606558 19.080953442622953 8.87051903239e-06 0.0 0.0 0.0
280 1 0.6315514754098361 21.459723278688525 2.03743195985e-05 0.0 0.0 0.0
281 1 2.692849049180328 23.32176 2.46424900117e-05 0.0 0.0 0.0
282 1 5.334913442622951 22.42017836065574 6.1715432208e-05 0.0 0.0 0.0
283 1 7.94488524590164 22.193217704918034 9.26070050764e-05 0.0 0.0 0.0
284 1 10.608984262295083 22.576551475409836 6.19512832237e-05 0.0 0.0 0.0
285 1 13.323474098360657 21.288000655737704 4.65214127962e-06 0.0 0.0 0.0
286 1 15.85861704918033 21.564291803278692 1.35137607317e-06 0.0 0.0 0.0
287 1 18.514940327868853 21.52627147540984 1.91934897298e-05 0.0 0.0 0.0
288 1 21.552779672131148 21.349600655737706 1.73736343715e-05 0.0 0.0 0.0
289 1 23.322163934426232 20.216766557377053 5.9588570015e-05 0.0 0.0 0.0
290 1 26.555002622950823 20.275034098360656 6.99749107285e-05 0.0 0.0 0.0
291 1 30.01581180327869 21.39797180327869 7.23359759357e-05 0.0 0.0 0.0
292 1 32.17504327868853 20.732237377049184 2.88546195865e-05 0.0 0.0 0.0
293 1 36.695927868852465 20.775811803278692 7.37493418684e-05 0.0 0.0 0.0
294 1 38.18947540983607 21.185249836065577 2.48703720663e-05 0.0 0.0 0.0
295 1 40.60732590163934 21.456037377049185 2.30696004067e-05 0.0 0.0 0.0
296 1 42.81013180327869 22.622902950819675 8.0639819237e-05 0.0 0.0 0.0
297 1 45.617980983606564 21.63043606557377 6.27711467871e-05 0.0 0.0 0.0
298 1 48.10076393442623 20.859224262295083 3.70673993864e-05 0.0 0.0 0.0
299 1 52.956813114754105 21.440081967213118 3.50282695979e-05 0.0 0.0 0.0
300 1 54.48974426229509 21.51157836065574 8.64163612146e-05 0.0 0.0 0.0
301 1 58.0776918032787 21.764491803278688 3.85551469906e-05 0.0 0.0 0.0
302 1 60.30135081967214 21.14763344262295 6.09919885066e-05 0.0 0.0 0.0
303 1 61.821154098360665 21.139504262295084 1.12567548326e-05 0.0 0.0 0.0
304 1 64.12913442622951 21.09810098360656 4.87861617236e-05 0.0 0.0 0.0
305 1 67.00009836065574 21.339704262295083 3.3256169016e-05 0.0 0.0 0.0
306 1 69.49186885245902 22.11333967213115 3.7648963036e-05 0.0 0.0 0.0
307 1 72.12299672131148 22.053052459016396 4.89109600215e-05 0.0 0.0 0.0
308 1 74.73998688524591 21.927630819672135 7.18119250919e-05 0.0 0.0 0.0
309 1 77.01110819672131 20.998581639344263 7.79066813066e-05 0.0 0.0 0.0
310 1 80.76769836065574 21.52243409836066 7.63953806445e-05 0.0 0.0 0.0
311 1 1.8673686557377052 24.624751475409838 2.31567556253e-05 0.0 0.0 0.0
312 1 4.487358032786886 25.0228793442623 5.69397076236e-06 0.0 0.0 0.0
313 1 6.970948852459017 24.621570491803283 2.39806161043e-05 0.0 0.0 0.0
314 1 9.305235409836067 24.610613770491806 1.6432414847e-05 0.0 0.0 0.0
315 1 11.515615081967214 23.8347062295082 9.31282581824e-05 0.0 0.0 0.0
316 1 14.385367213114757 23.815064918032792 3.57573113579e-06 0.0 0.0 0.0
317 1 17.49828786885246 23.806329836065576 3.7056900067e-05 0.0 0.0 0.0
318 1 19.582236065573774 22.619065573770495 8.81030309138e-05 0.0 0.0 0.0
319 1 23.32802098360656 23.23440918032787 2.90885871414e-05 0.0 0.0 0.0
320 1 25.659681967213118 23.09732393442623 7.37564051218e-05 0.0 0.0 0.0
321 1 28.180889180327874 23.30383540983607 8.62373805488e-05 0.0 0.0 0.0
322 1 31.071292459016398 23.608906885245904 8.76492409078e-05 0.0 0.0 0.0
323 1 35.004805901639344 23.64399868852459 2.31303856081e-05 0.0 0.0 0.0
324 1 36.552733114754105 23.67252655737705 5.56515631762e-06 0.0 0.0 0.0
325 1 39.24505704918033 23.873332459016396 5.20556420927e-05 0.0 0.0 0.0
326 1 41.91632590163935 23.86545573770492 3.6293118915e-05 0.0 0.0 0.0
327 1 44.5723462295082 23.963611803278692 1.5713098676e-06 0.0 0.0 0.0
328 1 47.17535016393443 23.551952131147544 5.12029751675e-05 0.0 0.0 0.0
329 1 49.842428196721315 23.62132786885246 9.96321080052e-06 0.0 0.0 0.0
330 1 52.4332131147541 23.947252459016394 9.46450908253e-05 0.0 0.0 0.0
331 1 55.180977049180335 24.17648524590164 2.22603893046e-05 0.0 0.0 0.0
332 1 57.522281967213125 24.304734426229512 5.95419645604e-05 0.0 0.0 0.0
333 1 60.073632786885256 23.867727868852462 3.91741166601e-06 0.0 0.0 0.0
334 1 62.891580327868866 23.653945573770493 6.81329849693e-05 0.0 0.0 0.0
335 1 65.80697704918033 23.154480655737707 7.48796664468e-05 0.0 0.0 0.0
336 1 67.31415737704918 22.844915409836066 6.62814995018e-05 0.0 0.0 0.0
337 1 70.87029508196723 24.396124590163936 9.680603887e-05 0.0 0.0 0.0
338 1 73.51960000000001 24.302664262295085 6.35627487806e-05 0.0 0.0 0.0
339 1 76.34007213114755 23.840260327868855 4.50536129857e-05 0.0 0.0 0.0
340 1 79.14186229508196 23.651774426229508 1.40947083031e-05 0.0 0.0 0.0
341 1 81.8588262295082 23.8716662295082 4.46082018975e-05 0.0 0.0 0.0
342 1 0.2076116918032787 26.383784918032788 2.46911132043e-05 0.0 0.0 0.0
343 1 2.3436073442622956 26.085226885245905 6.67756836612e-05 0.0 0.0 0.0
344 1 5.949550163934427 27.19231016393443 4.5071088478e-05 0.0 0.0 0.0
345 1 8.351748196721312 27.11717836065574 1.66219449992e-06 0.0 0.0 0.0
346 1 10.788937049180328 26.68400918032787 6.63089228325e-05 0.0 0.0 0.0
347 1 13.137462295081967 25.89795278688525 4.4946541738e-05 0.0 0.0 0.0
348 1 15.457358688524593 24.92654098360656 7.7770566557e-05 0.0 0.0 0.0
349 1 19.46565049180328 25.46326885245902 7.01537954748e-05 0.0 0.0 0.0
350 1 22.07183540983607 25.581672131147542 8.37645857228e-05 0.0 0.0 0.0
351 1 24.424248524590165 25.749102950819676 2.41598253275e-05 0.0 0.0 0.0
352 1 26.68128262295082 25.637566557377053 4.47414562915e-05 0.0 0.0 0.0
353 1 29.30680590163935 25.447060983606562 7.59680400152e-05 0.0 0.0 0.0
354 1 31.59095409836066 25.078016393442624 5.35841491313e-05 0.0 0.0 0.0
355 1 34.90649836065574 26.385703606557378 8.01181766229e-05 0.0 0.0 0.0
356 1 37.7665055737705 26.171163934426232 1.44267301879e-06 0.0 0.0 0.0
357 1 41.33430688524591 26.07346229508197 1.44996089705e-05 0.0 0.0 0.0
358 1 42.87789180327869 26.12299475409836 7.90889768119e-05 0.0 0.0 0.0
359 1 45.698313442622954 26.011609836065578 2.86243827308e-05 0.0 0.0 0.0
360 1 48.39386885245902 25.84715803278689 2.33682539018e-05 0.0 0.0 0.0
361 1 51.00984918032787 26.070281311475412 2.51765880746e-05 0.0 0.0 0.0
362 1 53.78942295081968 26.231249180327872 5.68524539013e-05 0.0 0.0 0.0
363 1 56.311993442622956 26.75676786885246 7.62189035031e-05 0.0 0.0 0.0
364 1 58.90828196721312 26.454523934426234 7.15429454836e-05 0.0 0.0 0.0
365 1 61.414190163934435 25.994291147540984 9.70433670055e-05 0.0 0.0 0.0
366 1 64.03824918032787 26.126074754098365 9.87162223971e-05 0.0 0.0 0.0
367 1 66.52295081967213 25.989494426229513 4.39640092951e-05 0.0 0.0 0.0
368 1 69.22880655737706 26.45851278688525 1.43623397648e-06 0.0 0.0 0.0
369 1 72.33203278688525 26.675173114754102 8.10676747938e-05 0.0 0.0 0.0
370 1 75.01062295081968 26.177222950819672 3.73879331096e-06 0.0 0.0 0.0
371 1 77.72960655737705 25.923956065573773 7.50932141342e-05 0.0 0.0 0.0
372 1 80.35164590163936 26.023121967213115 8.5707274088e-05 0.0 0.0 0.0
373 1 1.6336219016393445 28.84308918032787 5.71439513019e-05 0.0 0.0 0.0
374 1 4.421920655737705 29.317106229508198 3.41802745155e-05 0.0 0.0 0.0
375 1 7.200333114754099 29.63818360655738 8.69071186847e-05 0.0 0.0 0.0
376 1 9.846255081967213 29.331041967213118 8.64166922247e-05 0.0 0.0 0.0
377 1 12.57296393442623 28.636527213114757 4.10179809178e-05 0.0 0.0 0.0
378 1 15.150671475409837 27.633760000000002 8.73146617567e-05 0.0 0.0 0.0
379 1 18.933315409836066 27.575946885245905 1.21905531079e-05 0.0 0.0 0.0
380 1 20.46816524590164 27.82679016393443 2.11824222544e-06 0.0 0.0 0.0
381 1 23.04223737704918 28.234763934426233 1.19370953515e-05 0.0 0.0 0.0
382 1 25.488716721311476 28.33610098360656 1.85318294008e-06 0.0 0.0 0.0
383 1 28.593609180327874 27.73620786885246 4.75025583673e-05 0.0 0.0 0.0
384 1 30.40747672131148 29.22475672131148 7.98304459358e-05 0.0 0.0 0.0
385 1 33.59754885245902 28.72877573770492 2.45052994124e-05 0.0 0.0 0.0
386 1 36.21534688524591 28.324992786885247 3.78439871617e-05 0.0 0.0 0.0
387 1 38.41734491803279 27.60356590163935 4.30605879627e-05 0.0 0.0 0.0
388 1 41.91910295081968 28.87631278688525 1.44767718466e-05 0.0 0.0 0.0
389 1 44.584918688524596 28.176243934426235 2.87639077813e-05 0.0 0.0 0.0
390 1 47.25164327868853 28.15392655737705 4.33210804241e-05 0.0 0.0 0.0
391 1 49.81218360655738 28.238752786885247 6.96444848967e-05 0.0 0.0 0.0
392 1 52.45997377049181 28.2706131147541 8.72626664421e-05 0.0 0.0 0.0
393 1 53.95301639344263 30.06978754098361 5.37114082112e-05 0.0 0.0 0.0
394 1 57.87774426229509 28.96169442622951 9.75290748082e-05 0.0 0.0 0.0
395 1 60.37860327868853 28.635012459016398 1.91868037675e-05 0.0 0.0 0.0
396 1 62.837049180327874 28.372455081967217 8.56160850709e-05 0.0 0.0 0.0
397 1 65.44091147540985 28.37689836065574 4.07206731286e-05 0.0 0.0 0.0
398 1 67.89784262295083 28.470106229508197 1.56923627681e-05 0.0 0.0 0.0
399 1 69.92205901639345 27.875060327868855 9.30825186688e-05 0.0 0.0 0.0
400 1 73.76297049180329 28.64596918032787 2.51549400677e-05 0.0 0.0 0.0
401 1 76.31129180327869 28.26142360655738 8.63865780588e-05 0.0 0.0 0.0
402 1 78.97978360655738 28.29904 5.67164479876e-05 0.0 0.0 0.0
403 1 81.54527213114756 28.561950819672134 7.87258487319e-05 0.0 0.0 0.0
404 1 82.56167213114755 30.85857049180328 9.50764070409e-05 0.0 0.0 0.0
405 1 2.695323147540984 31.2537193442623 2.85397855189e-05 0.0 0.0 0.0
406 1 5.841800655737706 31.70945836065574 7.37522000266e-05 0.0 0.0 0.0
407 1 8.675703606557379 31.850936393442627 5.3557925862e-05 0.0 0.0 0.0
408 1 11.795945573770494 31.078260327868854 4.82825470065e-05 0.0 0.0 0.0
409 1 15.99570229508197 30.979801311475413 1.30619263882e-05 0.0 0.0 0.0
410 1 15.391719344262297 29.582541639344264 5.73445144637e-05 0.0 0.0 0.0
411 1 18.586891147540985 30.12972131147541 9.61821073325e-05 0.0 0.0 0.0
412 1 21.514355409836067 30.447668196721313 6.36089480425e-05 0.0 0.0 0.0