# input file

2232 atoms
1 atom types

0.0 82.68810555352132 xlo xhi
0.0 83.16 ylo yhi
-10.0 10.0 zlo zhi
0.0 0.0 0.0 xy xz yz

Masses

1 12.0100 #C

Atoms

1 1 1.8633040655737707 0.4543070688524591 1.2441035628144215e-05
2 1 4.295029704918033 0.5702140327868853 9.465841480678819e-05
3 1 6.891171803278689 0.30474176393442626 4.162802070668082e-05
4 1 9.536790819672131 0.41734757377049186 7.339285196431246e-05
5 1 12.064662950819674 0.66490131147541 7.410575668656761e-05
6 1 14.640502295081967 0.7829612459016394 7.238165213417156e-05
7 1 18.58941573770492 0.5107296393442623 8.46238475202387e-05
8 1 20.130829508196726 0.7235828852459018 9.121271242705152e-05
9 1 22.81754885245902 0.946145704918033 2.6557783498020772e-05
10 1 25.486040655737707 0.9915580327868854 2.0901171441008473e-05
11 1 27.845674098360657 1.0077608524590165 7.815938485352529e-05
12 1 30.402528524590167 0.6672794754098361 3.402550049097494e-05
13 1 33.01946819672132 1.0089676065573772 5.13898730787128e-05
14 1 35.493314098360656 0.7070013770491804 9.64037870064823e-05
15 1 38.30757573770492 0.16738234754098363 9.699792136659487e-05
16 1 40.84610163934427 1.6531369836065575 9.981455767199375e-05
17 1 43.810778360655746 1.4142905573770492 1.1737184787573863e-05
18 1 46.35819081967213 1.0915873442622952 9.505074525381593e-05
19 1 49.09191803278689 0.4437679147540984 2.0632963979750185e-05
20 1 51.86619016393443 0.8715188196721312 2.792222934215781e-05
21 1 54.51145573770492 1.2370946229508197 8.778261302794852e-05
22 1 57.22740983606558 0.7833500327868853 6.113805076529846e-05
23 1 60.12866885245902 0.33993101639344264 4.3604982229583616e-05
24 1 62.74868852459017 0.7298186229508197 9.739040984383963e-06
25 1 65.57420983606559 0.8626827540983608 6.196170271281011e-05
26 1 68.79154754098361 1.60584131147541 5.660031322916881e-05
27 1 71.16466229508198 1.2337823606557379 1.3027101671494302e-05
28 1 73.70339016393443 0.7756954754098362 7.36566581650679e-05
29 1 76.34512131147542 0.7304548196721312 6.551859339616436e-05
30 1 79.07622295081968 0.8012948196721312 8.50523640617126e-05
31 1 81.76844590163935 0.6454064262295083 6.068324859609822e-05
32 1 1.028139344262295 2.649971409836066 9.469663843127318e-05
33 1 2.5370565901639344 2.8767805901639347 2.943521817819095e-06
34 1 5.575355409836066 2.761108918032787 7.065247468288947e-05
35 1 8.369975737704918 2.677529836065574 6.951447812725212e-05
36 1 10.7792931147541 2.980364524590164 6.654096090064464e-05
37 1 13.15165049180328 3.1341878032786887 8.220450660866709e-05
38 1 15.77232655737705 2.974643803278689 2.4873994196899896e-05
39 1 18.349731147540986 2.9183000000000003 5.378749359639856e-05
40 1 21.09456655737705 3.1658613114754104 3.5768051825936745e-05
41 1 24.19334950819672 3.3696159344262298 7.137613216714793e-05
42 1 26.826244590163938 3.51143731147541 8.551768143349948e-06
43 1 29.286457704918035 3.1788680000000005 7.526244504029128e-05
44 1 31.569091147540988 4.252308590163935 5.664550164463498e-05
45 1 34.37032590163935 3.332918491803279 2.1813038245745088e-05
46 1 37.3281862295082 2.596293573770492 8.578948588317792e-05
47 1 40.073173114754105 2.9840403278688528 1.4759817129311127e-05
48 1 42.450579672131155 3.5651353442622953 4.178050511421048e-05
49 1 45.565620983606564 3.5640901639344267 3.88689643963131e-05
50 1 48.26925508196722 2.8108736393442624 8.830547390589752e-05
51 1 50.38864852459017 4.115132459016394 9.528143957532858e-05
52 1 53.71570491803279 3.34511731147541 5.732333352844344e-05
53 1 56.49578360655739 3.1513701639344265 6.633065108017359e-05
54 1 59.00775081967214 2.484136131147541 6.601509387642994e-05
55 1 61.388944262295084 3.7969129180327874 9.205529212165764e-06
56 1 64.21900983606558 2.903904786885246 7.533087067570162e-05
57 1 66.46438032786885 2.1805945573770495 9.372364066990986e-05
58 1 70.0856524590164 3.8617191475409838 4.990063670652216e-05
59 1 72.66123934426231 3.3149585573770497 4.060325106244806e-05
60 1 75.23480655737706 3.0385967213114755 6.770888087273803e-05
61 1 77.7437442622951 3.0018285901639348 5.5020797468476114e-05
62 1 80.4965573770492 3.0279883934426235 4.973251142439159e-05
63 1 1.2032449180327869 5.388333770491804 2.32724103267982e-05
64 1 3.18419993442623 4.269627278688525 8.132213565032197e-05
65 1 6.733738360655738 4.813439147540985 3.291200711102089e-05
66 1 9.326139016393444 5.317796721311476 8.530669034820037e-05
67 1 11.78483737704918 5.624130491803279 8.171610710845819e-05
68 1 15.396465573770493 5.088462950819673 1.3857064894780936e-05
69 1 16.91616786885246 5.245542950819672 1.5255896813136772e-05
70 1 19.567088524590165 5.245845901639345 4.320580291841791e-05
71 1 21.725764590163937 4.583767081967213 9.554972974276229e-05
72 1 25.303260327868855 5.772071475409836 6.278882231303214e-05
73 1 28.210325901639347 5.839377049180328 2.586258835419635e-05
74 1 30.879625573770493 5.616960655737705 2.6227707850505557e-05
75 1 33.41618229508197 5.654072131147542 3.370598609397238e-05
76 1 35.268979016393445 4.600080983606558 4.622952398964873e-05
77 1 38.257083934426234 6.348334426229509 7.977112030146355e-05
78 1 41.055339672131154 5.687497704918034 6.567478466063754e-05
79 1 43.26344721311476 4.8710149508196725 6.353961190653262e-05
80 1 47.0534124590164 5.287754098360656 2.519164088734588e-05
81 1 49.5759324590164 5.402118032786886 1.3636251302354242e-06
82 1 51.70916065573771 4.873781901639345 8.71414767410579e-05
83 1 55.37234098360656 5.4317062295081975 8.816039219947034e-05
84 1 59.00118688524591 4.766946295081968 8.42621416625879e-05
85 1 60.52452459016394 5.048927868852459 4.273073156908235e-05
86 1 63.11626885245902 5.1659678688524595 9.915605811543812e-05
87 1 65.9276524590164 4.9931596721311475 4.891341635156531e-05
88 1 68.54110819672132 5.880578360655738 6.403616998685252e-05
89 1 72.47441967213116 5.552331147540984 4.431225827236837e-05
90 1 73.99775737704918 5.493003278688525 7.482398458696662e-05
91 1 76.32492459016395 5.420194098360656 9.077077395497315e-05
92 1 78.92020327868853 5.2012616393442626 6.526545041963287e-05
93 1 81.51396721311477 5.651648524590164 8.548707317013548e-05
94 1 0.46810445901639347 7.96912131147541 7.784330456979824e-05
95 1 3.5046815081967218 7.081929836065575 4.7804967664619906e-05
96 1 5.02442924590164 6.896978360655738 8.167805657066189e-05
97 1 7.485258360655738 7.2517337704918035 5.090742783142555e-06
98 1 9.732295081967214 6.812707540983607 3.990249502914944e-06
99 1 13.087879344262296 7.886466229508198 5.2416911384941705e-05
100 1 15.573186885245903 9.042577049180329 9.570003327735545e-06
101 1 18.223804590163933 7.545242622950821 2.0134054499372613e-05
102 1 21.04917442622951 7.495407213114754 9.893978762234969e-05
103 1 23.617036065573775 7.605428852459017 6.029392384522803e-05
104 1 25.949959344262297 7.169987540983607 3.119332070038028e-05
105 1 29.568706885245906 7.999567868852459 8.859397677767435e-05
106 1 32.168933770491805 7.981643278688526 5.040264134799259e-05
107 1 34.88776590163935 7.680055737704919 8.731332342499063e-05
108 1 37.6361862295082 7.77548524590164 8.537914926802116e-05
109 1 40.1037206557377 8.02304655737705 3.944211923893538e-05
110 1 42.891272131147545 7.706109508196723 8.461501881622741e-05
111 1 46.17525901639345 7.555391475409837 2.9251185841404648e-05
112 1 47.70102032786886 7.603308196721312 1.451294079280463e-06
113 1 50.99874098360657 7.655971147540985 1.861169621695139e-05
114 1 53.70308196721312 7.685963278688526 4.1494831126501144e-05
115 1 56.501337704918036 7.690911475409837 8.13953671973244e-05
116 1 59.26727868852459 7.2467855737704925 1.3985458743961455e-05
117 1 62.61993442622951 7.207300983606558 1.91968326608285e-06
118 1 64.14377704918033 7.122323278688525 8.936680431283931e-05
119 1 66.77137049180328 7.600127213114755 8.402616786013406e-05
120 1 69.23789508196722 7.329238688524591 2.7502878831777247e-05
121 1 72.90006557377049 8.33336918032787 3.2102381560449325e-05
122 1 75.32417704918034 7.999517377049181 4.800440393845493e-05
123 1 77.82958032786885 7.621232786885247 3.5249055661164988e-06
124 1 80.29459016393443 8.713521967213117 6.174278824602696e-05
125 1 1.7387054426229511 10.272658360655738 2.3124398728504892e-05
126 1 4.261821245901639 9.924719344262295 5.8691776738080475e-05
127 1 6.708340983606558 9.388950819672132 2.5718965690570952e-05
128 1 9.01096918032787 10.834834098360657 1.245260523629045e-05
129 1 11.903644590163935 10.16713049180328 3.4062302262561883e-05
130 1 14.890992131147543 10.42665836065574 1.3628980635126188e-05
131 1 17.584679344262295 9.892051147540984 7.451610382020023e-05
132 1 19.84534885245902 10.90128131147541 6.521979453233526e-05
133 1 22.55802098360656 9.984400655737707 5.414632724860687e-05
134 1 25.166175081967218 9.912954754098362 5.656307215928325e-05
135 1 27.962512131147545 10.179702950819674 4.7723244611002735e-05
136 1 31.292295081967218 10.265993442622952 7.581477808443513e-05
137 1 33.52660786885246 11.20968524590164 4.5781946984140336e-05
138 1 36.21105508196722 10.003183606557377 2.9779506695970227e-05
139 1 38.870104918032794 10.340519344262297 7.882984541064042e-05
140 1 41.66780524590164 10.005556721311475 5.4434280729844286e-05
141 1 44.28151344262296 11.105268196721312 8.039066629307146e-06
142 1 46.662555409836074 10.144106229508196 5.8016632931675544e-05
143 1 48.48657180327869 8.912661639344265 5.305599103700446e-05
144 1 52.14036065573771 9.86725967213115 7.156404759013825e-05
145 1 54.12923278688525 9.179460327868853 7.111523958138346e-05
146 1 57.87925901639345 9.537194754098362 5.314844022633162e-05
147 1 60.27660983606558 9.631311475409836 6.403592129787561e-05
148 1 62.58913442622951 10.021512131147542 6.784586419888357e-05
149 1 65.3192262295082 9.59576524590164 9.061818339801264e-05
150 1 67.6095344262295 8.887365245901641 8.047449213513893e-05
151 1 71.35653114754099 10.44887475409836 9.290374206421863e-05
152 1 74.1669049180328 10.636704262295082 9.856316004260998e-05
153 1 76.74350163934426 10.216460983606558 6.064936123262261e-05
154 1 79.456931147541 9.988944918032788 4.979350679717314e-05
155 1 81.92396065573772 10.252663606557377 7.620027716377818e-05
156 1 0.10771012459016395 12.605682622950821 1.2098404961986398e-05
157 1 2.876124196721312 12.449763934426231 8.341488043804301e-05
158 1 6.503091803278689 11.933586229508197 6.188977638600163e-05
159 1 8.07964786885246 12.083849836065575 4.6262388182295625e-05
160 1 10.48134098360656 12.556099672131149 6.256323231980218e-05
161 1 13.27641573770492 12.42209442622951 3.068854838121915e-06
162 1 17.279052459016395 12.121264262295083 2.3869840941284495e-05
163 1 18.840662950819677 12.06632918032787 2.7052014294759686e-05
164 1 21.463510163934426 12.522876065573772 8.495473065347427e-05
165 1 24.06954360655738 12.367563278688525 1.1469182266640065e-06
166 1 26.63639540983607 12.252189508196722 9.952821446813132e-05
167 1 28.89363147540984 11.44492655737705 6.0822965849178605e-05
168 1 32.84224196721312 12.584274098360657 5.8709201212770393e-05
169 1 35.22808065573771 12.525198688524592 9.51248807772901e-05
170 1 37.14202295081968 13.807236065573772 5.68894369145603e-05
171 1 40.7377462295082 12.318838688524592 1.3936825585509904e-06
172 1 43.58063672131148 12.44936 2.8887302262060824e-06
173 1 46.13855147540984 12.895707540983608 5.838886197835679e-05
174 1 50.57208524590165 12.476019672131148 9.043497167450313e-05
175 1 49.57542754098361 11.24588786885246 2.0371107976381066e-05
176 1 53.4920262295082 12.165848524590166 8.786992895663724e-05
177 1 57.22993442622951 11.506122622950821 1.1961224804862437e-05
178 1 58.68460327868853 11.94807737704918 7.405506825614713e-05
179 1 61.32330491803279 12.282535081967215 9.870337285287849e-05
180 1 63.32984918032788 11.372874754098362 9.500661134405415e-05
181 1 66.74309508196723 13.006940983606558 2.80232211019005e-05
182 1 69.5464 11.90773442622951 2.0430651065747443e-05
183 1 72.28558032786887 12.703131803278689 7.111694288694139e-05
184 1 76.18657704918034 12.7104531147541 7.984618412495403e-06
185 1 78.61472786885247 12.26612524590164 4.99857311591711e-05
186 1 80.13655081967214 12.429870163934428 9.749733062008076e-05
187 1 1.3174573770491804 14.688772459016395 2.1339971320496555e-05
188 1 3.9592743606557383 14.850245245901641 5.8018520588202286e-05
189 1 6.309455737704919 16.104158688524592 2.0879049728312693e-05
190 1 8.970020327868854 14.863676065573772 6.37415529397391e-05
191 1 11.640026885245902 14.70740393442623 8.715761636930047e-05
192 1 14.374208524590165 14.699173770491804 3.9216965843646325e-05
193 1 16.996096393442624 14.544113442622953 9.052581362137706e-05
194 1 19.792736393442624 14.57082360655738 8.875971661918015e-06
195 1 22.611037377049183 14.814648524590165 2.949307703507962e-05
196 1 25.721635409836068 14.721137704918034 7.130522142683376e-05
197 1 28.449152131147542 14.308821639344263 2.7062727769738404e-05
198 1 31.08664196721312 14.418994754098362 7.810150933490767e-05
199 1 33.691110163934425 15.041912131147543 5.23443325330903e-05
200 1 36.63230819672132 15.252059016393444 7.281947640410389e-05
201 1 38.616434098360656 14.1727462295082 7.565598921687853e-05
202 1 42.342022295081975 14.435404590163936 1.2608792868898478e-05
203 1 44.83015737704919 14.954308852459018 6.891624314440016e-05
204 1 46.88042754098361 14.243283278688526 3.7401960815719816e-05
205 1 50.18920590163935 15.159911475409837 7.17728981185945e-05
206 1 52.439777049180336 14.459691147540985 9.529277016648e-05
207 1 55.648531147540986 14.24202098360656 8.885176919488385e-05
208 1 57.17035409836066 14.093575081967215 2.710833234360096e-05
209 1 59.96961967213115 14.353405901639345 5.653484847175e-05
210 1 62.92036065573771 14.343459016393444 9.309575575752393e-05
211 1 65.91704918032788 14.328462950819674 8.769000348497405e-05
212 1 68.49869508196723 14.319677377049182 4.586951805587895e-05
213 1 70.52442622950821 15.757179016393444 7.026548165853884e-05
214 1 73.3161180327869 15.190459016393445 6.23097503774072e-05
215 1 75.82051147540983 15.102199344262296 4.243262567049465e-05
216 1 78.35368524590166 14.778597377049183 9.700498739584186e-05
217 1 81.1660786885246 14.786827540983607 7.58644003648309e-05
218 1 0.26923895737704917 16.81008459016394 2.772724855114706e-07
219 1 2.76524924590164 18.103230163934427 2.4908409926674425e-05
220 1 5.604034754098361 17.498994754098362 7.403217800816811e-05
221 1 8.072629508196721 17.52944131147541 1.918298066875738e-05
222 1 10.430647213114757 17.14014950819672 2.2700006947850362e-05
223 1 13.160385573770492 16.924297049180332 8.84467840832399e-05
224 1 15.925316721311479 16.909048524590165 1.2187728705171042e-06
225 1 18.51600065573771 16.752725901639344 4.3597708134230456e-05
226 1 21.142028852459017 16.82179868852459 5.519590542275448e-05
227 1 23.450261639344266 16.118043934426233 8.779349919161206e-05
228 1 27.23886360655738 16.74368786885246 9.48598234818556e-05
229 1 29.92356327868853 16.750857704918037 7.91147758249833e-05
230 1 32.3772124590164 17.01710098360656 3.088844128093155e-05
231 1 34.30615081967213 16.45876262295082 8.986177564713791e-05
232 1 38.42446426229508 17.072742950819674 4.390238654758704e-05
233 1 41.073516721311485 16.46719475409836 3.654499869314235e-05
234 1 43.59174491803279 17.018817704918035 8.689966905507288e-05
235 1 46.234081967213115 17.160952131147543 2.2186149626935127e-05
236 1 48.87636852459017 17.492380327868855 7.41438575815461e-05
237 1 51.44104918032787 17.26774229508197 7.064335842263692e-06
238 1 53.883337704918034 16.948684590163936 4.689424406815723e-06
239 1 56.6452393442623 18.012597377049183 1.627091983949757e-05
240 1 59.044609836065575 16.345105573770493 7.913743100494855e-05
241 1 61.67018360655738 17.270014426229512 5.6643895819834416e-05
242 1 64.51792131147542 16.405241311475415 6.064338727734369e-05
243 1 67.23135081967213 16.723541639344262 5.8146339826753063e-05
244 1 69.82360000000001 17.125456393442622 4.3068832033741494e-05
245 1 72.19065573770492 17.52767409836066 8.771639380624883e-05
246 1 74.89550163934426 17.519696393442622 2.7938090831786045e-05
247 1 77.52612459016395 17.31005442622951 8.787079383486264e-05
248 1 80.15927213114755 16.973021639344264 4.2407477282218314e-05
249 1 1.9310186229508197 19.388549508196725 2.0671734042717938e-06
250 1 4.262210032786886 19.897557377049182 5.5919975537822037e-05
251 1 6.70672524590164 19.968346885245904 7.411964550467604e-05
252 1 9.403139016393444 19.877865573770492 6.256861262206636e-05
253 1 12.258500983606558 19.194560000000003 4.2281760189177974e-05
254 1 14.946280655737707 19.04333704918033 2.80191085432401e-05
255 1 17.35019540983607 19.177493770491804 2.6264076468035746e-06
256 1 19.88735803278689 19.11533836065574 3.801659806322061e-05
257 1 22.470316721311477 18.939929836065577 8.819531342420207e-05
258 1 25.73769180327869 18.975829508196725 6.923574441940233e-05
259 1 28.777651803278694 19.025059016393442 6.69814031224394e-05
260 1 31.45028393442623 19.33674491803279 4.33500511533162e-05
261 1 34.20228918032787 19.358506885245905 6.19503385729612e-05
262 1 36.1371855737705 18.06394754098361 9.818724172453192e-05
263 1 39.680750819672134 18.9074131147541 9.385489858261987e-06
264 1 41.991811147540986 19.043539016393442 9.766266833605986e-06
265 1 44.46575803278689 19.346893770491803 4.6814251021067844e-07
266 1 47.22038885245902 19.60430098360656 7.645316026564076e-05
267 1 50.644793442622955 19.70735475409836 4.914156967602732e-05
268 1 53.42083278688525 19.366030163934425 2.066497009809143e-05
269 1 56.26453114754099 19.501903606557377 2.7410375319376225e-05
270 1 58.51596065573771 19.095495081967215 8.981033433735256e-05
271 1 61.09003278688525 18.682068196721314 6.2072257106385645e-06
272 1 63.410636065573776 18.723622950819674 8.386901190311855e-05
273 1 65.90139672131149 18.826727213114758 8.106402482627332e-05
274 1 68.50879344262296 19.280345573770493 1.8548165493244098e-05
275 1 70.74961967213116 19.785667540983606 6.119637866301699e-05
276 1 73.39841967213115 19.74476918032787 7.415422050490194e-05
277 1 76.14214426229508 19.737245901639348 6.7947120249974846e-06
278 1 79.23577704918033 19.456965901639347 4.361671416515912e-05
279 1 81.89820983606558 19.080953442622953 1.462304969487739e-05
280 1 0.6315514754098361 21.459723278688525 1.3378686051930422e-05
281 1 2.692849049180328 23.32176 2.3003246885090977e-05
282 1 5.334913442622951 22.42017836065574 5.378615211473994e-05
283 1 7.94488524590164 22.193217704918034 3.260410091851836e-05
284 1 10.608984262295083 22.576551475409836 2.1572618782592903e-05
285 1 13.323474098360657 21.288000655737704 5.769356922043405e-05
286 1 15.85861704918033 21.564291803278692 3.783793152924986e-05
287 1 18.514940327868853 21.52627147540984 6.206049716824735e-05
288 1 21.552779672131148 21.349600655737706 5.892859951854399e-05
289 1 23.322163934426232 20.216766557377053 5.69141947623031e-05
290 1 26.555002622950823 20.275034098360656 2.754304807352236e-05
291 1 30.01581180327869 21.39797180327869 8.821225419587476e-05
292 1 32.17504327868853 20.732237377049184 6.600552590003626e-05
293 1 36.695927868852465 20.775811803278692 5.1020076630084225e-05
294 1 38.18947540983607 21.185249836065577 6.495059114141165e-05
295 1 40.60732590163934 21.456037377049185 6.747792791592929e-05
296 1 42.81013180327869 22.622902950819675 7.38995663322909e-05
297 1 45.617980983606564 21.63043606557377 7.237329446291078e-05
298 1 48.10076393442623 20.859224262295083 9.799102605353352e-05
299 1 52.956813114754105 21.440081967213118 8.007335261693912e-05
300 1 54.48974426229509 21.51157836065574 4.801214131206932e-07
301 1 58.0776918032787 21.764491803278688 1.3894585729055598e-05
302 1 60.30135081967214 21.14763344262295 5.267659533243475e-06
303 1 61.821154098360665 21.139504262295084 1.753760523096616e-05
304 1 64.12913442622951 21.09810098360656 7.993133174276235e-05
305 1 67.00009836065574 21.339704262295083 1.3078750462575906e-05
306 1 69.49186885245902 22.11333967213115 3.4978941684477573e-06
307 1 72.12299672131148 22.053052459016396 7.606679234718314e-05
308 1 74.73998688524591 21.927630819672135 3.457633199898124e-05
309 1 77.01110819672131 20.998581639344263 1.7843815816892084e-05
310 1 80.76769836065574 21.52243409836066 9.275626315149879e-05
311 1 1.8673686557377052 24.624751475409838 5.659480963096321e-05
312 1 4.487358032786886 25.0228793442623 8.342783106878675e-05
313 1 6.970948852459017 24.621570491803283 5.777002910604235e-06
314 1 9.305235409836067 24.610613770491806 5.289556240714714e-05
315 1 11.515615081967214 23.8347062295082 5.7667770520999444e-05
316 1 14.385367213114757 23.815064918032792 9.692443965670275e-05
317 1 17.49828786885246 23.806329836065576 3.181058956845031e-05
318 1 19.582236065573774 22.619065573770495 9.458343970674699e-06
319 1 23.32802098360656 23.23440918032787 2.449050411922702e-05
320 1 25.659681967213118 23.09732393442623 4.348001909079944e-05
321 1 28.180889180327874 23.30383540983607 9.180279481797752e-05
322 1 31.071292459016398 23.608906885245904 8.984126720223211e-05
323 1 35.004805901639344 23.64399868852459 4.392195077280702e-05
324 1 36.552733114754105 23.67252655737705 4.543254311276935e-05
325 1 39.24505704918033 23.873332459016396 8.09339110668769e-05
326 1 41.91632590163935 23.86545573770492 3.347213339101972e-05
327 1 44.5723462295082 23.963611803278692 9.038594220189133e-05
328 1 47.17535016393443 23.551952131147544 9.597581620664852e-05
329 1 49.842428196721315 23.62132786885246 7.872005549769367e-05
330 1 52.4332131147541 23.947252459016394 1.6499949348166898e-06
331 1 55.180977049180335 24.17648524590164 7.103996976013042e-05
332 1 57.522281967213125 24.304734426229512 6.99868409898452e-05
333 1 60.073632786885256 23.867727868852462 2.854034181848827e-05
334 1 62.891580327868866 23.653945573770493 7.941395444943105e-05
335 1 65.80697704918033 23.154480655737707 7.278909675210722e-05
336 1 67.31415737704918 22.844915409836066 8.785846255411503e-05
337 1 70.87029508196723 24.396124590163936 8.855547043698042e-05
338 1 73.51960000000001 24.302664262295085 1.430044614272996e-06
339 1 76.34007213114755 23.840260327868855 6.207469393660233e-05
340 1 79.14186229508196 23.651774426229508 4.633834534429937e-05
341 1 81.8588262295082 23.8716662295082 3.1179499717901276e-05
342 1 0.2076116918032787 26.383784918032788 2.9965000677299805e-05
343 1 2.3436073442622956 26.085226885245905 3.583855896202214e-05
344 1 5.949550163934427 27.19231016393443 6.848799828769205e-05
345 1 8.351748196721312 27.11717836065574 9.138865586393108e-05
346 1 10.788937049180328 26.68400918032787 3.53721723468846e-05
347 1 13.137462295081967 25.89795278688525 3.875971064370256e-05
348 1 15.457358688524593 24.92654098360656 1.4046526259533154e-05
349 1 19.46565049180328 25.46326885245902 7.55684181648163e-05
350 1 22.07183540983607 25.581672131147542 4.587080617125178e-05
351 1 24.424248524590165 25.749102950819676 8.46333233955225e-05
352 1 26.68128262295082 25.637566557377053 9.660306384306313e-05
353 1 29.30680590163935 25.447060983606562 8.713717501260597e-05
354 1 31.59095409836066 25.078016393442624 6.218909861582758e-05
355 1 34.90649836065574 26.385703606557378 9.179095692725492e-05
356 1 37.7665055737705 26.171163934426232 2.1623595493768255e-05
357 1 41.33430688524591 26.07346229508197 2.687483366181084e-05
358 1 42.87789180327869 26.12299475409836 1.844709914587265e-05
359 1 45.698313442622954 26.011609836065578 5.9874058641248124e-05
360 1 48.39386885245902 25.84715803278689 7.89184441782339e-06
361 1 51.00984918032787 26.070281311475412 3.589029637030214e-05
362 1 53.78942295081968 26.231249180327872 9.920140665514593e-05
363 1 56.311993442622956 26.75676786885246 5.027372217336308e-05
364 1 58.90828196721312 26.454523934426234 6.625520043506001e-05
365 1 61.414190163934435 25.994291147540984 9.462124647575376e-05
366 1 64.03824918032787 26.126074754098365 9.795654736026866e-05
367 1 66.52295081967213 25.989494426229513 7.49630872548108e-05
368 1 69.22880655737706 26.45851278688525 9.394471766991297e-06
369 1 72.33203278688525 26.675173114754102 2.6733207747507117e-05
370 1 75.01062295081968 26.177222950819672 3.5556034988740004e-05
371 1 77.72960655737705 25.923956065573773 6.85642970689344e-05
372 1 80.35164590163936 26.023121967213115 4.21421710930503e-06
373 1 1.6336219016393445 28.84308918032787 9.57851778227444e-05
374 1 4.421920655737705 29.317106229508198 5.129342086915021e-05
375 1 7.200333114754099 29.63818360655738 7.0357808462218e-05
376 1 9.846255081967213 29.331041967213118 9.558648009646167e-05
377 1 12.57296393442623 28.636527213114757 9.179313503197205e-05
378 1 15.150671475409837 27.633760000000002 3.772180865593168e-05
379 1 18.933315409836066 27.575946885245905 8.758762098360284e-06
380 1 20.46816524590164 27.82679016393443 2.124539933795614e-05
381 1 23.04223737704918 28.234763934426233 8.717559260536263e-05
382 1 25.488716721311476 28.33610098360656 8.359210035734603e-05
383 1 28.593609180327874 27.73620786885246 1.4267845341627084e-05
384 1 30.40747672131148 29.22475672131148 7.882997944793085e-05
385 1 33.59754885245902 28.72877573770492 5.70170245763225e-05
386 1 36.21534688524591 28.324992786885247 2.8428142690681326e-05
387 1 38.41734491803279 27.60356590163935 5.5572183660478294e-05
388 1 41.91910295081968 28.87631278688525 2.5091784559047206e-05
389 1 44.584918688524596 28.176243934426235 2.3682574281644033e-05
390 1 47.25164327868853 28.15392655737705 2.4855087846654323e-05
391 1 49.81218360655738 28.238752786885247 8.366976427268614e-05
392 1 52.45997377049181 28.2706131147541 1.1805083538180772e-05
393 1 53.95301639344263 30.06978754098361 5.366632884815193e-05
394 1 57.87774426229509 28.96169442622951 8.756683659085584e-05
395 1 60.37860327868853 28.635012459016398 7.361230001319655e-05
396 1 62.837049180327874 28.372455081967217 8.576835168576426e-05
397 1 65.44091147540985 28.37689836065574 1.875142092829696e-05
398 1 67.89784262295083 28.470106229508197 4.14913482350455e-05
399 1 69.92205901639345 27.875060327868855 7.215797225537874e-05
400 1 73.76297049180329 28.64596918032787 3.5347828978914375e-05
401 1 76.31129180327869 28.26142360655738 6.462734470743434e-05
402 1 78.97978360655738 28.29904 4.084182876692548e-05
403 1 81.54527213114756 28.561950819672134 7.541631700126872e-06
404 1 82.56167213114755 30.85857049180328 8.482976402528175e-05
405 1 2.695323147540984 31.2537193442623 3.086099728967816e-05
406 1 5.841800655737706 31.70945836065574 8.26140593409721e-05
407 1 8.675703606557379 31.850936393442627 8.455204631405781e-05
408 1 11.795945573770494 31.078260327868854 7.669361702357978e-05
409 1 15.99570229508197 30.979801311475413 9.386419881236325e-05
410 1 15.391719344262297 29.582541639344264 2.4327613098434888e-05
411 1 18.586891147540985 30.12972131147541 3.4825868594856927e-06
412 1 21.514355409836067 30.447668196721313 9.825703466908593e-05
413 1 24.55729442622951 30.804089836065575 5.994941648328845e-06
414 1 26.42650098360656 29.575624262295083 4.848921616045365e-06
415 1 29.25474885245902 31.52127540983607 4.772268629871001e-05
416 1 31.45578754098361 30.34017114754099 4.572153848270074e-05
417 1 35.145021639344264 30.796516065573773 9.480933049599255e-05
418 1 37.660725245901645 30.460897049180332 6.24220407102728e-05
419 1 40.01732918032787 29.919473442622955 8.739212326640372e-05
420 1 43.7352931147541 30.63105442622951 9.049805321127928e-05
421 1 46.197879344262304 30.393187540983607 6.745546898326127e-05
422 1 48.67364393442624 30.530929180327874 6.927287120226034e-05
423 1 51.159304918032795 30.53254491803279 1.221584297445616e-05
424 1 55.391527868852464 30.581572459016396 7.910051766674663e-05
425 1 57.20165901639345 31.573685901639347 3.8469250384185764e-05
426 1 59.410170491803285 31.221909508196724 7.787013275085024e-05
427 1 62.120065573770496 30.888916065573774 3.6312307788614165e-06
428 1 65.32982950819672 30.113816393442626 2.5241823650955753e-05
429 1 66.51487213114756 32.07638229508197 4.3746132910485695e-05
430 1 69.31969180327869 30.870183606557383 6.75471202286781e-05
431 1 72.17045901639345 30.763342950819673 8.096889247752228e-05
432 1 75.71346885245902 30.69618885245902 5.367820763879082e-05
433 1 77.23226229508198 30.489323934426235 7.098370806470217e-05
434 1 79.90075409836066 30.77066426229508 8.966565856392627e-05
435 1 1.1230538360655737 33.122673442622954 4.985858992159725e-05
436 1 3.369297836065574 32.64643475409836 3.8271801494532e-05
437 1 6.9707973770491805 33.87484983606558 6.829415140098144e-05
438 1 9.721893770491805 33.01345967213115 1.0889109436022737e-05
439 1 12.533580327868854 33.098184918032786 4.2295880689956726e-05
440 1 14.86609967213115 33.28687278688525 6.596042286868747e-05
441 1 18.391285901639346 32.47203606557377 3.6196540629894616e-05
442 1 19.904272786885247 32.25557770491804 6.722128737535845e-05
443 1 22.264007213114756 31.839373770491807 8.520208013547415e-06
444 1 26.819478688524594 32.511571147540984 3.395869287612328e-05
445 1 28.36579016393443 32.76589836065574 7.638742808715227e-06
446 1 31.007369836065575 33.22188983606558 1.9653810927789894e-05
447 1 33.72251606557377 33.02229573770492 1.0409434866212265e-06
448 1 36.488305573770496 33.02199278688525 7.646134465726914e-05
449 1 39.17401508196722 32.64885836065574 7.138631413899567e-05
450 1 43.125251147540986 32.95115278688525 9.603662313508002e-05
451 1 45.61621377049181 32.80053573770493 1.4697431313218158e-05
452 1 47.14369180327869 32.84123213114754 1.5977826801116026e-05
453 1 49.592493770491814 32.925149508196725 6.702740919847057e-05
454 1 52.38575081967214 32.38185770491804 4.12084832702141e-06
455 1 55.131495081967216 33.437742295081975 9.861367798150633e-06
456 1 58.242295081967214 33.98426557377049 6.283343223272966e-05
457 1 60.74719344262296 33.28227803278689 9.43698310314738e-05
458 1 63.312177049180335 33.09212590163934 2.0803747994570543e-05
459 1 65.9508786885246 33.4957068852459 1.4172778198830338e-06
460 1 67.95994754098362 33.430572459016396 7.976083627389528e-05
461 1 71.48124590163935 32.85794491803279 7.919455842684813e-05
462 1 72.97277377049181 33.29555737704918 2.7798300073662252e-05