# input file

2232 atoms
1 atom types

0.0 82.68810555352132 xlo xhi
0.0 83.16 ylo yhi
-10.0 10.0 zlo zhi
0.0 0.0 0.0 xy xz yz

Masses

1 12.0100 #C

Atoms

1 1 2.0687501639344266 0.918269180327869 6.197638376863128e-05
2 1 4.108760393442624 2.3379876065573773 6.734388764699795e-06
3 1 6.766255081967214 1.3846619672131149 2.6421552297844133e-05
4 1 9.336893770491805 0.9942542950819673 3.682366544213701e-05
5 1 12.133079344262297 0.9190518032786886 4.366394289169479e-05
6 1 14.965820983606559 1.0988884590163934 4.796643468714285e-05
7 1 17.395234098360657 1.1254118032786886 5.1402576046845587e-05
8 1 20.12441704918033 0.995153049180328 3.077489015846768e-05
9 1 22.884652459016397 0.8976129836065575 4.955477071478749e-05
10 1 25.455291147540986 0.4273924131147541 1.7222121440173332e-05
11 1 28.159985573770495 0.24972690491803282 4.3540777917432876e-05
12 1 30.73193704918033 0.14851608524590165 8.344561138815366e-06
13 1 33.41880786885246 0.12384579016393443 6.258486845716992e-05
14 1 36.143396065573775 0.5199140983606558 7.04730240113665e-05
15 1 38.719235409836074 0.5290379672131148 9.7776925683992e-05
16 1 41.532083278688525 0.4453740590163935 8.352220867314515e-05
17 1 44.326905573770496 0.5259832131147542 6.081075780094107e-05
18 1 47.032003934426236 0.6824270163934427 4.123168101128416e-06
19 1 49.62278885245902 0.7412045245901641 8.891886734591244e-05
20 1 52.24184918032787 0.667208786885246 4.4255018466154565e-05
21 1 54.91084590163935 0.41597015737704923 5.271356378111325e-06
22 1 57.73131803278689 0.3970508786885246 7.348329845968301e-05
23 1 61.374806557377056 0.3754242295081967 7.577689649582483e-05
24 1 62.9516655737705 0.4923425442622951 5.855194936397712e-06
25 1 65.78829508196722 0.49239000655737714 9.068395272480734e-05
26 1 68.19422950819673 1.7286272786885246 7.156064225231825e-05
27 1 71.16062295081969 1.0551272131147542 8.300038008863077e-05
28 1 73.78266229508196 1.1704302950819674 3.757570932988361e-05
29 1 76.66271475409836 1.140640131147541 7.567334222356929e-05
30 1 79.44632786885246 1.5705828852459018 1.268757955741332e-05
31 1 82.0552393442623 1.5584194098360657 6.736773435102986e-05
32 1 0.8009514754098361 3.4719224262295088 2.0284467244553996e-05
33 1 3.428211672131148 3.7158937704918036 1.764259269526497e-05
34 1 5.856998688524591 3.930776786885246 5.6504799164211566e-05
35 1 8.238444590163937 3.5445498360655745 7.152928244953534e-05
36 1 10.649579672131148 3.1288104262295087 8.003163301434158e-05
37 1 13.522159344262295 3.1451596721311477 7.356424404769265e-05
38 1 16.42311540983607 3.6755558688524594 5.341467967427894e-05
39 1 19.04308459016394 3.289293573770492 3.303354645958607e-05
40 1 21.816094426229512 3.1253517377049183 6.821121991392327e-05
41 1 24.5855193442623 2.975880852459017 2.796223475792116e-05
42 1 27.158783606557378 2.5499219016393444 5.1197341634499496e-05
43 1 29.833132459016394 2.525236459016394 3.444712999803093e-05
44 1 32.2694124590164 2.37122131147541 4.907503645040966e-05
45 1 34.55997311475411 3.5476197377049186 2.330344441273703e-05
46 1 37.420081311475414 2.9470146885245905 8.085035036747349e-05
47 1 40.113112131147545 2.6441547540983605 6.847057792504952e-05
48 1 42.88041639344263 2.6674163278688527 3.762119438320365e-05
49 1 45.62111147540984 2.893094491803279 8.44553736640291e-05
50 1 48.36670426229509 3.1295072131147545 2.084203507657766e-05
51 1 50.94471475409837 3.0984295081967215 9.081235370278726e-05
52 1 53.71974426229509 2.868070754098361 6.435261425663473e-05
53 1 56.372078688524596 2.56680131147541 6.340561685362574e-05
54 1 58.69217704918033 3.9175479344262296 1.0161492098080405e-05
55 1 61.41873442622952 2.8715142950819676 5.260595473515509e-05
56 1 64.36644590163935 2.7584631475409838 8.143450718594834e-05
57 1 67.25861639344262 2.9751386229508197 2.163287858965779e-05
58 1 69.87005245901639 3.3097225573770497 8.839521266590069e-05
59 1 72.51026885245902 3.4483730491803284 5.896404261205901e-05
60 1 75.14139672131148 3.2118189508196724 1.2719819661792532e-05
61 1 77.86997377049181 3.586341901639345 7.894907505366725e-05
62 1 80.78890491803278 3.9288984918032788 8.0062908260127e-05
63 1 1.8611531147540985 5.904511475409837 7.799655328570972e-05
64 1 4.558430295081967 6.261942950819672 5.3419837580758593e-05
65 1 7.124999344262296 6.205291147540984 6.880672088894089e-05
66 1 9.60121836065574 5.78696655737705 8.388949507937997e-05
67 1 12.155497704918034 5.14476131147541 6.433773869326689e-05
68 1 14.35673836065574 4.431655475409836 8.136562070864471e-05
69 1 18.03148131147541 5.779847213114755 3.002110512546322e-05
70 1 20.634283278688525 5.377680000000001 1.2050029055047041e-06
71 1 23.343269508196723 5.251753442622951 3.510996526844691e-05
72 1 26.92919737704918 4.809117049180328 5.90701903945073e-05
73 1 28.469298360655742 4.803058032786885 5.978680279085936e-05
74 1 31.107848524590164 4.93740662295082 5.5413200184050685e-05
75 1 33.89388524590164 4.925697573770492 1.5085634214483824e-05
76 1 36.06927409836066 6.500920655737706 2.054237833006989e-06
77 1 39.673429508196726 4.85403455737705 4.2589254242384146e-05
78 1 41.21529770491804 4.818877114754098 7.774166430810645e-05
79 1 43.83991213114754 4.969842557377049 1.0336052194238866e-05
80 1 46.633219672131155 5.238979016393443 5.623051432234502e-05
81 1 49.78067672131148 5.593582950819673 7.857744675922536e-05
82 1 52.501881967213116 5.220297049180329 7.264906658852724e-05
83 1 55.24257704918033 5.060288524590165 8.307888209907441e-05
84 1 57.910563934426236 5.23872655737705 1.9020561396820003e-05
85 1 60.573501639344265 5.331227540983607 8.646294361353732e-05
86 1 63.15211803278689 4.943223278688525 9.392711353507972e-05
87 1 65.72669508196722 5.049432786885247 1.446290985101253e-05
88 1 68.36691147540984 5.458618360655739 4.607978907301925e-05
89 1 71.13487213114755 5.700676065573771 5.659609986172705e-05
90 1 74.67182295081969 5.4253442622950825 3.4931547884777695e-05
91 1 76.19869508196723 5.540465573770493 3.9590839868166074e-05
92 1 78.37337704918033 5.057561967213116 3.849831896768058e-05
93 1 82.0017180327869 5.899815737704919 8.594324824098921e-06
94 1 0.2751197377049181 8.261418360655737 6.982065581027827e-05
95 1 2.986847672131148 8.298782295081969 8.190023010155611e-05
96 1 5.7401101639344265 8.624100983606558 1.626464869241171e-05
97 1 8.582899672131148 8.413701639344263 5.171520212361126e-05
98 1 12.209978360655738 7.208664262295082 5.613999090350063e-05
99 1 13.734426885245902 7.231688524590164 8.356768035890238e-05
100 1 15.772225573770495 6.690012459016394 5.736352653851727e-05
101 1 19.312862295081967 7.860765901639345 4.2517554831903714e-05
102 1 21.689612459016395 7.529741639344263 4.798533671015563e-05
103 1 24.413544262295087 7.41896262295082 7.466232708447467e-05
104 1 26.977518032786886 7.526358688524591 7.414011247059143e-05
105 1 29.60309180327869 7.24113049180328 4.00073477651384e-05
106 1 32.37292065573771 7.176955409836066 1.5580924635627016e-05
107 1 35.071960000000004 7.6645042622950825 2.6998101354826633e-05
108 1 37.501726557377054 8.143368524590164 7.102116340508772e-05
109 1 39.884485245901644 7.580435409836066 7.108888536843886e-05
110 1 42.487994098360666 7.248148852459018 4.394783404523266e-05
111 1 45.0822124590164 7.239716721311476 1.9250587678681587e-05
112 1 47.41902360655738 6.562419672131148 4.2509413425303536e-05
113 1 51.36480655737705 7.6493567213114755 2.6453054944368905e-05
114 1 54.00704262295083 7.38972786885246 3.735157804279008e-05
115 1 56.593737704918034 7.481774426229509 6.197321976581127e-06
116 1 59.233954098360655 7.536860983606558 6.414827629149665e-05
117 1 61.882249180327875 7.463092459016393 6.737355261048022e-05
118 1 64.34978360655738 7.4100255737704925 6.79495818867778e-06
119 1 66.8976 7.5678629508196735 2.39328747477785e-09
120 1 69.48177049180329 7.76932524590164 5.683199559782555e-05
121 1 72.13460983606558 8.07843606557377 9.393480990977005e-05
122 1 74.83794098360656 8.018956721311476 3.9837925479149864e-05
123 1 77.57863606557378 7.9223659016393455 3.1361649024464347e-05
124 1 80.31327213114756 8.090705573770494 9.665030431581019e-05
125 1 1.7346459016393445 10.526985573770492 1.830432818060428e-05
126 1 4.421693442622952 11.43689836065574 6.553599453540207e-05
127 1 7.271476065573772 10.712593442622952 5.964772764128962e-05
128 1 10.928344918032787 10.125020327868855 3.4028432940022727e-05
129 1 12.42436655737705 9.86185704918033 5.7010048369326805e-05
130 1 15.053777704918033 9.704575081967214 7.565662224209803e-05
131 1 17.756452459016398 10.03660918032787 5.98932856645496e-05
132 1 20.56712918032787 10.17525967213115 6.881400471813073e-05
133 1 23.30807672131148 9.627070163934428 2.126689682746541e-05
134 1 25.711739016393448 10.813021639344264 8.986597450765422e-06
135 1 28.400326557377053 9.772032131147542 1.3450425292980095e-05
136 1 30.98959672131148 9.435453770491804 4.436659054224112e-06
137 1 33.598306229508204 9.655295081967214 2.0095066330406665e-05
138 1 36.09936721311476 10.283615081967215 6.504914826572955e-05
139 1 38.811534426229514 10.253673442622953 1.6361636676709423e-06
140 1 41.3871718032787 9.744312131147542 7.874363059024392e-05
141 1 44.00148590163935 9.581728524590165 1.5253339133525357e-05
142 1 46.671088524590175 9.318817704918033 7.18618938581939e-05
143 1 48.99108590163935 8.489742295081967 5.196314784248698e-05
144 1 52.59529180327869 9.800105573770495 7.611837418186246e-05
145 1 54.97244590163935 9.784301639344264 5.1745267389856025e-05
146 1 58.68005901639345 9.628685901639345 5.825978650817465e-08
147 1 60.223593442622956 9.743756721311476 7.20770260651074e-05
148 1 62.8511868852459 9.874227540983608 1.6706855136182752e-06
149 1 65.51967868852459 9.891546229508197 7.503510350674995e-05
150 1 68.14676721311477 10.0370131147541 4.454973790089831e-05
151 1 70.72689836065574 10.187781639344262 5.6112886874028224e-05
152 1 73.481731147541 10.270487213114755 9.474351835576223e-06
153 1 76.16940983606558 10.28952262295082 8.8175965041097e-05
154 1 78.89495737704918 10.32956262295082 5.19118216398856e-05
155 1 81.66796721311476 10.533448524590165 2.80482848724951e-05
156 1 0.17933375737704918 12.868189508196723 3.1177970458406455e-05
157 1 4.225749901639345 12.946906229508198 7.646353159108235e-05
158 1 5.753187540983607 13.024815081967214 2.8848648972473436e-05
159 1 9.29857049180328 12.868542950819673 2.8144602939774168e-05
160 1 10.823877377049183 12.70459606557377 9.91983597697627e-05
161 1 13.605672786885247 12.212401967213117 5.0290109034848534e-05
162 1 16.278809836065573 12.23880918032787 2.7735403524171256e-05
163 1 19.012234098360658 12.356707540983608 1.5956789691981334e-06
164 1 23.065766557377053 11.736415737704919 7.235727126048194e-05
165 1 24.61460262295082 11.884760655737706 8.248106967466132e-05
166 1 27.118642622950823 12.358777704918035 8.372901687265666e-05
167 1 30.518457704918035 11.790643934426232 8.984299564718529e-05
168 1 32.057397377049185 11.856636721311476 6.43952964078331e-05
169 1 34.63747803278689 12.308386885245902 8.701157120434001e-05
170 1 37.397410491803285 12.496670819672133 3.787314354029527e-05
171 1 40.13936786885246 12.301318032786886 2.8657348635867175e-05
172 1 42.8075062295082 11.999579016393444 4.741916994337803e-05
173 1 45.506596065573774 11.739546229508198 2.9842688304236276e-05
174 1 48.174633442622955 11.38448786885246 9.874419301809436e-05
175 1 50.92451803278689 11.825079344262296 7.076495959074785e-05
176 1 53.57937704918033 12.299550819672133 9.575724919712202e-05
177 1 55.993390163934436 12.312729180327871 2.389260441627025e-05
178 1 58.61896393442624 13.29994491803279 7.649879134380668e-05
179 1 61.417219672131154 12.181299016393444 3.675892059493167e-05
180 1 64.16144918032788 12.196446557377051 1.8708444941225246e-05
181 1 66.87841311475411 12.303388196721313 5.636854598424374e-05
182 1 69.61658360655738 12.463548196721312 9.726555971351234e-05
183 1 72.35879344262295 12.383720655737706 6.358602720444825e-05
184 1 74.65819016393444 13.651620327868853 6.212724562111718e-05
185 1 77.45745573770493 12.632897704918035 6.175418720456888e-05
186 1 80.20471475409838 12.705504918032787 2.4160796515421524e-05
187 1 1.1061289836065575 15.286292459016394 4.697125544406077e-05
188 1 3.762669377049181 15.21716918032787 9.422466289837421e-05
189 1 6.718893770491804 15.598836721311477 8.195360192056506e-05
190 1 9.425153442622952 15.163849836065575 7.88429324420307e-05
191 1 12.243353442622952 14.691095081967214 2.7410045073008395e-05
192 1 14.805862950819673 14.617427540983607 6.878661925436814e-06
193 1 17.438707540983607 14.638735081967214 4.9233601503440475e-05
194 1 21.008528524590165 14.37678360655738 5.172909932141987e-05
195 1 22.531209836065575 14.257875409836068 5.7839014503603864e-05
196 1 25.309874754098363 14.457469508196722 6.89437092696812e-05
197 1 27.98997967213115 14.761682622950822 4.9670824776487244e-05
198 1 30.56748524590164 14.559462950819674 9.42222375231837e-05
199 1 33.294244590163935 14.439443934426231 6.15256411808667e-05
200 1 36.03408131147542 14.616468196721312 2.154868649903651e-05
201 1 38.787500327868855 14.622224262295083 6.0068550061650245e-06
202 1 41.4745731147541 14.426871475409838 5.42709549424769e-05
203 1 44.194213114754106 14.137099016393444 4.019215406800365e-05
204 1 46.75192590163935 13.87888393442623 7.554144117855717e-05
205 1 49.30448852459017 13.83005836065574 6.635211349478336e-05
206 1 52.0176655737705 14.375420327868854 2.4464259880280637e-05
207 1 55.05727213114755 14.801116721311477 4.861405136963516e-05
208 1 57.79998688524591 14.605259016393443 6.157398838334391e-05
209 1 60.3720393442623 14.595514098360658 1.3967619619164262e-06
210 1 62.91935081967214 14.440807213114756 3.0683790743519604e-05
211 1 65.50907540983607 14.522099016393444 2.4579177367365603e-05
212 1 68.2336131147541 14.635907540983608 4.304493132927201e-05
213 1 71.00106885245903 14.697255081967215 6.377445345166867e-05
214 1 73.81699672131148 14.951531803278689 7.547217185474086e-05
215 1 76.28554098360657 15.086546885245903 5.451804028243016e-05
216 1 78.79346885245901 14.940070163934427 9.59837581266725e-05
217 1 81.1771868852459 15.152842622950821 4.426624612190073e-05
218 1 82.4364524590164 17.573621639344267 7.699736801312023e-05
219 1 2.5063171803278688 17.535853770491805 6.596395291620737e-05
220 1 5.174955409836066 17.36928131147541 1.525521135570236e-05
221 1 9.246462950819673 17.202405901639345 1.4007945078311469e-05
222 1 10.790906229508199 17.054616393442625 1.9258221878477865e-05
223 1 13.370582950819673 17.11030885245902 3.618788961748761e-05
224 1 16.004386885245903 17.02013049180328 8.155609688424282e-05
225 1 18.658993442622954 17.19907344262295 5.816484687275878e-05
226 1 21.132637377049182 16.770751475409835 1.1453444725623818e-05
227 1 23.941092459016396 16.57272262295082 8.550181820175185e-06
228 1 26.620793442622954 16.87062426229508 3.745686693207587e-05
229 1 29.381180327868854 17.001549508196725 2.802244798148149e-05
230 1 32.05376196721312 16.763581639344263 9.200517411682198e-05
231 1 34.74492459016394 16.775800655737708 6.212862672027897e-05
232 1 37.50071672131148 16.854769836065575 5.3369457532760344e-06
233 1 40.178953442622955 16.811346885245904 5.579876183344116e-05
234 1 42.899603278688524 16.507133770491805 2.2851158022282405e-05
235 1 45.423385573770496 16.402060327868853 1.8446181505923233e-05
236 1 47.903088524590174 16.253109508196722 3.28004472314416e-05
237 1 50.54128524590164 16.280829508196724 8.324848149269392e-06
238 1 52.747777049180335 15.750463606557378 3.7163706598575045e-06
239 1 56.29987540983607 16.934445901639346 4.927676115291981e-05
240 1 58.922419672131156 16.921065573770495 5.767232716660105e-05
241 1 61.54849836065574 16.881025573770494 9.563423671906938e-05
242 1 64.02815081967213 16.843358688524592 2.269977355447417e-05
243 1 66.66786229508197 16.827807213114756 1.690159519028619e-05
244 1 69.48934426229509 16.90036393442623 9.5873514141121e-06
245 1 72.18156721311476 17.000388196721314 1.0737946940283738e-05
246 1 75.06313442622951 17.45249180327869 5.313412895558507e-05
247 1 77.65487868852459 17.413259672131147 2.9260349515617723e-05
248 1 79.73564590163936 18.933820327868855 7.772325750442282e-05
249 1 1.6234831475409837 19.68857180327869 1.1215621424813761e-05
250 1 4.114986032786886 19.70927344262295 6.677871277909253e-06
251 1 6.490923278688525 19.59031475409836 4.461701821439262e-05
252 1 9.021824918032786 20.766167868852463 1.928506416762177e-05
253 1 11.753431475409837 19.522049836065577 7.502142780774879e-06
254 1 14.879025573770493 19.44954360655738 4.050981456632058e-05
255 1 17.566502295081968 19.40364655737705 7.053050128678051e-06
256 1 21.030139016393445 19.030714098360658 1.2245372384651666e-05
257 1 22.553931147540986 18.816881311475413 2.410945899902348e-05
258 1 25.239590163934427 19.003902950819672 4.206052626866183e-05
259 1 28.059961311475416 19.145481967213115 4.778067515267289e-05
260 1 30.828881311475413 19.173302950819675 6.079516514883277e-06
261 1 33.4343593442623 19.06302885245902 6.026107708014995e-05
262 1 36.17924524590164 19.04788131147541 2.2570665297836434e-05
263 1 38.8395068852459 19.14881442622951 7.75096648292033e-06
264 1 42.26845573770492 18.732459016393445 6.112419445726386e-05
265 1 43.79653967213115 18.8228393442623 8.953160629270024e-05
266 1 46.70567540983607 18.782748852459015 1.1695317774432213e-05
267 1 49.38805245901639 18.555636721311476 2.2169044433748697e-05
268 1 51.93940327868853 18.576085901639345 7.251712586078249e-05
269 1 54.495298360655745 19.084184918032786 6.639571820990046e-05
270 1 58.240780327868855 19.11917573770492 8.874155951806385e-05
271 1 59.787344262295086 19.13189967213115 9.591683029471638e-05
272 1 62.4356393442623 19.268328524590164 5.1067178511713364e-05
273 1 64.96022950819673 19.12225573770492 8.804725582439526e-05
274 1 67.66255081967213 18.958914754098362 7.224241903066691e-05
275 1 70.686 19.260148852459018 8.406344206328336e-05
276 1 73.38428196721313 19.24727344262295 9.576294824553313e-05
277 1 76.16739016393443 19.858224262295085 4.359701205373528e-05
278 1 79.3256524590164 20.481798032786887 4.520673013617927e-05
279 1 81.87801311475411 19.928963278688528 7.737993014098887e-06
280 1 0.7408157377049182 22.198771803278692 5.515149747653225e-05
281 1 3.13830793442623 22.080116065573772 7.831114862450001e-05
282 1 5.6655337704918045 22.090062950819675 4.44064526857243e-06
283 1 8.350334426229509 22.141918032786887 2.4111903478745722e-05
284 1 10.595502950819673 21.98286885245902 3.5234745967318415e-05
285 1 12.607954754098364 20.81464 5.5909893264237714e-05
286 1 16.21014098360656 21.68986491803279 3.656991464016365e-05
287 1 18.618801967213116 21.902889836065576 4.1990693788470457e-05
288 1 21.10264524590164 21.667800000000003 3.590869696986261e-05
289 1 23.88772262295082 21.20928393442623 6.831778666421384e-05
290 1 26.72415016393443 21.230490491803284 8.351511712710737e-05
291 1 29.577744918032792 21.376260327868856 8.644359508141524e-05
292 1 32.30839213114754 21.483605901639343 9.231221118717923e-05
293 1 34.88473639344263 21.276488524590167 9.576541304037697e-05
294 1 37.51293573770492 21.411604590163936 3.327088020165917e-05
295 1 39.94467147540984 21.700619672131147 4.987954655602194e-05
296 1 42.29562032786886 21.38070360655738 3.950608342610821e-05
297 1 44.416326557377054 20.242921311475413 3.4307512565667e-05
298 1 48.153477377049185 20.900021639344263 4.1790358381792204e-05
299 1 50.59278688524591 20.957380327868854 9.475302644849119e-05
300 1 52.47815081967214 22.49990491803279 3.5333976802060484e-05
301 1 55.33295737704918 21.664921967213118 7.669143969926673e-05
302 1 58.029724590163944 21.55883868852459 1.7925530136449776e-05
303 1 60.89412459016394 21.527533770491804 3.367874552088293e-05
304 1 63.63179016393443 21.616500327868856 9.994878987417419e-05
305 1 67.013731147541 21.10315016393443 3.386361012031722e-05
306 1 68.3224786885246 20.326687213114756 7.289388847347966e-05
307 1 71.69381639344263 21.44962491803279 5.301224297747346e-05
308 1 74.14064918032787 21.51975803278689 7.733603264362151e-05
309 1 76.59808524590166 21.3638393442623 9.379080934434013e-05
310 1 80.93634098360656 22.44638360655738 8.334502925721259e-05
311 1 1.8379824262295084 24.585620327868856 8.846593736261459e-05
312 1 4.3198969180327875 24.46024918032787 4.478722775215929e-05
313 1 6.928232786885247 24.37436262295082 3.74985858521613e-05
314 1 9.436716065573771 24.61929836065574 3.7216033864019164e-05
315 1 12.043506885245902 23.804865573770496 5.664605951222397e-05
316 1 14.7062931147541 23.772449836065576 9.036710950203974e-05
317 1 17.245273442622953 24.259594754098362 4.8276655836214536e-05
318 1 19.930175081967214 24.190521967213115 9.873914664623496e-06
319 1 22.67001180327869 23.588457704918035 5.740294794287227e-05
320 1 25.43044918032787 23.35644786885246 5.456005870681662e-05
321 1 28.196188196721312 23.42072393442623 6.23699672918836e-05
322 1 31.015297049180333 23.70307409836066 1.1680120828434848e-05
323 1 34.45969639344262 23.55553704918033 3.5446125520314987e-05
324 1 36.00479606557377 23.641171147540987 9.95416336218237e-05
325 1 38.68626426229508 24.009205901639348 1.8665758645584164e-05
326 1 41.50385836065574 24.007539672131152 3.226782281795263e-05
327 1 44.16230229508197 23.18563409836066 4.068995318921159e-05
328 1 46.84058950819672 22.984222295081967 1.9660665629958864e-05
329 1 48.81774754098361 24.66282229508197 4.994149930542816e-05
330 1 51.65967868852459 23.851065573770494 7.68559229024006e-05
331 1 54.23980983606558 24.009963278688527 2.3446166165687853e-05
332 1 56.96131803278689 23.856922622950822 1.789784693087444e-05
333 1 59.65404590163935 23.705144262295086 9.870145930372709e-06
334 1 62.21700983606558 23.84818754098361 1.3333749269317464e-05
335 1 64.70373114754099 24.057324590163937 3.138186068959155e-05
336 1 67.25306229508197 23.803350819672133 7.702126187400252e-05
337 1 70.04374426229509 23.554476721311477 6.437584417553501e-05
338 1 72.73192786885247 23.893226229508198 1.1883056398216097e-05
339 1 75.46252459016395 23.84187606557377 6.37326030672574e-05
340 1 78.85456393442624 22.012356065573773 4.320481727615949e-05
341 1 81.8199475409836 24.609099016393444 1.8297636633679437e-05
342 1 0.4418512459016394 26.817156065573773 2.6953018931437724e-05
343 1 3.1484012459016397 26.939245245901645 3.61599429863001e-05
344 1 5.70572524590164 26.731572459016395 3.612990944372471e-05
345 1 7.745089180327869 28.115401311475413 5.631438984447591e-05
346 1 11.478352131147542 26.32829442622951 3.7719708478513394e-05
347 1 12.978817049180329 26.023929836065577 6.591737010211374e-06
348 1 15.497903606557378 26.364951475409836 7.350785642872785e-05
349 1 18.5617462295082 26.520668196721317 8.814417629257498e-05
350 1 21.727430819672133 26.006257704918035 5.319596219890559e-05
351 1 24.378957377049183 25.63696065573771 9.669750887166116e-05
352 1 26.85537836065574 25.583994754098363 7.473227858705478e-05
353 1 29.435257049180333 25.681342950819676 1.923311736548654e-05
354 1 31.947577704918036 26.281841967213115 9.197142467263296e-05
355 1 34.399712131147545 26.260685901639345 3.187841109759069e-05
356 1 37.179386885245904 26.135062295081973 2.762553245379208e-05
357 1 40.00622098360656 26.224129836065575 4.6731172751309694e-05
358 1 43.83425704918033 25.599748196721315 9.67059468178287e-05
359 1 45.385365245901646 25.428076065573773 8.905835121083936e-05
360 1 47.996346885245906 26.011205901639347 8.780349468144507e-05
361 1 50.33113836065574 26.318398032786888 8.688724097957036e-05
362 1 52.928032786885254 26.278761967213118 4.454446476822511e-05
363 1 55.726793442622956 26.142434098360656 9.027126375329709e-05
364 1 58.444767213114766 26.040137704918035 4.0857950229457584e-05
365 1 61.0728655737705 26.16808393442623 2.3697271113477525e-06
366 1 63.51414426229508 26.38408786885246 1.5372230922717256e-05
367 1 66.07862295081968 26.291738360655742 1.8450710801658778e-05
368 1 68.83749508196722 25.88154295081967 8.059203284688834e-05
369 1 71.49588852459017 25.983485901639348 9.784575768365838e-05
370 1 74.16640000000001 26.08138950819672 6.892995893474867e-05
371 1 76.97475409836066 25.760110163934428 6.946650131877369e-05
372 1 80.32539016393444 26.326224262295085 7.449553206783675e-05
373 1 1.6265429508196723 29.12195540983607 6.932528861136226e-05
374 1 4.288905049180329 29.22819016393443 6.085647931032571e-05
375 1 6.863300327868854 29.389662950819677 6.770736716360847e-05
376 1 9.272718688524591 29.664489836065577 6.72917011667755e-05
377 1 11.608318032786887 28.963158688524594 9.282835178449437e-05
378 1 14.174866885245903 28.566899016393446 4.955113392832457e-05
379 1 16.156417704918034 27.75423344262295 7.5322883746672e-05
380 1 19.54623540983607 27.678293770491806 5.5936629821998165e-05
381 1 23.221634754098364 28.048802622950824 8.71290783770464e-05
382 1 25.795605901639348 28.02274885245902 1.982351776755975e-06
383 1 28.257889180327872 27.957361967213117 3.1622950720458614e-05
384 1 30.43555016393443 29.480952131147543 6.640334632386047e-06
385 1 33.20936786885246 28.727917377049184 1.5886634383824094e-06
386 1 35.77743147540984 28.445668196721314 5.396669197893722e-07
387 1 38.404570491803284 28.377302295081968 1.2911632598807277e-05
388 1 41.08386754098361 28.464047213114757 3.983277140341175e-05
389 1 43.60275213114755 28.27066360655738 5.740642477852357e-05
390 1 46.28290754098361 28.104242622950824 1.905673781678119e-06
391 1 48.82915868852459 28.70958885245902 2.1548943209958438e-05
392 1 51.77833442622951 28.644403934426233 2.300404425819802e-06
393 1 54.55134426229509 28.334283278688527 4.874090611817365e-05
394 1 57.212767213114766 28.313430163934427 9.951397587141409e-06
395 1 59.75351475409837 28.417594754098364 9.388308984829674e-05
396 1 62.280629508196725 28.766038688524592 7.573820545486937e-05
397 1 64.89156065573772 28.738217704918036 6.871889666838044e-05
398 1 67.5792393442623 28.248093770491806 4.3701777681031585e-05
399 1 70.33861639344262 28.234662950819676 4.731250627569422e-05
400 1 72.90561967213115 28.33998885245902 3.158499193604246e-05
401 1 75.54179672131148 28.06778754098361 7.19094324855623e-05
402 1 77.83866885245902 27.067645901639345 8.065770298117045e-05
403 1 81.58667540983608 28.66596393442623 8.083048380259996e-05
404 1 82.66063606557378 31.085834098360657 3.6970182856008615e-05
405 1 2.71819593442623 31.48391147540984 1.8800931693120094e-05
406 1 5.331782950819672 31.69951147540984 8.845838904409193e-05
407 1 7.958366557377049 31.957575081967217 7.455391426594095e-05
408 1 10.762832786885246 31.693906885245905 7.9657238800676e-05
409 1 13.356394754098362 31.064930491803285 5.669355654262648e-05
410 1 16.00181180327869 30.6699331147541 7.087883843805451e-05
411 1 18.720088524590164 30.463724590163938 7.162429939919022e-05
412 1 21.481687213114757 30.130327213114754 3.813937707961025e-05
413 1 24.275752131147545 30.35006754098361 6.184128160066536e-05
414 1 26.887390163934427 30.426512131147543 7.770684370325188e-05
415 1 29.529070819672135 30.71608262295082 5.7687674090981126e-05
416 1 32.1199062295082 31.145666885245905 2.5757713192855993e-05
417 1 34.55628721311476 30.978690491803285 8.684611556482124e-05
418 1 37.001958688524596 30.766826885245905 8.427913841978361e-05
419 1 39.77405967213115 30.704368524590166 1.6773690124970432e-05
420 1 42.356917377049186 30.76223213114754 7.78947379616088e-05
421 1 45.005767868852466 30.539512786885247 4.499055916318631e-05
422 1 47.5732255737705 30.757839344262297 1.12032826162766e-05
423 1 49.52210819672131 30.104626885245903 9.990559459282827e-05
424 1 53.35620327868853 30.603990819672134 3.357163019782217e-05
425 1 56.04994098360656 30.5775331147541 3.496221178021456e-05
426 1 58.576550819672136 30.73198754098361 5.102587150230419e-05
427 1 60.781527868852464 32.17054950819672 7.723447638603122e-05
428 1 63.598970491803286 31.158845245901645 6.505895866161202e-05
429 1 67.20862950819674 30.48281049180328 3.422416607156122e-05
430 1 68.7456 30.409445901639348 5.260825842011613e-05
431 1 71.49033442622951 30.684070819672137 3.254011884361848e-05
432 1 74.55771147540985 30.51058098360656 2.035711188498609e-05
433 1 77.30749508196722 29.89963016393443 7.569703185406789e-05
434 1 79.92650491803279 30.42631016393443 9.892176343167717e-05
435 1 1.0733396065573773 33.499897704918034 2.376903928898926e-05
436 1 3.743482491803279 33.95508131147541 9.255963254543921e-05
437 1 6.836943606557377 34.13604393442623 3.090055915064727e-05
438 1 9.614043278688525 33.932208524590166 6.015980290953334e-05
439 1 12.272234754098362 33.640113442622955 2.16759328831749e-05
440 1 14.840904262295084 33.17175147540984 4.292137666195989e-05
441 1 17.450472131147542 32.863196065573774 8.629226658078102e-05
442 1 20.972780327868854 32.27824852459017 3.984025808244407e-06
443 1 22.508942950819673 32.33737442622951 6.176652923309434e-05
444 1 25.220655737704924 32.68561639344262 6.588128934481689e-05
445 1 27.766351475409838 32.83466819672132 7.86341072039758e-05
446 1 30.332950819672135 33.16372327868853 9.850400510494008e-06
447 1 33.13620524590164 33.5175193442623 3.015882471343011e-05
448 1 35.7727862295082 33.3611462295082 4.452821190424128e-06
449 1 38.444963934426234 32.91131475409836 9.688500022581865e-05
450 1 40.99464852459017 33.11272655737705 3.829270963342058e-06
451 1 43.543171803278696 32.95943344262295 1.624065096779117e-05
452 1 46.274323934426235 33.04940983606558 4.821620481291007e-05
453 1 49.44778426229509 33.070666885245906 5.492240445965022e-05
454 1 52.115114754098364 32.74762032786885 5.8781683838857304e-05
455 1 54.873986885245905 32.80477704918033 9.768332618730543e-05
456 1 57.02493770491804 34.23334163934427 8.207062344227916e-05
457 1 59.94992786885246 33.4912131147541 5.3720761369041083e-05
458 1 62.47148852459017 33.60492065573771 6.565674985732534e-05
459 1 65.01021639344262 33.449001967213114 4.311996221774521e-05
460 1 67.48179016393443 33.03825114754099 3.762453509507161e-05
461 1 70.2320786885246 32.74615606557377 2.667654429139127e-05