# input file

1350 atoms
2 atom types

0.0 78.6562165345 xlo xhi
0.0 81.9003812477 ylo yhi
-10.0 10.0 zlo zhi
0.0 0.0 0.0 xy xz yz

Masses

1 28.0855 #Si
2 15.9994 #O

Atoms

1 1 5.37206604411 81.8477906239 0.0
2 1 8.38911604411 81.5583906239 0.0
3 1 13.9224460441 81.8180906239 0.0
4 1 18.8824460441 2.45391062387 0.0
5 1 24.0281460441 1.20158062387 0.0
6 1 28.8980460441 1.16429062387 0.0
7 1 34.1446460441 0.39261062387 0.0
8 1 38.3019460441 3.24765062387 0.0
9 1 43.0710460441 4.14829062387 0.0
10 1 48.7178460441 2.45454062387 0.0
11 1 54.4697460441 3.05933062387 0.0
12 1 61.6548460441 2.95424062387 0.0
13 1 66.8736460441 3.98658062387 0.0
14 1 71.9770460441 1.75547062387 0.0
15 1 76.8151460441 1.06308062387 0.0
16 1 1.01907604411 5.71509062387 0.0
17 1 6.47742604411 7.02778062387 0.0
18 1 11.4956460441 4.02886062387 0.0
19 1 17.0548460441 4.82438062387 0.0
20 1 22.2383460441 6.21591062387 0.0
21 1 28.2509460441 5.33754062387 0.0
22 1 30.6660460441 3.57563062387 0.0
23 1 36.0258460441 8.21990062387 0.0
24 1 41.4602460441 6.70920062387 0.0
25 1 46.5974460441 6.89822062387 0.0
26 1 51.8601460441 6.61989062387 0.0
27 1 56.6725460441 5.12709062387 0.0
28 1 67.4069460441 6.93485062387 0.0
29 1 70.4000460441 6.85032062387 0.0
30 1 74.9191460441 6.17173062387 0.0
31 1 7.04283604411 9.97389062387 0.0
32 1 9.89694604411 9.07785062387 0.0
33 1 14.2773460441 8.52881062387 0.0
34 1 18.5076460441 11.6994906239 0.0
35 1 24.4531460441 11.2507906239 0.0
36 1 29.1435460441 10.7905906239 0.0
37 1 34.5096460441 10.8477906239 0.0
38 1 38.8580460441 11.5207906239 0.0
39 1 43.6432460441 11.3173906239 0.0
40 1 49.0740460441 11.1672906239 0.0
41 1 55.3251460441 10.3983906239 0.0
42 1 59.9508460441 8.35442062387 0.0
43 1 66.3074460441 12.2330906239 0.0
44 1 74.1701460441 11.2295906239 0.0
45 1 77.1543460441 10.7445906239 0.0
46 1 0.224763044113 15.6511906239 0.0
47 1 3.62144604411 13.7346906239 0.0
48 1 11.4417460441 13.6974906239 0.0
49 1 17.5688460441 14.5464906239 0.0
50 1 22.2576460441 17.0835906239 0.0
51 1 28.6574460441 15.4422906239 0.0
52 1 31.6651460441 15.2257906239 0.0
53 1 36.2260460441 16.2411906239 0.0
54 1 41.1646460441 16.2058906239 0.0
55 1 46.3502460441 15.4690906239 0.0
56 1 50.9491460441 13.4957906239 0.0
57 1 57.9881460441 13.9197906239 0.0
58 1 62.8542460441 15.5372906239 0.0
59 1 67.7314460441 14.8698906239 0.0
60 1 74.2606460441 16.8951906239 0.0
61 1 3.22400604411 19.6774906239 0.0
62 1 9.76034604411 17.8301906239 0.0
63 1 12.4679460441 16.5113906239 0.0
64 1 19.7570460441 18.7173906239 0.0
65 1 23.5909460441 21.1707906239 0.0
66 1 28.1594460441 21.3482906239 0.0
67 1 33.5376460441 20.6732906239 0.0
68 1 39.5538460441 20.8498906239 0.0
69 1 44.5839460441 20.2080906239 0.0
70 1 49.5690460441 18.9702906239 0.0
71 1 54.7718460441 18.5750906239 0.0
72 1 59.4644460441 19.1486906239 0.0
73 1 65.0065460441 19.8489906239 0.0
74 1 71.4169460441 21.4965906239 0.0
75 1 0.262586044113 20.3587906239 0.0
76 1 78.0910460441 25.4506906239 0.0
77 1 5.37868604411 24.1184906239 0.0
78 1 10.6503460441 23.2412906239 0.0
79 1 17.7248460441 22.2192906239 0.0
80 1 20.9362460441 26.2487906239 0.0
81 1 26.2797460441 27.4432906239 0.0
82 1 31.3636460441 25.2787906239 0.0
83 1 35.1861460441 23.2313906239 0.0
84 1 42.8234460441 25.0789906239 0.0
85 1 48.2984460441 23.9674906239 0.0
86 1 53.8985460441 24.4697906239 0.0
87 1 56.8363460441 23.7396906239 0.0
88 1 61.7172460441 23.5520906239 0.0
89 1 66.3731460441 22.5116906239 0.0
90 1 72.9239460441 25.9266906239 0.0
91 1 1.37818604411 27.7444906239 0.0
92 1 8.37725604411 27.9913906239 0.0
93 1 12.6060460441 25.5818906239 0.0
94 1 19.7786460441 29.0343906239 0.0
95 1 25.3676460441 30.2877906239 0.0
96 1 30.6236460441 30.1409906239 0.0
97 1 35.3525460441 28.9488906239 0.0
98 1 40.4024460441 30.8373906239 0.0
99 1 45.8799460441 28.7312906239 0.0
100 1 51.0976460441 29.5927906239 0.0
101 1 55.5271460441 29.0664906239 0.0
102 1 60.8963460441 28.0580906239 0.0
103 1 65.5024460441 27.6097906239 0.0
104 1 71.0350460441 31.0689906239 0.0
105 1 76.4049460441 30.0383906239 0.0
106 1 1.26043604411 33.6391906239 0.0
107 1 6.16758604411 32.4907906239 0.0
108 1 11.5809460441 31.3379906239 0.0
109 1 15.5015460441 34.2886906239 0.0
110 1 22.6523460441 33.5423906239 0.0
111 1 28.0558460441 34.6682906239 0.0
112 1 32.8866460441 34.3273906239 0.0
113 1 39.9815460441 33.8288906239 0.0
114 1 44.7360460441 33.1156906239 0.0
115 1 47.7055460441 33.5504906239 0.0
116 1 55.4787460441 33.5716906239 0.0
117 1 58.3553460441 32.7512906239 0.0
118 1 63.5647460441 32.8560906239 0.0
119 1 69.8206460441 33.8178906239 0.0
120 1 75.1559460441 34.4930906239 0.0
121 1 3.95627604411 37.7077906239 0.0
122 1 8.82050604411 36.1375906239 0.0
123 1 14.0096460441 36.8789906239 0.0
124 1 17.9486460441 35.9934906239 0.0
125 1 24.1714460441 40.5229906239 0.0
126 1 29.7029460441 39.2134906239 0.0
127 1 34.2095460441 39.4585906239 0.0
128 1 38.8444460441 38.8681906239 0.0
129 1 43.9443460441 37.9618906239 0.0
130 1 48.6045460441 36.4380906239 0.0
131 1 55.8726460441 38.7655906239 0.0
132 1 60.9469460441 37.2830906239 0.0
133 1 64.8323460441 35.6326906239 0.0
134 1 71.7891460441 38.3746906239 0.0
135 1 77.6312460441 38.8450906239 0.0
136 1 1.19688604411 42.8051906239 0.0
137 1 7.99588604411 41.2253906239 0.0
138 1 10.9915460441 40.9229906239 0.0
139 1 16.6402460441 41.5641906239 0.0
140 1 22.1360460441 42.7304906239 0.0
141 1 26.5641460441 43.7851906239 0.0
142 1 31.4289460441 44.3398906239 0.0
143 1 37.0838460441 44.0224906239 0.0
144 1 42.1310460441 42.8583906239 0.0
145 1 47.3806460441 41.8591906239 0.0
146 1 52.7998460441 42.8521906239 0.0
147 1 60.5488460441 41.8260906239 0.0
148 1 63.5592460441 41.5187906239 0.0
149 1 69.7522460441 41.7510906239 0.0
150 1 72.7153460441 41.2058906239 0.0
151 1 2.81549604411 47.6520906239 0.0
152 1 8.18440604411 46.1259906239 0.0
153 1 13.8458460441 45.2309906239 0.0
154 1 19.0651460441 46.1949906239 0.0
155 1 23.6393460441 48.1568906239 0.0
156 1 28.3795460441 48.7495906239 0.0
157 1 32.6218460441 47.1134906239 0.0
158 1 39.9235460441 47.9232906239 0.0
159 1 44.6923460441 46.7187906239 0.0
160 1 50.1445460441 46.5640906239 0.0
161 1 54.7593460441 47.1724906239 0.0
162 1 59.3461460441 46.8464906239 0.0
163 1 64.5613460441 47.1538906239 0.0
164 1 69.7369460441 46.8284906239 0.0
165 1 75.4798460441 46.5166906239 0.0
166 1 76.4793460441 49.3615906239 0.0
167 1 4.50615604411 50.1272906239 0.0
168 1 11.8473460441 49.4204906239 0.0
169 1 16.6658460441 50.0466906239 0.0
170 1 19.7711460441 54.3838906239 0.0
171 1 25.6474460441 53.2867906239 0.0
172 1 31.2329460441 52.8159906239 0.0
173 1 36.3064460441 52.0194906239 0.0
174 1 43.2005460441 51.9620906239 0.0
175 1 48.1127460441 50.7642906239 0.0
176 1 52.9121460441 51.6975906239 0.0
177 1 57.4110460441 51.8921906239 0.0
178 1 61.9051460441 51.4542906239 0.0
179 1 65.6273460441 50.0009906239 0.0
180 1 72.4975460441 50.5793906239 0.0
181 1 2.07461604411 55.3076906239 0.0
182 1 9.86144604411 54.0104906239 0.0
183 1 12.8516460441 54.1785906239 0.0
184 1 17.4531460441 56.3936906239 0.0
185 1 23.1746460441 57.4214906239 0.0
186 1 28.9318460441 57.2681906239 0.0
187 1 35.4552460441 56.6828906239 0.0
188 1 38.4226460441 56.3723906239 0.0
189 1 41.7146460441 54.5578906239 0.0
190 1 48.4069460441 57.9864906239 0.0
191 1 56.3370460441 56.5136906239 0.0
192 1 59.3701460441 56.5857906239 0.0
193 1 64.2874460441 55.8879906239 0.0
194 1 69.6181460441 55.2513906239 0.0
195 1 75.2454460441 55.0500906239 0.0
196 1 77.5902460441 59.4537906239 0.0
197 1 6.03531604411 59.5039906239 0.0
198 1 8.92559604411 58.6139906239 0.0
199 1 13.1786460441 61.2389906239 0.0
200 1 18.0462460441 59.3500906239 0.0
201 1 24.9880460441 61.0214906239 0.0
202 1 30.4121460441 62.3167906239 0.0
203 1 33.7483460441 60.8451906239 0.0
204 1 41.5375460441 60.5301906239 0.0
205 1 46.6272460441 60.4227906239 0.0
206 1 51.1838460441 63.7106906239 0.0
207 1 56.2684460441 61.1041906239 0.0
208 1 61.9252460441 61.0595906239 0.0
209 1 67.0220460441 59.9979906239 0.0
210 1 72.3036460441 59.2761906239 0.0
211 1 78.4038460441 64.3451906239 0.0
212 1 4.57621604411 64.7204906239 0.0
213 1 11.2276460441 63.5123906239 0.0
214 1 16.5533460441 64.7155906239 0.0
215 1 21.9588460441 65.2790906239 0.0
216 1 27.4395460441 65.6278906239 0.0
217 1 31.9668460441 64.8984906239 0.0
218 1 38.7416460441 67.2367906239 0.0
219 1 44.1902460441 65.1728906239 0.0
220 1 49.7153460441 66.2997906239 0.0
221 1 54.8583460441 66.1166906239 0.0
222 1 58.9770460441 67.7134906239 0.0
223 1 66.5045460441 64.6712906239 0.0
224 1 70.8716460441 63.8654906239 0.0
225 1 73.8646460441 63.6331906239 0.0
226 1 75.5727460441 68.8990906239 0.0
227 1 2.10513604411 69.2868906239 0.0
228 1 6.51798604411 67.0082906239 0.0
229 1 13.3353460441 70.0494906239 0.0
230 1 17.7312460441 67.4969906239 0.0
231 1 25.2985460441 69.5232906239 0.0
232 1 29.7642460441 72.2096906239 0.0
233 1 37.5095460441 70.0408906239 0.0
234 1 42.6330460441 69.9109906239 0.0
235 1 47.6664460441 69.7081906239 0.0
236 1 51.9707460441 73.0060906239 0.0
237 1 58.5910460441 70.6863906239 0.0
238 1 61.5691460441 70.8104906239 0.0
239 1 65.9536460441 69.9668906239 0.0
240 1 70.4149460441 69.0858906239 0.0
241 1 0.807686044113 75.4105906239 0.0
242 1 5.90680604411 72.5802906239 0.0
243 1 11.6690460441 72.5229906239 0.0
244 1 17.0876460441 73.0903906239 0.0
245 1 22.4602460441 73.4556906239 0.0
246 1 27.9006460441 74.5691906239 0.0
247 1 32.5803460441 73.2701906239 0.0
248 1 40.1010460441 74.5646906239 0.0
249 1 45.1711460441 74.4642906239 0.0
250 1 50.3470460441 75.5380906239 0.0
251 1 54.9875460441 76.9180906239 0.0
252 1 59.7498460441 75.9253906239 0.0
253 1 64.9839460441 75.1960906239 0.0
254 1 69.6488460441 76.8739906239 0.0
255 1 74.0850460441 73.4578906239 0.0
256 1 0.658653044113 2.73236062387 0.0
257 1 3.63589604411 2.38838062387 0.0
258 1 11.1037460441 1.03702062387 0.0
259 1 16.9268460441 0.18448862387 0.0
260 1 21.7971460441 3.22079062387 0.0
261 1 26.4784460441 2.92665062387 0.0
262 1 33.6422460441 3.35065062387 0.0
263 1 37.1261460441 0.49651062387 0.0
264 1 41.0264460441 1.96587062387 0.0
265 1 46.0866460441 3.94320062387 0.0
266 1 51.5045460441 3.64422062387 0.0
267 1 59.7018460441 5.31883062387 0.0
268 1 64.5698460441 2.04724062387 0.0
269 1 69.8734460441 3.88950062387 0.0
270 1 74.6421460441 3.15458062387 0.0
271 1 3.98916604411 5.36036062387 0.0
272 1 9.34425604411 6.13314062387 0.0
273 1 14.1190460441 5.52184062387 0.0
274 1 19.2851460441 6.83994062387 0.0
275 1 24.5156460441 8.23459062387 0.0
276 1 27.5308460441 8.24060062387 0.0
277 1 36.0081460441 5.20752062387 0.0
278 1 39.0243460441 8.51388062387 0.0
279 1 43.9661460441 8.34589062387 0.0
280 1 49.3064460441 8.18527062387 0.0
281 1 54.7488460441 7.45062062387 0.0
282 1 62.6432460441 9.68114062387 0.0
283 1 65.6178460441 9.32579062387 0.0
284 1 72.9475460441 8.45511062387 0.0
285 1 77.4777460441 7.75246062387 0.0
286 1 0.786516044113 12.7135906239 0.0
287 1 6.51219604411 12.9357906239 0.0
288 1 12.3302460441 10.8197906239 0.0
289 1 17.2325460441 9.01373062387 0.0
290 1 21.5047460441 11.8438906239 0.0
291 1 27.0013460441 12.9012906239 0.0
292 1 31.8173460441 12.1968906239 0.0
293 1 36.3730460441 13.2149906239 0.0
294 1 41.3233460441 13.2106906239 0.0
295 1 46.3882460441 12.4821906239 0.0
296 1 53.9053460441 13.0532906239 0.0
297 1 58.2826460441 10.8982906239 0.0
298 1 63.3316460441 12.5903906239 0.0
299 1 70.6138460441 15.6892906239 0.0
300 1 73.1614460441 14.0898906239 0.0
301 1 3.03776604411 16.6757906239 0.0
302 1 8.72468604411 14.9894906239 0.0
303 1 15.4626460441 16.7066906239 0.0
304 1 20.5612460441 14.6666906239 0.0
305 1 24.8784460441 18.4714906239 0.0
306 1 27.8594460441 18.3461906239 0.0
307 1 33.5456460441 17.6212906239 0.0
308 1 38.7158460441 17.9481906239 0.0
309 1 43.9629460441 17.2798906239 0.0
310 1 49.2953460441 15.9953906239 0.0
311 1 55.4791460441 15.6124906239 0.0
312 1 59.9392460441 16.1929906239 0.0
313 1 65.5245460441 16.9026906239 0.0
314 1 71.7145460441 18.4872906239 0.0
315 1 77.0453460441 18.0019906239 0.0
316 1 76.9712460441 22.6665906239 0.0
317 1 5.87335604411 21.1512906239 0.0
318 1 8.89868604411 20.7415906239 0.0
319 1 16.8387460441 19.3639906239 0.0
320 1 20.6372460441 21.5627906239 0.0
321 1 25.7693460441 23.1983906239 0.0
322 1 31.0043460441 22.2942906239 0.0
323 1 38.1781460441 23.5188906239 0.0
324 1 42.2798460441 22.1173906239 0.0
325 1 47.4437460441 21.0894906239 0.0
326 1 52.2605460441 20.2591906239 0.0
327 1 56.9028460441 20.7120906239 0.0
328 1 62.0958460441 20.5806906239 0.0
329 1 69.1798460441 23.5402906239 0.0
330 1 73.9665460441 23.0927906239 0.0
331 1 4.24663604411 26.9108906239 0.0
332 1 8.23195604411 25.0060906239 0.0
333 1 15.4611460441 26.5920906239 0.0
334 1 18.1093460441 25.1722906239 0.0
335 1 23.9174460441 25.5857906239 0.0
336 1 29.2907460441 27.4413906239 0.0
337 1 34.2470460441 26.1143906239 0.0
338 1 39.9255460441 25.9891906239 0.0
339 1 45.8013460441 25.7180906239 0.0
340 1 51.2182460441 23.0993906239 0.0
341 1 53.0876460441 27.3479906239 0.0
342 1 59.3763460441 25.4173906239 0.0
343 1 64.4340460441 24.8057906239 0.0
344 1 68.2883460441 26.4395906239 0.0
345 1 75.6406460441 27.1554906239 0.0
346 1 0.672191044113 30.6777906239 0.0
347 1 5.79542604411 29.4981906239 0.0
348 1 11.3407460441 28.3340906239 0.0
349 1 16.7509460441 29.3168906239 0.0
350 1 22.3669460441 30.5756906239 0.0
351 1 28.0391460441 31.6776906239 0.0
352 1 33.4087460441 31.3129906239 0.0
353 1 38.3746460441 28.5984906239 0.0
354 1 43.3944460441 30.4283906239 0.0
355 1 48.2628460441 30.5859906239 0.0
356 1 53.5452460441 31.3071906239 0.0
357 1 58.4362460441 29.7613906239 0.0
358 1 63.4080460441 29.7951906239 0.0
359 1 70.7981460441 28.0654906239 0.0
360 1 73.9637460441 31.7503906239 0.0
361 1 4.07753604411 34.6833906239 0.0
362 1 9.12113604411 33.1335906239 0.0
363 1 14.5988460441 31.4378906239 0.0
364 1 20.9236460441 35.9670906239 0.0
365 1 25.1207460441 35.2313906239 0.0
366 1 30.5684460441 36.2992906239 0.0
367 1 34.9430460441 36.5237906239 0.0
368 1 37.9061460441 36.0101906239 0.0
369 1 42.6386460441 35.2491906239 0.0
370 1 51.4580460441 37.3827906239 0.0
371 1 54.2312460441 36.2702906239 0.0
372 1 60.9222460441 34.2820906239 0.0
373 1 67.8002460441 36.0551906239 0.0
374 1 72.3362460441 35.4524906239 0.0
375 1 77.8363460441 35.8315906239 0.0
376 1 1.80903604411 39.8451906239 0.0
377 1 6.86780604411 38.4307906239 0.0
378 1 11.2163460441 37.9306906239 0.0
379 1 16.4684460441 38.5807906239 0.0
380 1 23.3757460441 37.6534906239 0.0
381 1 27.1546460441 40.8395906239 0.0
382 1 31.8451460441 41.3309906239 0.0
383 1 36.7600460441 41.0331906239 0.0
384 1 41.6579460441 39.8994906239 0.0
385 1 46.8193460441 38.8763906239 0.0
386 1 53.1002460441 39.8875906239 0.0
387 1 58.8119460441 39.3745906239 0.0
388 1 63.7051460441 38.4670906239 0.0
389 1 68.8461460441 38.8830906239 0.0
390 1 75.7244460441 41.2001906239 0.0
391 1 3.50680604411 44.7212906239 0.0
392 1 6.35613604411 43.7497906239 0.0
393 1 13.7060460441 42.2429906239 0.0
394 1 19.1750460441 43.1917906239 0.0
395 1 23.8953460441 45.1581906239 0.0
396 1 28.7896460441 45.7695906239 0.0
397 1 35.5733460441 46.6205906239 0.0
398 1 39.9454460441 44.9188906239 0.0
399 1 45.0015460441 43.7233906239 0.0
400 1 49.8828460441 43.5645906239 0.0
401 1 55.4579460441 44.2563906239 0.0
402 1 58.4572460441 43.9851906239 0.0
403 1 65.1063460441 44.1580906239 0.0
404 1 68.1220460441 44.2782906239 0.0
405 1 77.0384460441 43.9092906239 0.0
406 1 0.767166044113 49.8300906239 0.0
407 1 7.25303604411 48.9753906239 0.0
408 1 11.1516460441 46.5140906239 0.0
409 1 16.2092460441 47.0833906239 0.0
410 1 20.7000460441 48.7272906239 0.0
411 1 25.7825460441 50.2694906239 0.0
412 1 31.1951460441 49.7877906239 0.0
413 1 37.1843460441 49.1472906239 0.0
414 1 42.7182460441 48.9933906239 0.0
415 1 47.4559460441 47.8548906239 0.0
416 1 52.2237460441 48.7534906239 0.0
417 1 57.1855460441 48.9098906239 0.0
418 1 61.8660460441 48.4454906239 0.0
419 1 68.5849460441 49.6112906239 0.0
420 1 72.6515460441 47.5573906239 0.0
421 1 2.45733604411 52.3123906239 0.0
422 1 9.36782604411 51.0720906239 0.0
423 1 14.0404460441 51.4410906239 0.0
424 1 19.3306460441 51.4029906239 0.0
425 1 22.8177460441 54.4485906239 0.0
426 1 28.5507460441 54.2617906239 0.0
427 1 34.0260460441 54.0056906239 0.0
428 1 38.9425460441 53.4427906239 0.0
429 1 46.0275460441 52.8902906239 0.0
430 1 50.1917460441 52.9027906239 0.0
431 1 55.0917460441 53.7679906239 0.0
432 1 59.8450460441 53.6204906239 0.0
433 1 64.5533460441 52.8441906239 0.0
434 1 70.0046460441 52.2538906239 0.0
435 1 75.1104460441 52.0374906239 0.0
436 1 77.9278460441 56.4564906239 0.0
437 1 4.71089604411 56.7922906239 0.0
438 1 7.57890604411 55.9347906239 0.0
439 1 14.4276460441 56.7133906239 0.0
440 1 21.0408460441 59.5597906239 0.0
441 1 26.0662460441 58.2249906239 0.0
442 1 31.1040460441 59.3974906239 0.0
443 1 36.4227460441 59.5428906239 0.0
444 1 41.1879460441 57.5266906239 0.0
445 1 48.0963460441 55.0269906239 0.0
446 1 51.2909460441 58.8831906239 0.0
447 1 54.3389460441 58.7708906239 0.0
448 1 62.0536460441 57.9978906239 0.0
449 1 67.1098460441 56.9726906239 0.0
450 1 72.4688460441 56.2728906239 0.0
451 1 1.02430604411 61.6157906239 0.0
452 1 4.03948604411 61.7629906239 0.0
453 1 11.9686460441 58.5000906239 0.0
454 1 16.1678460441 61.7214906239 0.0
455 1 22.2698460441 62.2906906239 0.0
456 1 27.4631460441 62.6620906239 0.0
457 1 34.7015460441 63.7090906239 0.0
458 1 38.6912460441 61.5614906239 0.0
459 1 44.1156460441 62.1271906239 0.0
460 1 49.4919460441 61.2844906239 0.0
461 1 54.1264460441 63.2187906239 0.0
462 1 59.0743460441 62.2821906239 0.0
463 1 64.8304460441 62.0955906239 0.0
464 1 69.8555460441 61.0327906239 0.0
465 1 74.8922460441 60.8037906239 0.0
466 1 75.8286460441 65.8954906239 0.0
467 1 2.02192604411 66.2872906239 0.0
468 1 9.27164604411 65.7955906239 0.0
469 1 13.6184460441 65.3139906239 0.0
470 1 20.6862460441 68.0018906239 0.0
471 1 24.6321460441 66.6110906239 0.0
472 1 30.0053460441 67.1545906239 0.0
473 1 37.6349460441 64.4064906239 0.0
474 1 41.7777460441 67.0215906239 0.0
475 1 46.7482460441 66.8291906239 0.0
476 1 52.3268460441 67.8111906239 0.0
477 1 57.6890460441 65.0144906239 0.0
478 1 61.9561460441 67.8474906239 0.0
479 1 64.8580460441 67.1693906239 0.0
480 1 69.1067460441 66.2988906239 0.0
481 1 78.0518460441 70.6124906239 0.0
482 1 5.09366604411 69.6781906239 0.0
483 1 11.6780460441 67.5720906239 0.0
484 1 16.3417460441 70.1702906239 0.0
485 1 22.4536460441 70.4533906239 0.0
486 1 28.3050460441 69.6144906239 0.0
487 1 35.4950460441 72.3493906239 0.0
488 1 40.1158460441 71.5556906239 0.0
489 1 45.2218460441 71.4548906239 0.0
490 1 50.6424460441 70.3047906239 0.0
491 1 54.8384460441 73.9286906239 0.0
492 1 57.8255460441 73.5829906239 0.0
493 1 64.1171460441 72.3345906239 0.0
494 1 68.5497460441 71.4597906239 0.0
495 1 73.0687460441 70.5822906239 0.0
496 1 77.1247460441 73.4817906239 0.0
497 1 3.75851604411 74.7095906239 0.0
498 1 8.80454604411 73.4513906239 0.0
499 1 14.2409460441 74.0869906239 0.0
500 1 19.6889460441 74.6345906239 0.0
501 1 24.9224460441 75.2104906239 0.0
502 1 30.7129460441 75.6542906239 0.0
503 1 37.1058460441 74.9151906239 0.0
504 1 42.6785460441 76.1475906239 0.0
505 1 47.4719460441 76.4010906239 0.0
506 1 52.1724460441 77.9181906239 0.0
507 1 57.7234460441 78.1441906239 0.0
508 1 62.5744460441 77.0133906239 0.0
509 1 67.9000460441 74.4236906239 0.0
510 1 72.5870460441 76.1092906239 0.0
511 1 5.21655604411 77.3420906239 0.0
512 1 9.85554604411 76.2691906239 0.0
513 1 14.8045460441 78.9521906239 0.0
514 1 20.3416460441 77.5747906239 0.0
515 1 25.1045460441 80.2772906239 0.0
516 1 30.7377460441 78.6454906239 0.0
517 1 36.2898460441 77.8175906239 0.0
518 1 43.7286460441 78.9848906239 0.0
519 1 46.7367460441 79.3239906239 0.0
520 1 51.9851460441 80.9049906239 0.0
521 1 57.7394460441 81.1447906239 0.0
522 1 62.9368460441 80.0134906239 0.0
523 1 68.4571460441 79.6767906239 0.0
524 1 73.7230460441 78.9051906239 0.0
525 1 0.528066044113 78.4264906239 0.0
526 1 3.29815604411 79.6419906239 0.0
527 1 7.95948604411 78.5806906239 0.0
528 1 12.8253460441 76.7140906239 0.0
529 1 17.7984460441 79.2113906239 0.0
530 1 23.3676460441 77.8076906239 0.0
531 1 28.1315460441 80.1680906239 0.0
532 1 33.6683460441 79.3309906239 0.0
533 1 38.5784460441 79.7777906239 0.0
534 1 41.3794460441 80.8677906239 0.0
535 1 48.9894460441 81.3605906239 0.0
536 1 54.8250460441 0.0835826238696 0.0
537 1 60.6428460441 0.10654462387 0.0
538 1 65.7483460441 81.1358906239 0.0
539 1 71.2990460441 80.7226906239 0.0
540 1 76.5666460441 79.9502906239 0.0
541 2 4.56499604411 1.22142062387 0.0
542 2 4.29076604411 80.7841906239 0.0
543 2 6.88575604411 81.8268906239 0.0
544 2 8.27453604411 80.0469906239 0.0
545 2 9.73414604411 0.36913962387 0.0
546 2 15.4098460441 0.27096362387 0.0
547 2 14.2227460441 80.3390906239 0.0
548 2 12.5128460441 0.46157162387 0.0
549 2 17.9656460441 1.26542062387 0.0
550 2 20.3516460441 2.77676062387 0.0
551 2 17.9006460441 3.58850062387 0.0
552 2 24.4716460441 81.6579906239 0.0
553 2 25.2033460441 2.15007062387 0.0
554 2 22.8414460441 2.13319062387 0.0
555 2 28.6102460441 81.5999906239 0.0
556 2 29.9475460441 2.24298062387 0.0
557 2 27.6377460441 1.97514062387 0.0
558 2 33.7986460441 80.8348906239 0.0
559 2 35.6416460441 0.42696262387 0.0
560 2 33.7963460441 1.85169062387 0.0
561 2 39.7183460441 2.72720062387 0.0
562 2 37.6796460441 1.87897062387 0.0
563 2 37.2611460441 4.34325062387 0.0
564 2 42.1341460441 2.97599062387 0.0
565 2 44.5700460441 3.93942062387 0.0
566 2 42.1881460441 5.38377062387 0.0
567 2 48.7634460441 0.95082062387 0.0
568 2 50.1193460441 3.04234062387 0.0
569 2 47.3674460441 3.13929062387 0.0
570 2 54.7098460441 1.58145062387 0.0
571 2 55.6293460441 4.02658062387 0.0
572 2 52.9733460441 3.28443062387 0.0
573 2 61.0623460441 1.55707062387 0.0
574 2 63.1442460441 2.58703062387 0.0
575 2 60.7242460441 4.17751062387 0.0
576 2 65.7018460441 3.05781062387 0.0
577 2 68.3702460441 3.74912062387 0.0
578 2 66.9585460441 5.49816062387 0.0
579 2 71.6415460441 0.29357262387 0.0
580 2 70.8796460441 2.78364062387 0.0
581 2 73.3124460441 2.44539062387 0.0
582 2 76.6899460441 81.4623906239 0.0
583 2 78.1123460441 1.83901062387 0.0
584 2 75.7256460441 2.10591062387 0.0
585 2 0.680572044113 4.24338062387 0.0
586 2 2.52909604411 5.74042062387 0.0
587 2 78.6544460441 6.81154062387 0.0
588 2 5.21665604411 6.21503062387 0.0
589 2 7.85188604411 6.39304062387 0.0
590 2 6.54209604411 8.54057062387 0.0
591 2 11.2593460441 2.54399062387 0.0
592 2 12.8455460441 4.71618062387 0.0
593 2 10.3551460441 5.02253062387 0.0
594 2 18.1765460441 5.82316062387 0.0
595 2 15.5693460441 5.08093062387 0.0
596 2 22.1266460441 4.70076062387 0.0
597 2 23.3966460441 7.20035062387 0.0
598 2 20.7751460441 6.63351062387 0.0
599 2 27.9849460441 6.80547062387 0.0
600 2 27.1851460441 4.26033062387 0.0
601 2 29.5755460441 4.61363062387 0.0
602 2 32.1585460441 3.59737062387 0.0
603 2 37.5322460441 8.31466062387 0.0
604 2 35.8946460441 6.70818062387 0.0
605 2 35.1745460441 9.47748062387 0.0
606 2 42.6878460441 7.57787062387 0.0
607 2 40.1795460441 7.52966062387 0.0
608 2 46.4045460441 5.41517062387 0.0
609 2 47.9578460441 7.52705062387 0.0
610 2 45.3028460441 7.66376062387 0.0
611 2 50.6047460441 7.44408062387 0.0
612 2 53.2905460441 7.06981062387 0.0
613 2 51.6119460441 5.14498062387 0.0
614 2 58.1836460441 5.14024062387 0.0
615 2 55.7866460441 6.36097062387 0.0
616 2 66.4974460441 8.12052062387 0.0
617 2 68.9065460441 7.08609062387 0.0
618 2 70.2993460441 5.33855062387 0.0
619 2 71.5997460441 7.75602062387 0.0
620 2 74.7790460441 4.66444062387 0.0
621 2 76.2250460441 6.92287062387 0.0
622 2 73.9023460441 7.28523062387 0.0
623 2 6.72205604411 11.4392906239 0.0
624 2 8.51294604411 9.65365062387 0.0
625 2 9.78904604411 7.57763062387 0.0
626 2 11.0947460441 9.96119062387 0.0
627 2 14.0855460441 7.03332062387 0.0
628 2 15.7565460441 8.79623062387 0.0
629 2 13.3814460441 9.73817062387 0.0
630 2 17.7909460441 10.3975906239 0.0
631 2 20.0164460441 11.5585906239 0.0
632 2 17.8378460441 13.0516906239 0.0
633 2 24.4323460441 9.74188062387 0.0
634 2 25.6593460441 12.1747906239 0.0
635 2 22.9710460441 11.5510906239 0.0
636 2 28.4303460441 9.45137062387 0.0
637 2 30.5215460441 11.4078906239 0.0
638 2 28.0752460441 11.8470906239 0.0
639 2 35.3861460441 12.0759906239 0.0
640 2 33.1118460441 11.4196906239 0.0
641 2 39.0243460441 10.0276906239 0.0
642 2 40.0870460441 12.3734906239 0.0
643 2 37.6434460441 12.4032906239 0.0
644 2 43.7651460441 9.82779062387 0.0
645 2 45.0263460441 11.8834906239 0.0
646 2 42.5054460441 12.2845906239 0.0
647 2 49.2494460441 9.68449062387 0.0
648 2 50.0753460441 12.2779906239 0.0
649 2 47.6978460441 11.7658906239 0.0
650 2 54.9909460441 8.93441062387 0.0
651 2 56.8073460441 10.6076906239 0.0
652 2 54.5533460441 11.6930906239 0.0
653 2 61.3458460441 8.94586062387 0.0
654 2 59.1016460441 9.62224062387 0.0
655 2 59.8603460441 6.84098062387 0.0
656 2 66.1844460441 10.7273906239 0.0
657 2 67.1491460441 13.4789906239 0.0
658 2 64.8306460441 12.5007906239 0.0
659 2 73.6248460441 12.6490906239 0.0
660 2 73.4564460441 9.88349062387 0.0
661 2 75.6764460441 11.0625906239 0.0
662 2 77.3992460441 9.25320062387 0.0
663 2 78.3398460441 11.6853906239 0.0
664 2 0.321913044113 14.1539906239 0.0
665 2 1.59569604411 16.2572906239 0.0
666 2 77.8822460441 16.7540906239 0.0
667 2 5.05172604411 13.2865906239 0.0
668 2 3.53150604411 15.2481906239 0.0
669 2 2.28171604411 13.0138906239 0.0
670 2 11.9855460441 12.2889906239 0.0
671 2 12.1123460441 15.0451906239 0.0
672 2 10.0244460441 14.2168906239 0.0
673 2 19.0636460441 14.7945906239 0.0
674 2 16.4678460441 15.5694906239 0.0
675 2 21.5362460441 15.7842906239 0.0
676 2 23.6463460441 17.6113906239 0.0
677 2 20.9871460441 17.8826906239 0.0
678 2 27.7260460441 14.2416906239 0.0
679 2 28.3000460441 16.9119906239 0.0
680 2 30.1616460441 15.3636906239 0.0
681 2 31.8400460441 13.7134906239 0.0
682 2 32.5586460441 16.4560906239 0.0
683 2 36.2812460441 14.7246906239 0.0
684 2 37.4499460441 17.1307906239 0.0
685 2 34.9040460441 16.9579906239 0.0
686 2 41.2265460441 14.7039906239 0.0
687 2 42.5571460441 16.7707906239 0.0
688 2 39.9417460441 17.0678906239 0.0
689 2 46.3179460441 13.9745906239 0.0
690 2 47.8119460441 15.7843906239 0.0
691 2 45.1557460441 16.3672906239 0.0
692 2 52.4206460441 13.2578906239 0.0
693 2 50.2000460441 14.7995906239 0.0
694 2 58.2514460441 12.4286906239 0.0
695 2 59.0261460441 15.0129906239 0.0
696 2 56.7554460441 14.7997906239 0.0
697 2 62.9816460441 14.0397906239 0.0
698 2 64.1597460441 16.2672906239 0.0
699 2 61.4137460441 15.9237906239 0.0
700 2 69.1788460441 15.2474906239 0.0
701 2 66.6843460441 15.9551906239 0.0
702 2 73.8914460441 15.4246906239 0.0
703 2 75.6223460441 17.5259906239 0.0
704 2 73.0715460441 17.8183906239 0.0
705 2 3.26162604411 18.1614906239 0.0
706 2 4.56644604411 20.3728906239 0.0
707 2 1.76505604411 20.1353906239 0.0
708 2 9.33788604411 19.2802906239 0.0
709 2 9.04202604411 16.4798906239 0.0
710 2 11.2064460441 17.3433906239 0.0
711 2 13.9645460441 16.6563906239 0.0
712 2 20.2705460441 20.1150906239 0.0
713 2 18.2692460441 18.8777906239 0.0
714 2 24.2346460441 19.8236906239 0.0
715 2 24.6635460441 22.1904906239 0.0
716 2 22.1358460441 21.5334906239 0.0
717 2 27.0405460441 22.3702906239 0.0
718 2 29.5840460441 21.8201906239 0.0
719 2 28.1057460441 19.8344906239 0.0
720 2 33.5381460441 19.1490906239 0.0
721 2 32.2100460441 21.4015906239 0.0
722 2 34.4574460441 21.8953906239 0.0
723 2 38.7957460441 22.1467906239 0.0
724 2 40.9539460441 21.4132906239 0.0
725 2 39.0706460441 19.4196906239 0.0
726 2 46.0089460441 20.6602906239 0.0
727 2 44.2670460441 18.7440906239 0.0
728 2 43.4518460441 21.1798906239 0.0
729 2 48.4805460441 20.0032906239 0.0
730 2 50.9492460441 19.5311906239 0.0
731 2 49.4870460441 17.4779906239 0.0
732 2 55.1026460441 17.0870906239 0.0
733 2 55.8274460441 19.6554906239 0.0
734 2 53.4940460441 19.3917906239 0.0
735 2 59.6102460441 17.6557906239 0.0
736 2 60.8002460441 19.8328906239 0.0
737 2 58.2055460441 19.9526906239 0.0
738 2 65.3913460441 18.4001906239 0.0
739 2 65.7910460441 21.1272906239 0.0
740 2 63.5285460441 20.1440906239 0.0
741 2 71.4783460441 19.9788906239 0.0
742 2 72.7525460441 22.1970906239 0.0
743 2 70.2968460441 22.5207906239 0.0
744 2 77.9747460441 21.5433906239 0.0
745 2 77.9386460441 19.2047906239 0.0
746 2 77.6587460441 24.0133906239 0.0
747 2 0.474992044113 26.5365906239 0.0
748 2 76.8300460441 26.2622906239 0.0
749 2 5.48417604411 22.6176906239 0.0
750 2 6.82486604411 24.5213906239 0.0
751 2 4.68680604411 25.4645906239 0.0
752 2 9.44260604411 24.1383906239 0.0
753 2 11.7807460441 24.2922906239 0.0
754 2 9.91014604411 21.8929906239 0.0
755 2 17.7662460441 23.7091906239 0.0
756 2 17.0257460441 20.8734906239 0.0
757 2 19.2305460441 22.0502906239 0.0
758 2 19.5606460441 25.5972906239 0.0
759 2 22.4138460441 25.8625906239 0.0
760 2 20.3974460441 27.6595906239 0.0
761 2 25.0711460441 26.5612906239 0.0
762 2 27.7870460441 27.3370906239 0.0
763 2 25.8152460441 28.8603906239 0.0
764 2 30.2615460441 26.2966906239 0.0
765 2 32.7704460441 25.7969906239 0.0
766 2 31.1667460441 23.7904906239 0.0
767 2 36.6869460441 23.3628906239 0.0
768 2 34.7510460441 24.6837906239 0.0
769 2 42.5638460441 23.5890906239 0.0
770 2 44.3074460441 25.4027906239 0.0
771 2 41.4185460441 25.6824906239 0.0
772 2 47.8163460441 22.5368906239 0.0
773 2 49.8064460441 23.6776906239 0.0
774 2 47.0915460441 24.9027906239 0.0
775 2 53.4510460441 25.9043906239 0.0
776 2 52.5595460441 23.7891906239 0.0
777 2 55.3668460441 24.1195906239 0.0
778 2 56.8841460441 22.2187906239 0.0
779 2 58.0482460441 24.6595906239 0.0
780 2 61.8625460441 22.0649906239 0.0
781 2 63.0434460441 24.2577906239 0.0
782 2 60.5047460441 24.4171906239 0.0
783 2 67.8097460441 22.9133906239 0.0
784 2 65.4264460441 23.6766906239 0.0
785 2 73.3621460441 24.4850906239 0.0
786 2 74.2612460441 26.6082906239 0.0
787 2 71.8499460441 26.9787906239 0.0