ITEM: TIMESTEP
0
ITEM: NUMBER OF ATOMS
1350
ITEM: BOX BOUNDS xy xz yz pp pp pp
0.0 77.393988594 0
0.0 82.7561576845 0
-10.0 10.0 0
ITEM: ATOMS id type x y z vx vy vz
1 1 2.20734207384 0.0411438422399 0.0 0.0 0.0 0.0
2 1 7.53810207384 0.0362508422399 0.0 0.0 0.0 0.0
3 1 12.5820320738 0.62580084224 0.0 0.0 0.0 0.0
4 1 18.0725320738 0.81635184224 0.0 0.0 0.0 0.0
5 1 23.1265320738 1.70170884224 0.0 0.0 0.0 0.0
6 1 28.6509320738 1.92206884224 0.0 0.0 0.0 0.0
7 1 33.8999320738 1.94954884224 0.0 0.0 0.0 0.0
8 1 38.5349320738 5.02868884224 0.0 0.0 0.0 0.0
9 1 43.8767320738 3.04998884224 0.0 0.0 0.0 0.0
10 1 48.6899320738 3.29582884224 0.0 0.0 0.0 0.0
11 1 54.1317320738 2.57737884224 0.0 0.0 0.0 0.0
12 1 59.8498320738 2.67474884224 0.0 0.0 0.0 0.0
13 1 66.1855320738 0.76430984224 0.0 0.0 0.0 0.0
14 1 69.0281320738 82.5061788422 0.0 0.0 0.0 0.0
15 1 74.3667320738 0.50818884224 0.0 0.0 0.0 0.0
16 1 1.19779207384 4.40504884224 0.0 0.0 0.0 0.0
17 1 5.87312207384 4.26473884224 0.0 0.0 0.0 0.0
18 1 9.34683207384 7.77273884224 0.0 0.0 0.0 0.0
19 1 15.4215320738 5.03335884224 0.0 0.0 0.0 0.0
20 1 20.7391320738 5.76167884224 0.0 0.0 0.0 0.0
21 1 24.3518320738 4.47107884224 0.0 0.0 0.0 0.0
22 1 31.7820320738 6.28829884224 0.0 0.0 0.0 0.0
23 1 37.0205320738 7.64931884224 0.0 0.0 0.0 0.0
24 1 41.4380320738 8.07048884224 0.0 0.0 0.0 0.0
25 1 46.0577320738 7.95285884224 0.0 0.0 0.0 0.0
26 1 51.1092320738 7.09885884224 0.0 0.0 0.0 0.0
27 1 55.1967320738 5.37557884224 0.0 0.0 0.0 0.0
28 1 61.8690320738 4.86674884224 0.0 0.0 0.0 0.0
29 1 68.8584320738 5.94307884224 0.0 0.0 0.0 0.0
30 1 73.5972320738 6.65280884224 0.0 0.0 0.0 0.0
31 1 3.84567207384 9.25812884224 0.0 0.0 0.0 0.0
32 1 8.21617207384 10.5575788422 0.0 0.0 0.0 0.0
33 1 11.8682320738 9.39502884224 0.0 0.0 0.0 0.0
34 1 18.6062320738 12.0339788422 0.0 0.0 0.0 0.0
35 1 23.7212320738 10.3186788422 0.0 0.0 0.0 0.0
36 1 29.0068320738 10.1468588422 0.0 0.0 0.0 0.0
37 1 32.9455320738 13.2888788422 0.0 0.0 0.0 0.0
38 1 38.8300320738 12.9177788422 0.0 0.0 0.0 0.0
39 1 43.8875320738 12.9479788422 0.0 0.0 0.0 0.0
40 1 48.7115320738 12.0673788422 0.0 0.0 0.0 0.0
41 1 54.2036320738 11.0496788422 0.0 0.0 0.0 0.0
42 1 60.5279320738 10.2978788422 0.0 0.0 0.0 0.0
43 1 65.0469320738 8.77462884224 0.0 0.0 0.0 0.0
44 1 73.5594320738 9.65014884224 0.0 0.0 0.0 0.0
45 1 0.855392073842 9.10546884224 0.0 0.0 0.0 0.0
46 1 0.0457210738419 13.8839788422 0.0 0.0 0.0 0.0
47 1 5.61974207384 14.8558788422 0.0 0.0 0.0 0.0
48 1 11.5587320738 15.0832788422 0.0 0.0 0.0 0.0
49 1 17.2107320738 14.6938788422 0.0 0.0 0.0 0.0
50 1 22.0529320738 15.4736788422 0.0 0.0 0.0 0.0
51 1 27.0427320738 14.6465788422 0.0 0.0 0.0 0.0
52 1 30.8587320738 17.2104788422 0.0 0.0 0.0 0.0
53 1 36.3737320738 16.8475788422 0.0 0.0 0.0 0.0
54 1 42.3922320738 17.4948788422 0.0 0.0 0.0 0.0
55 1 47.7222320738 17.0531788422 0.0 0.0 0.0 0.0
56 1 52.6489320738 15.4284788422 0.0 0.0 0.0 0.0
57 1 56.1961320738 13.2806788422 0.0 0.0 0.0 0.0
58 1 63.1297320738 14.2516788422 0.0 0.0 0.0 0.0
59 1 67.7393320738 14.7760788422 0.0 0.0 0.0 0.0
60 1 72.3965320738 14.6080788422 0.0 0.0 0.0 0.0
61 1 2.75390207384 20.6850788422 0.0 0.0 0.0 0.0
62 1 7.03185207384 17.5617788422 0.0 0.0 0.0 0.0
63 1 14.7340320738 18.8928788422 0.0 0.0 0.0 0.0
64 1 19.1528320738 22.0191788422 0.0 0.0 0.0 0.0
65 1 24.4113320738 19.7923788422 0.0 0.0 0.0 0.0
66 1 29.0321320738 19.5514788422 0.0 0.0 0.0 0.0
67 1 34.0146320738 21.1350788422 0.0 0.0 0.0 0.0
68 1 37.8806320738 19.4481788422 0.0 0.0 0.0 0.0
69 1 44.4000320738 19.7553788422 0.0 0.0 0.0 0.0
70 1 51.9072320738 20.3517788422 0.0 0.0 0.0 0.0
71 1 56.5630320738 19.0174788422 0.0 0.0 0.0 0.0
72 1 61.3994320738 20.8160788422 0.0 0.0 0.0 0.0
73 1 66.2409320738 21.0192788422 0.0 0.0 0.0 0.0
74 1 71.3124320738 19.3403788422 0.0 0.0 0.0 0.0
75 1 75.8597320738 18.6718788422 0.0 0.0 0.0 0.0
76 1 3.26261207384 24.6775788422 0.0 0.0 0.0 0.0
77 1 5.98720207384 23.3349788422 0.0 0.0 0.0 0.0
78 1 11.2795320738 23.0213788422 0.0 0.0 0.0 0.0
79 1 17.8675320738 24.7610788422 0.0 0.0 0.0 0.0
80 1 22.7160320738 24.8198788422 0.0 0.0 0.0 0.0
81 1 30.6210320738 26.2776788422 0.0 0.0 0.0 0.0
82 1 28.9662320738 23.7512788422 0.0 0.0 0.0 0.0
83 1 37.4933320738 25.1411788422 0.0 0.0 0.0 0.0
84 1 43.1668320738 25.3110788422 0.0 0.0 0.0 0.0
85 1 51.2989320738 24.6191788422 0.0 0.0 0.0 0.0
86 1 54.3036320738 24.3640788422 0.0 0.0 0.0 0.0
87 1 60.3489320738 23.6651788422 0.0 0.0 0.0 0.0
88 1 65.4575320738 23.8977788422 0.0 0.0 0.0 0.0
89 1 70.2974320738 24.2301788422 0.0 0.0 0.0 0.0
90 1 75.2135320738 23.6102788422 0.0 0.0 0.0 0.0
91 1 3.88448207384 29.5915788422 0.0 0.0 0.0 0.0
92 1 10.1419320738 27.2691788422 0.0 0.0 0.0 0.0
93 1 12.6961320738 25.6777788422 0.0 0.0 0.0 0.0
94 1 19.2095320738 29.3934788422 0.0 0.0 0.0 0.0
95 1 23.9803320738 29.6706788422 0.0 0.0 0.0 0.0
96 1 29.3579320738 30.1016788422 0.0 0.0 0.0 0.0
97 1 32.9854320738 28.2250788422 0.0 0.0 0.0 0.0
98 1 40.8051320738 31.0496788422 0.0 0.0 0.0 0.0
99 1 43.7261320738 30.2305788422 0.0 0.0 0.0 0.0
100 1 48.1643320738 28.3168788422 0.0 0.0 0.0 0.0
101 1 53.7983320738 29.0702788422 0.0 0.0 0.0 0.0
102 1 61.4692320738 27.9773788422 0.0 0.0 0.0 0.0
103 1 66.5988320738 28.5628788422 0.0 0.0 0.0 0.0
104 1 71.7791320738 28.4161788422 0.0 0.0 0.0 0.0
105 1 76.7565320738 29.0086788422 0.0 0.0 0.0 0.0
106 1 0.557802073842 34.0742788422 0.0 0.0 0.0 0.0
107 1 5.87253207384 33.8313788422 0.0 0.0 0.0 0.0
108 1 10.5964320738 33.0531788422 0.0 0.0 0.0 0.0
109 1 15.6542320738 32.6281788422 0.0 0.0 0.0 0.0
110 1 20.2190320738 32.2221788422 0.0 0.0 0.0 0.0
111 1 28.7128320738 34.9112788422 0.0 0.0 0.0 0.0
112 1 31.6675320738 34.1383788422 0.0 0.0 0.0 0.0
113 1 36.8694320738 35.3837788422 0.0 0.0 0.0 0.0
114 1 41.3733320738 35.9737788422 0.0 0.0 0.0 0.0
115 1 46.5965320738 35.2065788422 0.0 0.0 0.0 0.0
116 1 51.2176320738 33.0278788422 0.0 0.0 0.0 0.0
117 1 56.5460320738 33.9801788422 0.0 0.0 0.0 0.0
118 1 64.8370320738 32.6777788422 0.0 0.0 0.0 0.0
119 1 67.8737320738 32.7399788422 0.0 0.0 0.0 0.0
120 1 72.8124320738 33.1405788422 0.0 0.0 0.0 0.0
121 1 2.52909207384 38.2424788422 0.0 0.0 0.0 0.0
122 1 8.03844207384 38.2079788422 0.0 0.0 0.0 0.0
123 1 13.5378320738 37.4850788422 0.0 0.0 0.0 0.0
124 1 19.0568320738 37.2377788422 0.0 0.0 0.0 0.0
125 1 24.4143320738 38.5914788422 0.0 0.0 0.0 0.0
126 1 28.7753320738 40.0538788422 0.0 0.0 0.0 0.0
127 1 33.5580320738 39.1884788422 0.0 0.0 0.0 0.0
128 1 38.7160320738 40.5926788422 0.0 0.0 0.0 0.0
129 1 44.9048320738 39.9295788422 0.0 0.0 0.0 0.0
130 1 50.0632320738 38.5576788422 0.0 0.0 0.0 0.0
131 1 56.2207320738 36.9903788422 0.0 0.0 0.0 0.0
132 1 59.1815320738 37.3165788422 0.0 0.0 0.0 0.0
133 1 63.7304320738 37.5672788422 0.0 0.0 0.0 0.0
134 1 70.0141320738 37.6858788422 0.0 0.0 0.0 0.0
135 1 75.1680320738 38.0521788422 0.0 0.0 0.0 0.0
136 1 77.0682320738 42.9612788422 0.0 0.0 0.0 0.0
137 1 5.03231207384 42.3463788422 0.0 0.0 0.0 0.0
138 1 9.29703207384 40.9383788422 0.0 0.0 0.0 0.0
139 1 16.1693320738 41.5368788422 0.0 0.0 0.0 0.0
140 1 20.9472320738 42.1073788422 0.0 0.0 0.0 0.0
141 1 25.6583320738 44.0834788422 0.0 0.0 0.0 0.0
142 1 31.0911320738 44.3702788422 0.0 0.0 0.0 0.0
143 1 36.2157320738 44.1753788422 0.0 0.0 0.0 0.0
144 1 40.5311320738 42.9730788422 0.0 0.0 0.0 0.0
145 1 47.6479320738 43.5972788422 0.0 0.0 0.0 0.0
146 1 52.3344320738 43.0804788422 0.0 0.0 0.0 0.0
147 1 57.2144320738 42.5623788422 0.0 0.0 0.0 0.0
148 1 61.9320320738 42.3055788422 0.0 0.0 0.0 0.0
149 1 65.4410320738 40.0718788422 0.0 0.0 0.0 0.0
150 1 72.2595320738 42.3629788422 0.0 0.0 0.0 0.0
151 1 3.94985207384 46.5776788422 0.0 0.0 0.0 0.0
152 1 6.96927207384 46.4413788422 0.0 0.0 0.0 0.0
153 1 13.7186320738 45.9202788422 0.0 0.0 0.0 0.0
154 1 16.7267320738 46.1338788422 0.0 0.0 0.0 0.0
155 1 23.5828320738 47.4090788422 0.0 0.0 0.0 0.0
156 1 26.5373320738 46.9335788422 0.0 0.0 0.0 0.0
157 1 33.8614320738 48.7949788422 0.0 0.0 0.0 0.0
158 1 39.4318320738 48.4507788422 0.0 0.0 0.0 0.0
159 1 44.6092320738 48.1056788422 0.0 0.0 0.0 0.0
160 1 51.3224320738 47.9309788422 0.0 0.0 0.0 0.0
161 1 54.2725320738 47.4331788422 0.0 0.0 0.0 0.0
162 1 61.3067320738 46.8774788422 0.0 0.0 0.0 0.0
163 1 65.6683320738 45.9789788422 0.0 0.0 0.0 0.0
164 1 68.6791320738 46.0801788422 0.0 0.0 0.0 0.0
165 1 73.3493320738 47.2495788422 0.0 0.0 0.0 0.0
166 1 75.2067320738 51.5515788422 0.0 0.0 0.0 0.0
167 1 2.96675207384 51.1775788422 0.0 0.0 0.0 0.0
168 1 8.08365207384 51.6307788422 0.0 0.0 0.0 0.0
169 1 12.7610320738 51.2328788422 0.0 0.0 0.0 0.0
170 1 17.9194320738 51.6106788422 0.0 0.0 0.0 0.0
171 1 22.7846320738 54.5312788422 0.0 0.0 0.0 0.0
172 1 30.5626320738 52.5760788422 0.0 0.0 0.0 0.0
173 1 36.3827320738 52.7048788422 0.0 0.0 0.0 0.0
174 1 42.8698320738 52.7234788422 0.0 0.0 0.0 0.0
175 1 45.8605320738 52.9575788422 0.0 0.0 0.0 0.0
176 1 50.7493320738 53.3663788422 0.0 0.0 0.0 0.0
177 1 55.9974320738 52.4054788422 0.0 0.0 0.0 0.0
178 1 61.0407320738 51.7447788422 0.0 0.0 0.0 0.0
179 1 65.1670320738 54.4120788422 0.0 0.0 0.0 0.0
180 1 69.9500320738 51.4754788422 0.0 0.0 0.0 0.0
181 1 1.15400207384 55.7698788422 0.0 0.0 0.0 0.0
182 1 5.87586207384 58.1872788422 0.0 0.0 0.0 0.0
183 1 11.8156320738 56.0353788422 0.0 0.0 0.0 0.0
184 1 16.1808320738 58.5789788422 0.0 0.0 0.0 0.0
185 1 21.4932320738 57.2477788422 0.0 0.0 0.0 0.0
186 1 25.7198320738 55.2046788422 0.0 0.0 0.0 0.0
187 1 33.4493320738 56.3914788422 0.0 0.0 0.0 0.0
188 1 37.5255320738 59.8190788422 0.0 0.0 0.0 0.0
189 1 42.7209320738 58.0730788422 0.0 0.0 0.0 0.0
190 1 47.9511320738 57.8904788422 0.0 0.0 0.0 0.0
191 1 55.4267320738 56.6551788422 0.0 0.0 0.0 0.0
192 1 58.4407320738 56.6232788422 0.0 0.0 0.0 0.0
193 1 63.9079320738 57.2648788422 0.0 0.0 0.0 0.0
194 1 69.9333320738 56.4642788422 0.0 0.0 0.0 0.0
195 1 72.9283320738 55.9643788422 0.0 0.0 0.0 0.0
196 1 76.9902320738 59.7701788422 0.0 0.0 0.0 0.0
197 1 4.45728207384 60.8204788422 0.0 0.0 0.0 0.0
198 1 8.41765207384 59.7883788422 0.0 0.0 0.0 0.0
199 1 14.1896320738 63.5430788422 0.0 0.0 0.0 0.0
200 1 19.6753320738 62.1269788422 0.0 0.0 0.0 0.0
201 1 25.1405320738 60.7888788422 0.0 0.0 0.0 0.0
202 1 30.7310320738 60.3564788422 0.0 0.0 0.0 0.0
203 1 35.6932320738 62.1879788422 0.0 0.0 0.0 0.0
204 1 40.7268320738 63.1013788422 0.0 0.0 0.0 0.0
205 1 45.5766320738 62.5224788422 0.0 0.0 0.0 0.0
206 1 50.4277320738 62.1410788422 0.0 0.0 0.0 0.0
207 1 55.2931320738 61.6322788422 0.0 0.0 0.0 0.0
208 1 60.1003320738 61.0896788422 0.0 0.0 0.0 0.0
209 1 64.6489320738 60.2471788422 0.0 0.0 0.0 0.0
210 1 71.5613320738 61.0802788422 0.0 0.0 0.0 0.0
211 1 1.86184207384 64.9533788422 0.0 0.0 0.0 0.0
212 1 6.81317207384 65.4225788422 0.0 0.0 0.0 0.0
213 1 12.3418320738 65.9591788422 0.0 0.0 0.0 0.0
214 1 17.1138320738 66.8880788422 0.0 0.0 0.0 0.0
215 1 24.9034320738 64.5474788422 0.0 0.0 0.0 0.0
216 1 27.9042320738 64.6236788422 0.0 0.0 0.0 0.0
217 1 32.3471320738 65.6217788422 0.0 0.0 0.0 0.0
218 1 37.6018320738 67.1569788422 0.0 0.0 0.0 0.0
219 1 43.2790320738 67.5651788422 0.0 0.0 0.0 0.0
220 1 49.8103320738 66.5977788422 0.0 0.0 0.0 0.0
221 1 52.8126320738 66.5664788422 0.0 0.0 0.0 0.0
222 1 57.6617320738 66.1775788422 0.0 0.0 0.0 0.0
223 1 62.3052320738 65.5891788422 0.0 0.0 0.0 0.0
224 1 67.6528320738 64.8327788422 0.0 0.0 0.0 0.0
225 1 74.6842320738 64.3918788422 0.0 0.0 0.0 0.0
226 1 75.4368320738 69.2787788422 0.0 0.0 0.0 0.0
227 1 3.39101207384 69.8028788422 0.0 0.0 0.0 0.0
228 1 8.71790207384 69.7640788422 0.0 0.0 0.0 0.0
229 1 13.0654320738 68.8898788422 0.0 0.0 0.0 0.0
230 1 19.4072320738 68.7624788422 0.0 0.0 0.0 0.0
231 1 25.9115320738 70.3506788422 0.0 0.0 0.0 0.0
232 1 29.7911320738 70.0864788422 0.0 0.0 0.0 0.0
233 1 33.7130320738 72.8518788422 0.0 0.0 0.0 0.0
234 1 39.0196320738 71.1851788422 0.0 0.0 0.0 0.0
235 1 44.5616320738 71.3812788422 0.0 0.0 0.0 0.0
236 1 51.6713320738 71.1322788422 0.0 0.0 0.0 0.0
237 1 54.7569320738 71.1126788422 0.0 0.0 0.0 0.0
238 1 59.7939320738 70.8294788422 0.0 0.0 0.0 0.0
239 1 64.9013320738 69.5276788422 0.0 0.0 0.0 0.0
240 1 72.4380320738 68.6303788422 0.0 0.0 0.0 0.0
241 1 0.983002073842 73.9861788422 0.0 0.0 0.0 0.0
242 1 6.53661207384 74.1842788422 0.0 0.0 0.0 0.0
243 1 11.9522320738 74.2519788422 0.0 0.0 0.0 0.0
244 1 19.8971320738 74.1344788422 0.0 0.0 0.0 0.0
245 1 22.9179320738 74.4880788422 0.0 0.0 0.0 0.0
246 1 27.2835320738 77.5203788422 0.0 0.0 0.0 0.0
247 1 32.8176320738 75.7210788422 0.0 0.0 0.0 0.0
248 1 38.0968320738 77.9496788422 0.0 0.0 0.0 0.0
249 1 42.9224320738 75.1062788422 0.0 0.0 0.0 0.0
250 1 47.4150320738 78.4107788422 0.0 0.0 0.0 0.0
251 1 52.5328320738 76.5855788422 0.0 0.0 0.0 0.0
252 1 57.8149320738 75.8042788422 0.0 0.0 0.0 0.0
253 1 64.3975320738 74.1306788422 0.0 0.0 0.0 0.0
254 1 67.3960320738 73.8157788422 0.0 0.0 0.0 0.0
255 1 72.8103320738 75.7951788422 0.0 0.0 0.0 0.0
256 1 77.1346320738 1.75389884224 0.0 0.0 0.0 0.0
257 1 4.88180207384 1.42992884224 0.0 0.0 0.0 0.0
258 1 9.87423207384 1.95949884224 0.0 0.0 0.0 0.0
259 1 15.2807320738 2.00743884224 0.0 0.0 0.0 0.0
260 1 20.3354320738 2.78750884224 0.0 0.0 0.0 0.0
261 1 27.3294320738 4.60941884224 0.0 0.0 0.0 0.0
262 1 31.2798320738 3.34576884224 0.0 0.0 0.0 0.0
263 1 36.8195320738 2.55941884224 0.0 0.0 0.0 0.0
264 1 41.5552320738 5.03507884224 0.0 0.0 0.0 0.0
265 1 46.1890320738 4.95629884224 0.0 0.0 0.0 0.0
266 1 51.5523320738 4.11972884224 0.0 0.0 0.0 0.0
267 1 58.1517320738 5.13704884224 0.0 0.0 0.0 0.0
268 1 64.6867320738 5.80019884224 0.0 0.0 0.0 0.0
269 1 66.8250320738 3.71614884224 0.0 0.0 0.0 0.0
270 1 71.5125320738 1.49664884224 0.0 0.0 0.0 0.0
271 1 3.62149207384 6.23420884224 0.0 0.0 0.0 0.0
272 1 8.83136207384 4.79408884224 0.0 0.0 0.0 0.0
273 1 14.4423320738 7.87914884224 0.0 0.0 0.0 0.0
274 1 17.9188320738 6.69041884224 0.0 0.0 0.0 0.0
275 1 23.2993320738 7.30871884224 0.0 0.0 0.0 0.0
276 1 28.9173320738 7.15677884224 0.0 0.0 0.0 0.0
277 1 34.0594320738 8.22761884224 0.0 0.0 0.0 0.0
278 1 39.0282320738 9.89076884224 0.0 0.0 0.0 0.0
279 1 43.7988320738 9.92981884224 0.0 0.0 0.0 0.0
280 1 48.8322320738 9.06437884224 0.0 0.0 0.0 0.0
281 1 53.9274320738 8.08022884224 0.0 0.0 0.0 0.0
282 1 60.1618320738 7.32786884224 0.0 0.0 0.0 0.0
283 1 68.0326320738 8.85636884224 0.0 0.0 0.0 0.0
284 1 71.4923320738 4.51191884224 0.0 0.0 0.0 0.0
285 1 76.5880320738 6.60882884224 0.0 0.0 0.0 0.0
286 1 76.1316320738 11.1971788422 0.0 0.0 0.0 0.0
287 1 5.49666207384 11.8126788422 0.0 0.0 0.0 0.0
288 1 10.7465320738 12.1758788422 0.0 0.0 0.0 0.0
289 1 16.9602320738 9.51476884224 0.0 0.0 0.0 0.0
290 1 21.5930320738 12.4771788422 0.0 0.0 0.0 0.0
291 1 26.4137320738 11.6963788422 0.0 0.0 0.0 0.0
292 1 32.0190320738 10.4437788422 0.0 0.0 0.0 0.0
293 1 35.9448320738 13.8757788422 0.0 0.0 0.0 0.0
294 1 41.3718320738 14.6184788422 0.0 0.0 0.0 0.0
295 1 46.6176320738 14.2374788422 0.0 0.0 0.0 0.0
296 1 51.6556320738 12.6116788422 0.0 0.0 0.0 0.0
297 1 59.1472320738 12.9498788422 0.0 0.0 0.0 0.0
298 1 63.3607320738 11.2551788422 0.0 0.0 0.0 0.0
299 1 68.4834320738 11.8400788422 0.0 0.0 0.0 0.0
300 1 71.4699320738 11.7745788422 0.0 0.0 0.0 0.0
301 1 2.65825207384 15.3357788422 0.0 0.0 0.0 0.0
302 1 10.0546320738 17.7020788422 0.0 0.0 0.0 0.0
303 1 14.4541320738 15.8952788422 0.0 0.0 0.0 0.0
304 1 19.3395320738 16.8197788422 0.0 0.0 0.0 0.0
305 1 24.8055320738 16.7519788422 0.0 0.0 0.0 0.0
306 1 30.0816320738 14.3400788422 0.0 0.0 0.0 0.0
307 1 33.6937320738 18.1614788422 0.0 0.0 0.0 0.0
308 1 40.8026320738 20.0445788422 0.0 0.0 0.0 0.0
309 1 47.3756320738 20.0502788422 0.0 0.0 0.0 0.0
310 1 50.6543320738 17.6314788422 0.0 0.0 0.0 0.0
311 1 55.5292320738 16.1994788422 0.0 0.0 0.0 0.0
312 1 60.4699320738 15.6368788422 0.0 0.0 0.0 0.0
313 1 65.2028320738 16.3989788422 0.0 0.0 0.0 0.0
314 1 70.1494320738 16.5713788422 0.0 0.0 0.0 0.0
315 1 75.1332320738 15.7840788422 0.0 0.0 0.0 0.0
316 1 1.38684207384 18.0433788422 0.0 0.0 0.0 0.0
317 1 5.74283207384 20.3220788422 0.0 0.0 0.0 0.0
318 1 11.9489320738 20.0678788422 0.0 0.0 0.0 0.0
319 1 17.7183320738 19.3699788422 0.0 0.0 0.0 0.0
320 1 22.1757320738 21.8486788422 0.0 0.0 0.0 0.0
321 1 26.8450320738 21.5852788422 0.0 0.0 0.0 0.0
322 1 31.1043320738 21.6919788422 0.0 0.0 0.0 0.0
323 1 36.7727320738 22.2359788422 0.0 0.0 0.0 0.0
324 1 42.7925320738 22.2980788422 0.0 0.0 0.0 0.0
325 1 49.5313320738 22.1749788422 0.0 0.0 0.0 0.0
326 1 54.7247320738 21.3922788422 0.0 0.0 0.0 0.0
327 1 59.5097320738 18.4912788422 0.0 0.0 0.0 0.0
328 1 63.9242320738 19.1354788422 0.0 0.0 0.0 0.0
329 1 69.1983320738 21.4413788422 0.0 0.0 0.0 0.0
330 1 73.8803320738 20.9097788422 0.0 0.0 0.0 0.0
331 1 1.88984207384 27.3527788422 0.0 0.0 0.0 0.0
332 1 8.72002207384 24.6108788422 0.0 0.0 0.0 0.0
333 1 15.5335320738 26.6901788422 0.0 0.0 0.0 0.0
334 1 20.2632320738 26.5721788422 0.0 0.0 0.0 0.0
335 1 24.9423320738 26.8330788422 0.0 0.0 0.0 0.0
336 1 27.8872320738 27.4944788422 0.0 0.0 0.0 0.0
337 1 35.9755320738 27.7350788422 0.0 0.0 0.0 0.0
338 1 40.2874320738 26.2229788422 0.0 0.0 0.0 0.0
339 1 45.2008320738 27.5807788422 0.0 0.0 0.0 0.0
340 1 51.1116320738 27.6201788422 0.0 0.0 0.0 0.0
341 1 58.9168320738 26.3403788422 0.0 0.0 0.0 0.0
342 1 62.8349320738 25.3192788422 0.0 0.0 0.0 0.0
343 1 67.7526320738 25.8030788422 0.0 0.0 0.0 0.0
344 1 72.9521320738 25.6234788422 0.0 0.0 0.0 0.0
345 1 0.790492073842 22.9712788422 0.0 0.0 0.0 0.0
346 1 1.38015207384 31.2121788422 0.0 0.0 0.0 0.0
347 1 6.57408207384 30.9059788422 0.0 0.0 0.0 0.0
348 1 9.50613207384 30.2298788422 0.0 0.0 0.0 0.0
349 1 16.2122320738 29.6418788422 0.0 0.0 0.0 0.0
350 1 23.1796320738 32.5720788422 0.0 0.0 0.0 0.0
351 1 26.5861320738 31.1013788422 0.0 0.0 0.0 0.0
352 1 32.1576320738 31.1422788422 0.0 0.0 0.0 0.0
353 1 38.7868320738 28.8249788422 0.0 0.0 0.0 0.0
354 1 39.3949320738 33.7145788422 0.0 0.0 0.0 0.0
355 1 45.9310320738 32.2852788422 0.0 0.0 0.0 0.0
356 1 48.7565320738 31.2658788422 0.0 0.0 0.0 0.0
357 1 55.9325320738 26.9062788422 0.0 0.0 0.0 0.0
358 1 63.8600320738 29.8242788422 0.0 0.0 0.0 0.0
359 1 69.2119320738 30.0348788422 0.0 0.0 0.0 0.0
360 1 74.0497320738 30.3706788422 0.0 0.0 0.0 0.0
361 1 3.26656207384 35.3384788422 0.0 0.0 0.0 0.0
362 1 8.52085207384 35.2391788422 0.0 0.0 0.0 0.0
363 1 13.2570320738 34.4650788422 0.0 0.0 0.0 0.0
364 1 18.1294320738 34.3630788422 0.0 0.0 0.0 0.0
365 1 25.8356320738 33.9678788422 0.0 0.0 0.0 0.0
366 1 27.2294320738 37.5055788422 0.0 0.0 0.0 0.0
367 1 33.9328320738 36.1685788422 0.0 0.0 0.0 0.0
368 1 38.8787320738 37.6136788422 0.0 0.0 0.0 0.0
369 1 44.1943320738 37.0124788422 0.0 0.0 0.0 0.0
370 1 49.5934320738 35.5804788422 0.0 0.0 0.0 0.0
371 1 54.1192320738 32.1022788422 0.0 0.0 0.0 0.0
372 1 59.5890320738 34.3544788422 0.0 0.0 0.0 0.0
373 1 62.6169320738 34.7324788422 0.0 0.0 0.0 0.0
374 1 70.1884320738 34.6641788422 0.0 0.0 0.0 0.0
375 1 75.1235320738 35.0571788422 0.0 0.0 0.0 0.0
376 1 0.0734330738419 39.9734788422 0.0 0.0 0.0 0.0
377 1 5.28634207384 39.3716788422 0.0 0.0 0.0 0.0
378 1 12.1988320738 40.2053788422 0.0 0.0 0.0 0.0
379 1 16.3513320738 38.5442788422 0.0 0.0 0.0 0.0
380 1 21.4370320738 39.1124788422 0.0 0.0 0.0 0.0
381 1 26.0007320738 41.1311788422 0.0 0.0 0.0 0.0
382 1 31.4585320738 41.3658788422 0.0 0.0 0.0 0.0
383 1 35.7918320738 41.2028788422 0.0 0.0 0.0 0.0
384 1 43.4910320738 42.5817788422 0.0 0.0 0.0 0.0
385 1 47.8326320738 40.5903788422 0.0 0.0 0.0 0.0
386 1 52.6362320738 40.1076788422 0.0 0.0 0.0 0.0
387 1 55.6419320738 39.9518788422 0.0 0.0 0.0 0.0
388 1 61.3417320738 39.3703788422 0.0 0.0 0.0 0.0
389 1 68.4234320738 40.2499788422 0.0 0.0 0.0 0.0
390 1 72.4907320738 39.3715788422 0.0 0.0 0.0 0.0
391 1 2.50891207384 43.9509788422 0.0 0.0 0.0 0.0
392 1 7.77778207384 43.5432788422 0.0 0.0 0.0 0.0
393 1 13.5119320738 42.9135788422 0.0 0.0 0.0 0.0
394 1 18.3331320738 43.5893788422 0.0 0.0 0.0 0.0
395 1 22.7132320738 44.5409788422 0.0 0.0 0.0 0.0
396 1 29.5302320738 46.9569788422 0.0 0.0 0.0 0.0
397 1 33.7162320738 45.8069788422 0.0 0.0 0.0 0.0
398 1 38.9174320738 45.4915788422 0.0 0.0 0.0 0.0
399 1 45.0702320738 45.1297788422 0.0 0.0 0.0 0.0
400 1 50.1888320738 45.1620788422 0.0 0.0 0.0 0.0
401 1 54.9523320738 44.5220788422 0.0 0.0 0.0 0.0
402 1 59.7090320738 44.2937788422 0.0 0.0 0.0 0.0
403 1 64.8285320738 43.0491788422 0.0 0.0 0.0 0.0
404 1 69.3664320738 43.1288788422 0.0 0.0 0.0 0.0
405 1 74.4304320738 44.4280788422 0.0 0.0 0.0 0.0
406 1 76.0110320738 48.6651788422 0.0 0.0 0.0 0.0
407 1 1.63728207384 48.4945788422 0.0 0.0 0.0 0.0
408 1 8.92134207384 48.7329788422 0.0 0.0 0.0 0.0
409 1 11.9121320738 48.3435788422 0.0 0.0 0.0 0.0
410 1 18.3570320738 48.6512788422 0.0 0.0 0.0 0.0
411 1 21.2788320738 49.3021788422 0.0 0.0 0.0 0.0
412 1 30.9665320738 49.6027788422 0.0 0.0 0.0 0.0
413 1 36.7163320738 49.7369788422 0.0 0.0 0.0 0.0
414 1 42.1224320738 49.8032788422 0.0 0.0 0.0 0.0
415 1 46.8366320738 50.1216788422 0.0 0.0 0.0 0.0
416 1 49.8094320738 50.5110788422 0.0 0.0 0.0 0.0
417 1 56.4631320738 49.4592788422 0.0 0.0 0.0 0.0
418 1 59.4428320738 49.2079788422 0.0 0.0 0.0 0.0
419 1 63.9126320738 48.4600788422 0.0 0.0 0.0 0.0
420 1 70.5553320738 48.4729788422 0.0 0.0 0.0 0.0
421 1 0.498852073842 52.8615788422 0.0 0.0 0.0 0.0
422 1 5.38181207384 52.9494788422 0.0 0.0 0.0 0.0
423 1 10.5767320738 53.2971788422 0.0 0.0 0.0 0.0
424 1 15.2383320738 52.9294788422 0.0 0.0 0.0 0.0
425 1 20.8411320738 52.2544788422 0.0 0.0 0.0 0.0
426 1 28.7336320738 54.9764788422 0.0 0.0 0.0 0.0
427 1 33.4557320738 53.4018788422 0.0 0.0 0.0 0.0
428 1 38.4324320738 54.8989788422 0.0 0.0 0.0 0.0
429 1 41.4116320738 55.3505788422 0.0 0.0 0.0 0.0
430 1 48.1577320738 54.8938788422 0.0 0.0 0.0 0.0
431 1 53.6335320738 54.2376788422 0.0 0.0 0.0 0.0
432 1 58.7321320738 53.6486788422 0.0 0.0 0.0 0.0
433 1 64.0372320738 51.5430788422 0.0 0.0 0.0 0.0
434 1 68.1870320738 53.9708788422 0.0 0.0 0.0 0.0
435 1 72.5672320738 52.9729788422 0.0 0.0 0.0 0.0
436 1 75.7968320738 57.0088788422 0.0 0.0 0.0 0.0
437 1 4.17412207384 55.7107788422 0.0 0.0 0.0 0.0
438 1 11.3090320738 58.9916788422 0.0 0.0 0.0 0.0
439 1 14.8155320738 55.8978788422 0.0 0.0 0.0 0.0
440 1 19.1440320738 59.1527788422 0.0 0.0 0.0 0.0
441 1 24.4180320738 57.9006788422 0.0 0.0 0.0 0.0
442 1 30.6083320738 57.3494788422 0.0 0.0 0.0 0.0
443 1 36.3657320738 57.0714788422 0.0 0.0 0.0 0.0
444 1 40.5126320738 60.1133788422 0.0 0.0 0.0 0.0
445 1 45.3920320738 59.4953788422 0.0 0.0 0.0 0.0
446 1 50.6803320738 59.1596788422 0.0 0.0 0.0 0.0
447 1 53.6899320738 59.0895788422 0.0 0.0 0.0 0.0
448 1 61.0063320738 58.2001788422 0.0 0.0 0.0 0.0
449 1 67.2597320738 61.7813788422 0.0 0.0 0.0 0.0
450 1 69.1094320738 59.3778788422 0.0 0.0 0.0 0.0
451 1 1.68303207384 61.9399788422 0.0 0.0 0.0 0.0
452 1 6.98416207384 62.4219788422 0.0 0.0 0.0 0.0
453 1 13.8872320738 60.5439788422 0.0 0.0 0.0 0.0
454 1 17.1927320738 63.8819788422 0.0 0.0 0.0 0.0
455 1 22.6824320738 62.5314788422 0.0 0.0 0.0 0.0
456 1 28.0275320738 61.6400788422 0.0 0.0 0.0 0.0
457 1 32.7198320738 62.6255788422 0.0 0.0 0.0 0.0
458 1 37.9277320738 64.1843788422 0.0 0.0 0.0 0.0
459 1 43.3506320738 64.5516788422 0.0 0.0 0.0 0.0
460 1 48.1541320738 64.0817788422 0.0 0.0 0.0 0.0
461 1 53.0456320738 63.5918788422 0.0 0.0 0.0 0.0
462 1 57.8861320738 63.1465788422 0.0 0.0 0.0 0.0
463 1 62.6963320738 62.5761788422 0.0 0.0 0.0 0.0
464 1 71.7236320738 64.0612788422 0.0 0.0 0.0 0.0
465 1 74.5191320738 61.4167788422 0.0 0.0 0.0 0.0
466 1 76.7282320738 66.5695788422 0.0 0.0 0.0 0.0
467 1 4.17105207384 66.8798788422 0.0 0.0 0.0 0.0
468 1 9.45753207384 66.8397788422 0.0 0.0 0.0 0.0
469 1 15.9465320738 69.6673788422 0.0 0.0 0.0 0.0
470 1 22.3470320738 68.6665788422 0.0 0.0 0.0 0.0
471 1 25.0760320738 67.5080788422 0.0 0.0 0.0 0.0
472 1 29.6881320738 67.0567788422 0.0 0.0 0.0 0.0
473 1 34.6118320738 67.6113788422 0.0 0.0 0.0 0.0
474 1 40.3340320738 68.4585788422 0.0 0.0 0.0 0.0
475 1 46.0706320738 68.8197788422 0.0 0.0 0.0 0.0
476 1 49.0599320738 69.4937788422 0.0 0.0 0.0 0.0
477 1 55.3652320738 68.1506788422 0.0 0.0 0.0 0.0
478 1 60.2020320738 67.7974788422 0.0 0.0 0.0 0.0
479 1 65.1543320738 66.5315788422 0.0 0.0 0.0 0.0
480 1 70.1522320738 66.5867788422 0.0 0.0 0.0 0.0
481 1 0.582812073842 70.9778788422 0.0 0.0 0.0 0.0
482 1 6.07230207384 71.2045788422 0.0 0.0 0.0 0.0
483 1 11.2897320738 71.3116788422 0.0 0.0 0.0 0.0
484 1 18.3019320738 71.5471788422 0.0 0.0 0.0 0.0
485 1 23.1715320738 71.5193788422 0.0 0.0 0.0 0.0
486 1 27.9594320738 72.5054788422 0.0 0.0 0.0 0.0
487 1 32.7919320738 70.0084788422 0.0 0.0 0.0 0.0
488 1 36.6985320738 73.1264788422 0.0 0.0 0.0 0.0
489 1 41.7520320738 72.3690788422 0.0 0.0 0.0 0.0
490 1 45.7230320738 74.1162788422 0.0 0.0 0.0 0.0
491 1 50.9379320738 74.0526788422 0.0 0.0 0.0 0.0
492 1 57.3800320738 72.7377788422 0.0 0.0 0.0 0.0
493 1 62.7206320738 71.6167788422 0.0 0.0 0.0 0.0
494 1 67.6044320738 70.8269788422 0.0 0.0 0.0 0.0
495 1 70.5894320738 70.9867788422 0.0 0.0 0.0 0.0
496 1 75.8389320738 75.6497788422 0.0 0.0 0.0 0.0
497 1 3.73019207384 75.3150788422 0.0 0.0 0.0 0.0
498 1 9.23903207384 75.5850788422 0.0 0.0 0.0 0.0
499 1 14.5490320738 75.8186788422 0.0 0.0 0.0 0.0
500 1 17.5585320738 76.0302788422 0.0 0.0 0.0 0.0
501 1 25.9565320738 74.8103788422 0.0 0.0 0.0 0.0
502 1 30.3244320738 77.4525788422 0.0 0.0 0.0 0.0
503 1 35.8198320738 76.0053788422 0.0 0.0 0.0 0.0
504 1 41.0194320738 77.3837788422 0.0 0.0 0.0 0.0
505 1 48.3247320738 75.5424788422 0.0 0.0 0.0 0.0
506 1 50.3964320738 78.7165788422 0.0 0.0 0.0 0.0
507 1 55.3554320738 77.6267788422 0.0 0.0 0.0 0.0
508 1 60.3773320738 77.5118788422 0.0 0.0 0.0 0.0
509 1 63.3601320738 76.9483788422 0.0 0.0 0.0 0.0
510 1 70.4034320738 73.9813788422 0.0 0.0 0.0 0.0
511 1 4.39946207384 78.2607788422 0.0 0.0 0.0 0.0
512 1 9.72223207384 78.5694788422 0.0 0.0 0.0 0.0
513 1 14.7266320738 78.8240788422 0.0 0.0 0.0 0.0
514 1 19.8992320738 81.1476788422 0.0 0.0 0.0 0.0
515 1 25.7072320738 80.1179788422 0.0 0.0 0.0 0.0
516 1 31.0102320738 80.3812788422 0.0 0.0 0.0 0.0
517 1 39.1917320738 80.7394788422 0.0 0.0 0.0 0.0
518 1 42.1238320738 80.1578788422 0.0 0.0 0.0 0.0
519 1 45.6895320738 0.58360584224 0.0 0.0 0.0 0.0
520 1 51.3583320738 81.5365788422 0.0 0.0 0.0 0.0
521 1 55.9341320738 0.14634704224 0.0 0.0 0.0 0.0
522 1 61.0951320738 80.4675788422 0.0 0.0 0.0 0.0
523 1 65.6714320738 78.9167788422 0.0 0.0 0.0 0.0
524 1 71.5220320738 78.5247788422 0.0 0.0 0.0 0.0
525 1 76.4735320738 78.5907788422 0.0 0.0 0.0 0.0
526 1 1.82912207384 79.8177788422 0.0 0.0 0.0 0.0
527 1 6.99150207384 79.8274788422 0.0 0.0 0.0 0.0
528 1 12.1524320738 80.3862788422 0.0 0.0 0.0 0.0
529 1 17.7346320738 79.0313788422 0.0 0.0 0.0 0.0
530 1 22.9491320738 81.4390788422 0.0 0.0 0.0 0.0
531 1 28.2864320738 81.6963788422 0.0 0.0 0.0 0.0
532 1 33.7239320738 81.7162788422 0.0 0.0 0.0 0.0
533 1 36.6675320738 82.3213788422 0.0 0.0 0.0 0.0
534 1 45.1189320738 80.3905788422 0.0 0.0 0.0 0.0
535 1 48.7186320738 0.30804284224 0.0 0.0 0.0 0.0
536 1 54.2042320738 80.4525788422 0.0 0.0 0.0 0.0
537 1 58.9353320738 82.5759788422 0.0 0.0 0.0 0.0
538 1 63.9930320738 81.4196788422 0.0 0.0 0.0 0.0
539 1 68.6571320738 79.5104788422 0.0 0.0 0.0 0.0
540 1 73.9789320738 80.2757788422 0.0 0.0 0.0 0.0
541 2 2.02539207384 81.3082788422 0.0 0.0 0.0 0.0
542 2 3.53872207384 0.75518984224 0.0 0.0 0.0 0.0
543 2 0.940902073842 0.84121584224 0.0 0.0 0.0 0.0
544 2 7.27170207384 81.3101788422 0.0 0.0 0.0 0.0
545 2 8.73674207384 0.95540684224 0.0 0.0 0.0 0.0
546 2 6.18734207384 0.69381484224 0.0 0.0 0.0 0.0
547 2 12.3560320738 81.8849788422 0.0 0.0 0.0 0.0
548 2 13.9368320738 1.30617884224 0.0 0.0 0.0 0.0
549 2 11.2617320738 1.36676884224 0.0 0.0 0.0 0.0
550 2 19.1374320738 1.89084884224 0.0 0.0 0.0 0.0
551 2 18.9377320738 82.3295788422 0.0 0.0 0.0 0.0
552 2 16.6398320738 1.32417884224 0.0 0.0 0.0 0.0
553 2 23.1646320738 0.19042224224 0.0 0.0 0.0 0.0
554 2 23.8216320738 3.05267884224 0.0 0.0 0.0 0.0
555 2 21.6979320738 2.16781884224 0.0 0.0 0.0 0.0
556 2 28.3937320738 0.44917884224 0.0 0.0 0.0 0.0
557 2 30.0169320738 2.55852884224 0.0 0.0 0.0 0.0
558 2 27.9036320738 3.22436884224 0.0 0.0 0.0 0.0
559 2 35.3088320738 2.46156884224 0.0 0.0 0.0 0.0
560 2 33.6932320738 0.46494384224 0.0 0.0 0.0 0.0
561 2 32.6043320738 2.66717884224 0.0 0.0 0.0 0.0
562 2 37.7016320738 3.76648884224 0.0 0.0 0.0 0.0
563 2 40.0373320738 4.91463884224 0.0 0.0 0.0 0.0
564 2 37.7496320738 6.32272884224 0.0 0.0 0.0 0.0
565 2 44.6798320738 1.73892884224 0.0 0.0 0.0 0.0
566 2 42.6262320738 3.94867884224 0.0 0.0 0.0 0.0
567 2 45.0010320738 4.05175884224 0.0 0.0 0.0 0.0
568 2 48.7564320738 1.80892884224 0.0 0.0 0.0 0.0
569 2 47.4688320738 4.16276884224 0.0 0.0 0.0 0.0
570 2 50.1200320738 3.70860884224 0.0 0.0 0.0 0.0
571 2 55.0216320738 1.36512884224 0.0 0.0 0.0 0.0
572 2 54.7040320738 3.96981884224 0.0 0.0 0.0 0.0
573 2 52.7365320738 3.19031884224 0.0 0.0 0.0 0.0
574 2 59.4714320738 1.23533884224 0.0 0.0 0.0 0.0
575 2 58.8659320738 3.82013884224 0.0 0.0 0.0 0.0
576 2 61.0396320738 3.61298884224 0.0 0.0 0.0 0.0
577 2 66.4530320738 2.25934884224 0.0 0.0 0.0 0.0
578 2 64.9830320738 82.5896788422 0.0 0.0 0.0 0.0
579 2 67.6133320738 0.26646724224 0.0 0.0 0.0 0.0
580 2 68.8985320738 81.0043788422 0.0 0.0 0.0 0.0
581 2 70.2762320738 0.61899784224 0.0 0.0 0.0 0.0
582 2 74.1922320738 81.7638788422 0.0 0.0 0.0 0.0
583 2 75.7228320738 1.19250684224 0.0 0.0 0.0 0.0
584 2 72.9526320738 1.04218384224 0.0 0.0 0.0 0.0
585 2 0.464932073842 3.08401884224 0.0 0.0 0.0 0.0
586 2 2.43654207384 5.27903884224 0.0 0.0 0.0 0.0
587 2 0.115572073842 5.44429884224 0.0 0.0 0.0 0.0
588 2 5.30469207384 2.87203884224 0.0 0.0 0.0 0.0
589 2 7.34143207384 4.56007884224 0.0 0.0 0.0 0.0
590 2 4.81210207384 5.31707884224 0.0 0.0 0.0 0.0
591 2 9.13683207384 6.27879884224 0.0 0.0 0.0 0.0
592 2 10.6864320738 8.46265884224 0.0 0.0 0.0 0.0
593 2 8.57950207384 9.08826884224 0.0 0.0 0.0 0.0
594 2 16.7625320738 5.73449884224 0.0 0.0 0.0 0.0
595 2 15.2849320738 3.53219884224 0.0 0.0 0.0 0.0
596 2 14.7105320738 6.38750884224 0.0 0.0 0.0 0.0
597 2 20.5501320738 4.27237884224 0.0 0.0 0.0 0.0
598 2 21.9344320738 6.65071884224 0.0 0.0 0.0 0.0