# input file

1350 atoms
2 atom types

0.0 77.8330011607 xlo xhi
0.0 82.6359691145 ylo yhi
-10.0 10.0 zlo zhi
0.0 0.0 0.0 xy xz yz

Masses

1 28.0855 #Si
2 15.9994 #O

Atoms

1 1 3.84152835718 1.66501455723 0.0
2 1 11.8286383572 2.31502455723 0.0
3 1 11.8736383572 81.9914845572 0.0
4 1 18.7012383572 2.14129455723 0.0
5 1 24.2475383572 0.958690557234 0.0
6 1 29.9835383572 0.430620557234 0.0
7 1 34.5622383572 2.94767455723 0.0
8 1 39.8067383572 0.952127557234 0.0
9 1 45.0660383572 0.702307557234 0.0
10 1 52.4065383572 1.48847455723 0.0
11 1 55.3882383572 1.18309455723 0.0
12 1 60.7154383572 0.937239557234 0.0
13 1 66.2200383572 1.31471455723 0.0
14 1 71.2715383572 2.17422455723 0.0
15 1 0.792118357178 1.75640455723 0.0
16 1 77.3570383572 6.87719455723 0.0
17 1 6.71866835718 6.65315455723 0.0
18 1 11.1839383572 5.82799455723 0.0
19 1 13.8628383572 4.50541455723 0.0
20 1 21.1211383572 5.62970455723 0.0
21 1 27.1866383572 4.65514455723 0.0
22 1 32.6653383572 5.29136455723 0.0
23 1 37.0498383572 6.04557455723 0.0
24 1 43.8203383572 4.97750455723 0.0
25 1 46.3655383572 3.40329455723 0.0
26 1 52.3583383572 7.09303455723 0.0
27 1 59.6895383572 5.02974455723 0.0
28 1 62.6905383572 5.25244455723 0.0
29 1 67.4214383572 6.21215455723 0.0
30 1 72.2051383572 6.90968455723 0.0
31 1 2.59246835718 13.6215845572 0.0
32 1 7.19763835718 11.0349845572 0.0
33 1 12.8401383572 12.6090845572 0.0
34 1 18.2887383572 10.0975545572 0.0
35 1 22.7110383572 8.17958455723 0.0
36 1 28.3848383572 11.6143845572 0.0
37 1 34.1431383572 10.6564845572 0.0
38 1 38.1307383572 8.83721455723 0.0
39 1 44.5483383572 10.9279845572 0.0
40 1 49.0441383572 11.1821845572 0.0
41 1 55.8657383572 11.0790845572 0.0
42 1 58.7731383572 10.4165845572 0.0
43 1 63.7684383572 10.4192845572 0.0
44 1 68.4310383572 11.1917845572 0.0
45 1 74.1050383572 11.3729845572 0.0
46 1 76.2189383572 13.4933845572 0.0
47 1 5.27776835718 16.4630845572 0.0
48 1 13.4916383572 15.5768845572 0.0
49 1 16.3743383572 14.7637845572 0.0
50 1 22.8898383572 13.3749845572 0.0
51 1 25.9377383572 13.4132845572 0.0
52 1 30.8278383572 14.8632845572 0.0
53 1 40.2112383572 16.5275845572 0.0
54 1 39.2756383572 13.6493845572 0.0
55 1 47.0471383572 16.0319845572 0.0
56 1 50.0420383572 16.1084845572 0.0
57 1 54.9382383572 16.3601845572 0.0
58 1 60.4501383572 14.9953845572 0.0
59 1 65.5418383572 15.6867845572 0.0
60 1 69.4638383572 14.0142845572 0.0
61 1 0.710298357178 19.1203845572 0.0
62 1 6.09442835718 20.5353845572 0.0
63 1 10.4157383572 19.4327845572 0.0
64 1 17.4398383572 19.8320845572 0.0
65 1 22.0343383572 18.8646845572 0.0
66 1 29.0012383572 18.4635845572 0.0
67 1 31.8789383572 17.6545845572 0.0
68 1 37.9697383572 20.8096845572 0.0
69 1 42.7515383572 21.3766845572 0.0
70 1 46.8863383572 21.4991845572 0.0
71 1 52.4113383572 20.9643845572 0.0
72 1 58.1418383572 19.6601845572 0.0
73 1 62.9472383572 21.9224845572 0.0
74 1 70.4251383572 19.0496845572 0.0
75 1 73.4718383572 18.8274845572 0.0
76 1 77.4962383572 23.2107845572 0.0
77 1 2.62820835718 23.8464845572 0.0
78 1 8.20211835718 24.8346845572 0.0
79 1 13.8640383572 24.2349845572 0.0
80 1 21.0894383572 24.0526845572 0.0
81 1 24.0146383572 23.4255845572 0.0
82 1 28.3653383572 26.6098845572 0.0
83 1 35.7483383572 24.6640845572 0.0
84 1 38.6601383572 25.4010845572 0.0
85 1 43.5880383572 26.4612845572 0.0
86 1 49.5948383572 25.5003845572 0.0
87 1 55.1570383572 24.0854845572 0.0
88 1 61.3549383572 24.5063845572 0.0
89 1 66.0844383572 24.8447845572 0.0
90 1 70.4044383572 24.4407845572 0.0
91 1 77.7808383572 28.3595845572 0.0
92 1 5.31790835718 28.4272845572 0.0
93 1 10.5654383572 28.5194845572 0.0
94 1 15.0004383572 27.0678845572 0.0
95 1 21.9769383572 29.6986845572 0.0
96 1 26.7438383572 29.1449845572 0.0
97 1 31.5068383572 30.0543845572 0.0
98 1 35.8209383572 29.9184845572 0.0
99 1 40.4286383572 32.4363845572 0.0
100 1 45.2139383572 29.0085845572 0.0
101 1 54.3067383572 28.1081845572 0.0
102 1 56.8482383572 26.5499845572 0.0
103 1 63.4954383572 29.4557845572 0.0
104 1 68.3600383572 31.3271845572 0.0
105 1 73.2125383572 28.8374845572 0.0
106 1 75.9536383572 33.5173845572 0.0
107 1 2.86988835718 32.7578845572 0.0
108 1 7.91365835718 32.9799845572 0.0
109 1 13.1116383572 32.6322845572 0.0
110 1 18.6509383572 33.7781845572 0.0
111 1 25.8651383572 33.9992845572 0.0
112 1 28.8865383572 34.2846845572 0.0
113 1 33.9008383572 36.7907845572 0.0
114 1 39.2464383572 35.2467845572 0.0
115 1 43.9301383572 34.3497845572 0.0
116 1 49.2212383572 33.1503845572 0.0
117 1 55.8124383572 32.6111845572 0.0
118 1 59.9277383572 35.4197845572 0.0
119 1 68.7177383572 34.2677845572 0.0
120 1 71.6961383572 34.1223845572 0.0
121 1 1.14235835718 37.9000845572 0.0
122 1 5.52809835718 39.8811845572 0.0
123 1 10.1996383572 37.3357845572 0.0
124 1 14.9774383572 37.1245845572 0.0
125 1 20.1529383572 38.7934845572 0.0
126 1 26.4702383572 40.9456845572 0.0
127 1 32.2093383572 39.2769845572 0.0
128 1 36.8792383572 40.2400845572 0.0
129 1 42.4415383572 39.5878845572 0.0
130 1 47.2451383572 37.9736845572 0.0
131 1 51.5303383572 35.0549845572 0.0
132 1 58.3639383572 37.9867845572 0.0
133 1 61.9071383572 37.6902845572 0.0
134 1 69.1769383572 39.3376845572 0.0
135 1 74.5032383572 38.8687845572 0.0
136 1 76.7818383572 43.3556845572 0.0
137 1 4.35464835718 42.6345845572 0.0
138 1 9.38093835718 42.7252845572 0.0
139 1 13.1787383572 41.9945845572 0.0
140 1 17.8862383572 44.3373845572 0.0
141 1 21.8345383572 41.2832845572 0.0
142 1 29.4184383572 43.2936845572 0.0
143 1 33.8891383572 44.5400845572 0.0
144 1 38.3632383572 42.8736845572 0.0
145 1 45.3843383572 43.3211845572 0.0
146 1 51.8144383572 40.2616845572 0.0
147 1 54.6919383572 41.1099845572 0.0
148 1 60.4236383572 43.2912845572 0.0
149 1 66.2279383572 43.7426845572 0.0
150 1 71.4877383572 43.4201845572 0.0
151 1 0.119070357178 46.1568845572 0.0
152 1 6.81027835718 49.5937845572 0.0
153 1 12.1382383572 47.6084845572 0.0
154 1 17.4396383572 47.2892845572 0.0
155 1 21.8048383572 49.8295845572 0.0
156 1 26.4646383572 46.9584845572 0.0
157 1 30.9379383572 50.5438845572 0.0
158 1 39.6824383572 48.3931845572 0.0
159 1 43.5204383572 50.8712845572 0.0
160 1 50.2510383572 46.7269845572 0.0
161 1 52.2321383572 44.5070845572 0.0
162 1 56.2386383572 46.9171845572 0.0
163 1 63.4916383572 47.2177845572 0.0
164 1 69.0256383572 48.0294845572 0.0
165 1 74.1813383572 47.8085845572 0.0
166 1 77.3149383572 52.0427845572 0.0
167 1 5.02737835718 52.0129845572 0.0
168 1 10.1136383572 52.5504845572 0.0
169 1 15.2711383572 51.8746845572 0.0
170 1 20.6950383572 52.6370845572 0.0
171 1 26.0822383572 52.1651845572 0.0
172 1 33.8776383572 49.8327845572 0.0
173 1 38.8010383572 51.2741845572 0.0
174 1 46.3483383572 51.8910845572 0.0
175 1 50.1345383572 53.5244845572 0.0
176 1 54.7831383572 49.6060845572 0.0
177 1 57.4541383572 54.7793845572 0.0
178 1 61.5471383572 51.4515845572 0.0
179 1 66.8993383572 53.1172845572 0.0
180 1 72.3864383572 52.3809845572 0.0
181 1 3.13565835718 56.1329845572 0.0
182 1 7.90101835718 58.9954845572 0.0
183 1 13.2854383572 56.7043845572 0.0
184 1 18.5510383572 58.1775845572 0.0
185 1 24.3016383572 56.6485845572 0.0
186 1 29.9059383572 55.7615845572 0.0
187 1 35.2606383572 55.0013845572 0.0
188 1 40.8838383572 55.9232845572 0.0
189 1 48.5033383572 57.4829845572 0.0
190 1 51.4885383572 57.0789845572 0.0
191 1 56.0076383572 57.4556845572 0.0
192 1 63.0474383572 55.8103845572 0.0
193 1 66.0619383572 55.9843845572 0.0
194 1 71.4779383572 58.4294845572 0.0
195 1 76.2972383572 58.9614845572 0.0
196 1 2.62403835718 61.4190845572 0.0
197 1 6.76958835718 63.8121845572 0.0
198 1 11.8888383572 61.5533845572 0.0
199 1 17.2801383572 60.9127845572 0.0
200 1 22.4600383572 60.8446845572 0.0
201 1 28.0896383572 60.1840845572 0.0
202 1 34.3567383572 59.3383845572 0.0
203 1 37.3634383572 59.3696845572 0.0
204 1 41.8055383572 58.8027845572 0.0
205 1 48.2873383572 63.0216845572 0.0
206 1 53.2472383572 62.2367845572 0.0
207 1 57.2082383572 60.1934845572 0.0
208 1 64.0378383572 61.5081845572 0.0
209 1 70.7208383572 61.3652845572 0.0
210 1 75.8038383572 61.9327845572 0.0
211 1 5.35743835718 66.4738845572 0.0
212 1 10.1183383572 66.6893845572 0.0
213 1 14.9920383572 65.5564845572 0.0
214 1 20.0303383572 65.3745845572 0.0
215 1 25.1816383572 64.5020845572 0.0
216 1 30.2507383572 64.7146845572 0.0
217 1 35.2056383572 64.9046845572 0.0
218 1 40.9655383572 63.8960845572 0.0
219 1 43.9392383572 63.5198845572 0.0
220 1 50.3880383572 67.2345845572 0.0
221 1 57.6850383572 65.5980845572 0.0
222 1 60.6904383572 65.7262845572 0.0
223 1 65.5695383572 64.0628845572 0.0
224 1 72.0105383572 66.0338845572 0.0
225 1 77.6933383572 66.5794845572 0.0
226 1 1.90315835718 70.6669845572 0.0
227 1 7.11843835718 71.3636845572 0.0
228 1 13.1837383572 70.7296845572 0.0
229 1 18.3485383572 69.9847845572 0.0
230 1 23.4172383572 69.3018845572 0.0
231 1 28.3779383572 69.0683845572 0.0
232 1 32.3093383572 72.0136845572 0.0
233 1 37.5765383572 69.9943845572 0.0
234 1 42.3114383572 69.3104845572 0.0
235 1 45.2806383572 73.3434845572 0.0
236 1 53.2832383572 71.2800845572 0.0
237 1 58.5538383572 70.3237845572 0.0
238 1 64.3744383572 69.2968845572 0.0
239 1 70.1866383572 70.2244845572 0.0
240 1 72.9064383572 68.8863845572 0.0
241 1 4.07174835718 75.4060845572 0.0
242 1 8.54455835718 74.0070845572 0.0
243 1 16.1959383572 74.7914845572 0.0
244 1 22.6640383572 73.7372845572 0.0
245 1 25.6557383572 73.8086845572 0.0
246 1 30.5391383572 74.4452845572 0.0
247 1 35.7894383572 74.9313845572 0.0
248 1 40.6217383572 74.4960845572 0.0
249 1 48.1454383572 74.3115845572 0.0
250 1 52.2821383572 75.7576845572 0.0
251 1 57.7187383572 76.6591845572 0.0
252 1 62.5440383572 73.5881845572 0.0
253 1 67.9282383572 74.9259845572 0.0
254 1 72.1550383572 75.6489845572 0.0
255 1 76.8486383572 74.9761845572 0.0
256 1 76.5493383572 3.97152455723 0.0
257 1 6.13071835718 3.68434455723 0.0
258 1 9.14460835718 3.61013455723 0.0
259 1 16.8684383572 4.54351455723 0.0
260 1 21.6916383572 2.64983455723 0.0
261 1 27.1997383572 1.65894455723 0.0
262 1 33.0266383572 0.379126557234 0.0
263 1 37.5811383572 3.05808455723 0.0
264 1 42.5014383572 2.28292455723 0.0
265 1 48.5903383572 5.40540455723 0.0
266 1 51.3581383572 4.28475455723 0.0
267 1 58.1278383572 2.46270455723 0.0
268 1 63.3858383572 2.32942455723 0.0
269 1 68.4605383572 3.34877455723 0.0
270 1 73.5182383572 4.18474455723 0.0
271 1 1.89579835718 8.73736455723 0.0
272 1 4.91233835718 9.03534455723 0.0
273 1 9.35583835718 8.15637455723 0.0
274 1 18.4729383572 7.07631455723 0.0
275 1 25.5327383572 7.15492455723 0.0
276 1 29.7866383572 6.13846455723 0.0
277 1 34.4924383572 7.65163455723 0.0
278 1 41.0938383572 9.02139455723 0.0
279 1 43.8881383572 7.98728455723 0.0
280 1 49.5863383572 8.23071455723 0.0
281 1 55.1368383572 8.18279455723 0.0
282 1 58.0458383572 7.52031455723 0.0
283 1 64.6799383572 7.51919455723 0.0
284 1 69.5399383572 8.35899455723 0.0
285 1 74.7809383572 8.44764455723 0.0
286 1 0.579838357178 11.4406845572 0.0
287 1 5.56376835718 13.5105845572 0.0
288 1 10.2179383572 11.0399845572 0.0
289 1 15.7824383572 11.8235845572 0.0
290 1 21.2403383572 10.8232845572 0.0
291 1 28.1320383572 8.63453455723 0.0
292 1 31.3975383572 11.9347845572 0.0
293 1 37.0004383572 11.6351845572 0.0
294 1 41.7344383572 11.9352845572 0.0
295 1 46.6817383572 13.0349845572 0.0
296 1 51.1313383572 13.3159845572 0.0
297 1 54.1091383572 13.4887845572 0.0
298 1 61.2519383572 12.0846845572 0.0
299 1 65.7889383572 12.6484845572 0.0
300 1 72.4322383572 13.8357845572 0.0
301 1 2.28599835718 16.5862845572 0.0
302 1 7.77176835718 18.0658845572 0.0
303 1 13.2913383572 18.6140845572 0.0
304 1 18.4250383572 16.9540845572 0.0
305 1 21.2812383572 15.9544845572 0.0
306 1 27.9297383572 15.6649845572 0.0
307 1 34.6526383572 18.7763845572 0.0
308 1 37.5169383572 17.8663845572 0.0
309 1 42.6534383572 18.3642845572 0.0
310 1 45.6581383572 18.7066845572 0.0
311 1 52.3925383572 17.9671845572 0.0
312 1 57.9265383572 16.6625845572 0.0
313 1 62.7650383572 16.9173845572 0.0
314 1 68.3546383572 16.8113845572 0.0
315 1 74.5217383572 15.9848845572 0.0
316 1 75.9357383572 20.6038845572 0.0
317 1 3.12881835718 20.9001845572 0.0
318 1 8.73878835718 21.9056845572 0.0
319 1 14.7696383572 21.2783845572 0.0
320 1 20.1127383572 21.1970845572 0.0
321 1 24.5421383572 20.4776845572 0.0
322 1 27.4765383572 21.0286845572 0.0
323 1 35.1310383572 21.7340845572 0.0
324 1 40.1546383572 22.8251845572 0.0
325 1 44.7393383572 23.6326845572 0.0
326 1 49.7529383572 22.4716845572 0.0
327 1 55.4551383572 21.1106845572 0.0
328 1 61.1727383572 19.4963845572 0.0
329 1 65.9816383572 21.8638845572 0.0
330 1 69.0122383572 21.7290845572 0.0
331 1 76.0902383572 25.8532845572 0.0
332 1 5.22891835718 25.4225845572 0.0
333 1 11.1263383572 25.5629845572 0.0
334 1 17.8096383572 28.1611845572 0.0
335 1 20.5860383572 27.0209845572 0.0
336 1 26.9532383572 23.9720845572 0.0
337 1 31.3321383572 27.0760845572 0.0
338 1 34.3194383572 27.2884845572 0.0
339 1 40.7480383572 27.5455845572 0.0
340 1 48.1645383572 28.1943845572 0.0
341 1 52.5972383572 25.6552845572 0.0
342 1 59.7858383572 27.0925845572 0.0
343 1 63.5899383572 26.4706845572 0.0
344 1 68.4094383572 26.6999845572 0.0
345 1 73.0786383572 25.8385845572 0.0
346 1 75.7024383572 30.5173845572 0.0
347 1 2.61986835718 29.7519845572 0.0
348 1 7.91405835718 29.9631845572 0.0
349 1 13.3501383572 29.6179845572 0.0
350 1 19.1966383572 30.8249845572 0.0
351 1 24.5846383572 31.2294845572 0.0
352 1 28.8110383572 31.2999845572 0.0
353 1 33.7107383572 32.0663845572 0.0
354 1 38.8434383572 29.8917845572 0.0
355 1 43.2979383572 31.4089845572 0.0
356 1 50.3000383572 30.3548845572 0.0
357 1 53.2906383572 30.9139845572 0.0
358 1 60.5409383572 30.0383845572 0.0
359 1 66.4794383572 29.0298845572 0.0
360 1 71.3374383572 31.1533845572 0.0
361 1 0.766118357178 34.9082845572 0.0
362 1 5.31261835718 34.5022845572 0.0
363 1 10.6015383572 34.3373845572 0.0
364 1 15.6708383572 34.2119845572 0.0
365 1 20.8344383572 35.8635845572 0.0
366 1 23.8170383572 36.2115845572 0.0
367 1 31.9271383572 34.5115845572 0.0
368 1 36.9051383572 37.2010845572 0.0
369 1 41.9244383572 36.6129845572 0.0
370 1 46.8497383572 34.9967845572 0.0
371 1 54.5134383572 35.3191845572 0.0
372 1 58.8541383572 32.5728845572 0.0
373 1 64.8136383572 38.3557845572 0.0
374 1 67.4196383572 36.9281845572 0.0
375 1 74.1081383572 35.8837845572 0.0
376 1 77.1431383572 40.3260845572 0.0
377 1 4.08598835718 37.2616845572 0.0
378 1 8.52865835718 39.8353845572 0.0
379 1 12.6664383572 39.0314845572 0.0
380 1 17.1933383572 39.1205845572 0.0
381 1 24.0349383572 39.2234845572 0.0
382 1 29.3970383572 40.3075845572 0.0
383 1 34.1726383572 41.5436845572 0.0
384 1 41.3158383572 42.3899845572 0.0
385 1 45.3521383572 40.3107845572 0.0
386 1 50.2267383572 37.7430845572 0.0
387 1 55.3969383572 38.1916845572 0.0
388 1 60.3169383572 40.2569845572 0.0
389 1 66.5602383572 40.7802845572 0.0
390 1 71.9512383572 40.4539845572 0.0
391 1 2.97293835718 45.2861845572 0.0
392 1 6.84606835718 44.2894845572 0.0
393 1 11.7178383572 44.6116845572 0.0
394 1 16.1543383572 41.9168845572 0.0
395 1 20.8778383572 44.1630845572 0.0
396 1 26.5015383572 43.9492845572 0.0
397 1 31.1475383572 45.7142845572 0.0
398 1 35.3154383572 47.1724845572 0.0
399 1 42.8858383572 44.9670845572 0.0
400 1 47.9724383572 44.7973845572 0.0
401 1 49.9617383572 42.5756845572 0.0
402 1 59.1238383572 46.0433845572 0.0
403 1 63.2725383572 44.2408845572 0.0
404 1 68.9449383572 45.0269845572 0.0
405 1 74.1480383572 44.7976845572 0.0
406 1 76.9320383572 49.0179845572 0.0
407 1 5.46952835718 46.9272845572 0.0
408 1 9.82503835718 49.5584845572 0.0
409 1 14.8815383572 48.8839845572 0.0
410 1 20.4452383572 47.1521845572 0.0
411 1 24.7898383572 49.4516845572 0.0
412 1 29.2748383572 48.0451845572 0.0
413 1 38.0259383572 45.8849845572 0.0
414 1 42.6505383572 47.9812845572 0.0
415 1 49.1186383572 50.7331845572 0.0
416 1 51.7638383572 49.3046845572 0.0
417 1 55.1848383572 44.0825845572 0.0
418 1 60.8068383572 48.5429845572 0.0
419 1 66.0936383572 48.6883845572 0.0
420 1 71.6747383572 49.4591845572 0.0
421 1 2.26792835718 53.2369845572 0.0
422 1 7.40011835718 53.8564845572 0.0
423 1 12.8804383572 53.7200845572 0.0
424 1 17.7825383572 53.5406845572 0.0
425 1 23.5122383572 53.7514845572 0.0
426 1 29.0274383572 52.8749845572 0.0
427 1 35.8936383572 52.0633845572 0.0
428 1 41.3153383572 52.9364845572 0.0
429 1 47.3901383572 54.7097845572 0.0
430 1 52.9672383572 54.4523845572 0.0
431 1 55.3571383572 52.5989845572 0.0
432 1 60.4459383572 54.2531845572 0.0
433 1 64.5560383572 51.2582845572 0.0
434 1 69.7857383572 53.8736845572 0.0
435 1 74.9510383572 53.9622845572 0.0
436 1 1.45295835718 58.6363845572 0.0
437 1 6.12458835718 56.5662845572 0.0
438 1 10.9477383572 58.6870845572 0.0
439 1 16.2921383572 56.1863845572 0.0
440 1 21.5804383572 57.9846845572 0.0
441 1 27.2841383572 57.2814845572 0.0
442 1 32.7906383572 56.7400845572 0.0
443 1 37.9187383572 56.4217845572 0.0
444 1 44.2650383572 60.5269845572 0.0
445 1 47.2416383572 60.2041845572 0.0
446 1 53.5528383572 59.2231845572 0.0
447 1 60.1693383572 60.0954845572 0.0
448 1 62.8370383572 58.7829845572 0.0
449 1 68.9686383572 56.7622845572 0.0
450 1 74.1085383572 56.8900845572 0.0
451 1 5.63938835718 61.0375845572 0.0
452 1 9.77523835718 63.7078845572 0.0
453 1 14.7374383572 62.5457845572 0.0
454 1 19.8886383572 62.3911845572 0.0
455 1 25.3894383572 61.5186845572 0.0
456 1 30.6741383572 61.7609845572 0.0
457 1 33.6623383572 62.2654845572 0.0
458 1 39.8303383572 61.0890845572 0.0
459 1 46.3470383572 65.3218845572 0.0
460 1 51.0082383572 64.2670845572 0.0
461 1 56.1461383572 63.0058845572 0.0
462 1 61.3520383572 62.8187845572 0.0
463 1 68.5024383572 63.4265845572 0.0
464 1 73.0847383572 63.2223845572 0.0
465 1 0.481318357178 63.5940845572 0.0
466 1 2.62561835718 67.7470845572 0.0
467 1 7.65535835718 68.4071845572 0.0
468 1 12.9193383572 67.7363845572 0.0
469 1 17.5791383572 67.0838845572 0.0
470 1 22.8482383572 66.3662845572 0.0
471 1 27.6504383572 66.1751845572 0.0
472 1 32.6630383572 66.4914845572 0.0
473 1 37.4503383572 66.9741845572 0.0
474 1 40.4737383572 66.8733845572 0.0
475 1 47.4442383572 68.1409845572 0.0
476 1 53.2452383572 68.2937845572 0.0
477 1 56.2976383572 68.2556845572 0.0
478 1 63.6291383572 66.3869845572 0.0
479 1 69.0246383572 66.3843845572 0.0
480 1 75.9192383572 69.0779845572 0.0
481 1 4.31950835718 72.4218845572 0.0
482 1 11.4208383572 73.1596845572 0.0
483 1 15.9829383572 71.8100845572 0.0
484 1 21.0962383572 71.1853845572 0.0
485 1 25.9851383572 70.8428845572 0.0
486 1 31.3640383572 69.1843845572 0.0
487 1 35.3163383572 71.9762845572 0.0
488 1 40.2119383572 71.4869845572 0.0
489 1 45.2125383572 70.2684845572 0.0
490 1 50.8931383572 73.1003845572 0.0
491 1 56.1627383572 72.1877845572 0.0
492 1 61.6361383572 70.7005845572 0.0
493 1 67.4250383572 68.9564845572 0.0
494 1 70.3911383572 73.2187845572 0.0
495 1 77.0016383572 71.9204845572 0.0
496 1 1.42052835718 76.8086845572 0.0
497 1 6.85793835718 76.5107845572 0.0
498 1 13.2934383572 75.4916845572 0.0
499 1 18.3171383572 76.8986845572 0.0
500 1 21.2513383572 76.3582845572 0.0
501 1 27.8583383572 75.8375845572 0.0
502 1 33.0306383572 76.1066845572 0.0
503 1 38.3494383572 76.4936845572 0.0
504 1 43.3708383572 75.7492845572 0.0
505 1 49.5415383572 76.9846845572 0.0
506 1 55.2074383572 75.0395845572 0.0
507 1 60.6139383572 75.8825845572 0.0
508 1 64.9730383572 75.3922845572 0.0
509 1 69.6904383572 77.3468845572 0.0
510 1 74.7533383572 77.1706845572 0.0
511 1 6.93743835718 79.5247845572 0.0
512 1 12.6377383572 78.4036845572 0.0
513 1 19.0394383572 79.8007845572 0.0
514 1 21.9793383572 79.2504845572 0.0
515 1 27.0460383572 78.7445845572 0.0
516 1 32.5570383572 79.0508845572 0.0
517 1 37.8178383572 79.4734845572 0.0
518 1 43.1188383572 78.8185845572 0.0
519 1 48.7349383572 79.8869845572 0.0
520 1 57.1301383572 79.5939845572 0.0
521 1 62.0071383572 78.5401845572 0.0
522 1 64.9965383572 78.4200845572 0.0
523 1 69.5805383572 80.3415845572 0.0
524 1 74.6857383572 80.2222845572 0.0
525 1 1.90806835718 79.7911845572 0.0
526 1 4.50681835718 81.3389845572 0.0
527 1 9.93933835718 79.7274845572 0.0
528 1 14.5659383572 80.7071845572 0.0
529 1 17.2045383572 82.1609845572 0.0
530 1 24.6527383572 80.5987845572 0.0
531 1 29.7333383572 80.0827845572 0.0
532 1 35.0375383572 80.7401845572 0.0
533 1 40.6154383572 80.6352845572 0.0
534 1 45.7300383572 80.3935845572 0.0
535 1 51.4450383572 81.2748845572 0.0
536 1 54.4551383572 80.9581845572 0.0
537 1 59.9254383572 80.6900845572 0.0
538 1 66.6406383572 80.9625845572 0.0
539 1 72.1530383572 81.9079845572 0.0
540 1 77.3648383572 81.6402845572 0.0
541 2 4.26412835718 0.200796457234 0.0
542 2 4.96452835718 2.71105455723 0.0
543 2 2.31912835718 1.80773455723 0.0
544 2 11.8521383572 0.834746557234 0.0
545 2 10.4002383572 2.77780455723 0.0
546 2 12.9771383572 3.27849455723 0.0
547 2 10.7644383572 80.9914845572 0.0
548 2 13.2731383572 81.4713845572 0.0
549 2 17.9136383572 0.848281557234 0.0
550 2 17.7710383572 3.33618455723 0.0
551 2 20.2097383572 2.27328455723 0.0
552 2 24.4142383572 82.0850845572 0.0
553 2 25.7253383572 1.31236455723 0.0
554 2 22.9667383572 1.80495455723 0.0
555 2 28.6062383572 1.07962755723 0.0
556 2 31.5086383572 0.496212557234 0.0
557 2 29.7843383572 81.5758845572 0.0
558 2 33.7847383572 1.67293455723 0.0
559 2 36.0683383572 2.90232455723 0.0
560 2 33.5887383572 4.10459455723 0.0
561 2 40.2155383572 82.1206845572 0.0
562 2 38.6468383572 1.96907455723 0.0
563 2 41.1282383572 1.68820455723 0.0
564 2 45.4149383572 81.8796845572 0.0
565 2 45.9284383572 1.95944455723 0.0
566 2 43.7066383572 1.36498455723 0.0
567 2 53.9152383572 1.52699455723 0.0
568 2 51.8377383572 2.87457455723 0.0
569 2 51.7554383572 0.129307157234 0.0
570 2 56.7310383572 1.88089455723 0.0
571 2 55.0449383572 82.3515845572 0.0
572 2 60.3776383572 82.1135845572 0.0
573 2 62.0791383572 1.56875455723 0.0
574 2 59.3976383572 1.65501455723 0.0
575 2 66.3793383572 82.4494845572 0.0
576 2 64.7918383572 1.80492455723 0.0
577 2 67.3480383572 2.31643455723 0.0
578 2 71.7445383572 0.732913557234 0.0
579 2 72.4346383572 3.13563455723 0.0
580 2 69.8688383572 2.77061455723 0.0
581 2 0.0958413571781 0.408359557234 0.0
582 2 77.5977383572 2.87867455723 0.0
583 2 77.0505383572 5.40283455723 0.0
584 2 0.800248357178 7.68747455723 0.0
585 2 76.0875383572 7.70852455723 0.0
586 2 5.69811835718 7.75232455723 0.0
587 2 6.30817835718 5.19870455723 0.0
588 2 8.03289835718 7.42009455723 0.0
589 2 10.4161383572 7.10216455723 0.0
590 2 10.0729383572 4.80612455723 0.0
591 2 12.6233383572 5.38569455723 0.0
592 2 15.3568383572 4.53736455723 0.0
593 2 21.5118383572 4.16783455723 0.0
594 2 21.9721383572 6.87091455723 0.0
595 2 19.7812383572 6.32755455723 0.0
596 2 27.1725383572 3.16500455723 0.0
597 2 26.1784383572 5.78037455723 0.0
598 2 28.5622383572 5.26970455723 0.0
599 2 33.4673383572 6.55844455723 0.0
600 2 31.2027383572 5.64851455723 0.0
601 2 37.4694383572 4.59442455723 0.0
602 2 37.7078383572 7.40307455723 0.0
603 2 35.7313383572 6.79719455723 0.0
604 2 43.9077383572 6.48110455723 0.0
605 2 42.9493383572 3.73191455723 0.0
606 2 45.1432383572 4.27465455723 0.0
607 2 47.5032383572 4.38093455723 0.0
608 2 52.0443383572 5.62382455723 0.0
609 2 51.0386383572 7.81287455723 0.0
610 2 53.7593383572 7.61080455723 0.0
611 2 61.1823383572 5.19719455723 0.0
612 2 58.8715383572 6.28574455723 0.0
613 2 58.8164383572 3.80659455723 0.0
614 2 63.6361383572 6.41901455723 0.0
615 2 63.1271383572 3.81036455723 0.0
616 2 67.9437383572 4.78228455723 0.0
617 2 68.4769383572 7.29066455723 0.0
618 2 66.0482383572 6.86368455723 0.0
619 2 72.7989383572 5.51808455723 0.0
620 2 73.4724383572 7.72046455723 0.0
621 2 70.8896383572 7.66008455723 0.0
622 2 1.66113835718 12.4811845572 0.0
623 2 4.06678835718 13.4033845572 0.0
624 2 2.22588835718 15.0861845572 0.0
625 2 6.04668835718 10.0468045572 0.0
626 2 8.69509835718 11.1888845572 0.0
627 2 6.46429835718 12.3406845572 0.0
628 2 11.5148383572 11.8304845572 0.0
629 2 14.2597383572 12.0177845572 0.0
630 2 12.9488383572 14.1381845572 0.0
631 2 18.2938383572 8.57469455723 0.0
632 2 16.9928383572 10.8950845572 0.0
633 2 19.7402383572 10.5702845572 0.0
634 2 24.1522383572 7.72915455723 0.0
635 2 22.0311383572 9.52431455723 0.0
636 2 28.2350383572 10.1177145572 0.0
637 2 29.8989383572 11.7214845572 0.0
638 2 27.1128383572 12.4390845572 0.0
639 2 34.2827383572 9.14473455723 0.0
640 2 35.5086383572 11.3214845572 0.0
641 2 32.7585383572 11.2756845572 0.0
642 2 39.6253383572 8.82135455723 0.0
643 2 37.5503383572 10.2229845572 0.0
644 2 44.4545383572 9.40360455723 0.0
645 2 45.5905383572 12.0012845572 0.0
646 2 43.2055383572 11.6222845572 0.0
647 2 49.2366383572 9.69105455723 0.0
648 2 50.1844383572 12.1617845572 0.0
649 2 47.8540383572 12.0869845572 0.0
650 2 57.3585383572 10.9324845572 0.0
651 2 55.0135383572 12.3001845572 0.0
652 2 55.3427383572 9.67140455723 0.0
653 2 60.0092383572 11.2376845572 0.0
654 2 58.5811383572 8.92519455723 0.0
655 2 64.2105383572 8.96558455723 0.0
656 2 64.7554383572 11.5555845572 0.0
657 2 62.4760383572 11.2112845572 0.0
658 2 69.0258383572 9.79501455723 0.0
659 2 69.0301383572 12.5793845572 0.0
660 2 67.0614383572 11.8375845572 0.0
661 2 74.4555383572 9.91889455723 0.0
662 2 75.1960383572 12.3932845572 0.0
663 2 73.0651383572 12.4659845572 0.0
664 2 77.3386383572 12.4891845572 0.0
665 2 75.6009383572 14.8873845572 0.0
666 2 5.58916835718 14.9969845572 0.0
667 2 6.60354835718 17.1413845572 0.0
668 2 3.79651835718 16.7146845572 0.0
669 2 13.3540383572 17.0934845572 0.0
670 2 14.9624383572 15.2707845572 0.0
671 2 16.2460383572 13.2659845572 0.0
672 2 17.4281383572 15.8240845572 0.0
673 2 22.0849383572 14.6716845572 0.0
674 2 22.0514383572 12.1075845572 0.0
675 2 24.4186383572 13.3714845572 0.0
676 2 26.8048383572 14.6686845572 0.0
677 2 29.3457383572 15.1344845572 0.0
678 2 31.5363383572 16.1877845572 0.0
679 2 31.2848383572 13.4430845572 0.0
680 2 39.7580383572 15.0799845572 0.0
681 2 38.8271383572 17.1438845572 0.0
682 2 41.4833383572 17.3825845572 0.0
683 2 38.0309383572 12.7599845572 0.0
684 2 40.5633383572 12.8599845572 0.0
685 2 46.3515383572 17.3615845572 0.0
686 2 46.7417383572 14.5435845572 0.0
687 2 48.5478383572 16.1644845572 0.0
688 2 50.5661383572 14.7024845572 0.0
689 2 51.1563383572 17.1124845572 0.0
690 2 53.7207383572 17.2443845572 0.0
691 2 56.4312383572 16.4767845572 0.0
692 2 54.5602383572 14.9074845572 0.0
693 2 60.8569383572 13.5418845572 0.0
694 2 61.6429383572 15.9102845572 0.0
695 2 59.1321383572 15.7525845572 0.0
696 2 66.8769383572 16.4158845572 0.0
697 2 65.6402383572 14.1609845572 0.0
698 2 64.1823383572 16.3690845572 0.0
699 2 70.9572383572 13.9747845572 0.0
700 2 68.9151383572 15.4070845572 0.0
701 2 1.36041835718 17.7598845572 0.0
702 2 1.92073835718 20.0227845572 0.0
703 2 77.1874383572 19.7380845572 0.0
704 2 6.85570835718 19.2567845572 0.0
705 2 7.33615835718 21.3652845572 0.0
706 2 4.60954835718 20.6628845572 0.0
707 2 11.8351383572 19.0110845572 0.0
708 2 9.75423835718 20.7929845572 0.0
709 2 9.19411835718 18.5338845572 0.0
710 2 16.1496383572 20.6200845572 0.0
711 2 18.7223383572 20.6250845572 0.0
712 2 17.8751383572 18.3683845572 0.0
713 2 21.7882383572 17.3861845572 0.0
714 2 23.3870383572 19.5288845572 0.0
715 2 21.0563383572 20.0159845572 0.0
716 2 28.3385383572 19.8058845572 0.0
717 2 28.2737383572 17.1377845572 0.0
718 2 30.4917383572 18.2471845572 0.0
719 2 33.2689383572 18.1944845572 0.0
720 2 37.8814383572 19.3244845572 0.0
721 2 39.0918383572 21.7721845572 0.0
722 2 36.5840383572 21.3565845572 0.0
723 2 41.4674383572 22.1440845572 0.0
724 2 43.7476383572 22.4961845572 0.0
725 2 42.6182383572 19.8829845572 0.0
726 2 46.2982383572 20.0875845572 0.0
727 2 48.3521383572 21.8809845572 0.0
728 2 45.9311383572 22.6830845572 0.0
729 2 52.3080383572 19.4561845572 0.0
730 2 53.9337383572 21.0166845572 0.0
731 2 51.1035383572 21.7537845572 0.0
732 2 58.0224383572 18.1609845572 0.0
733 2 59.6685383572 19.7106845572 0.0
734 2 56.8077383572 20.4070845572 0.0
735 2 64.4621383572 21.7335845572 0.0
736 2 62.0658383572 20.7053845572 0.0
737 2 62.0576383572 23.1635845572 0.0
738 2 69.7609383572 20.4135845572 0.0
739 2 69.3673383572 17.9428845572 0.0
740 2 71.9518383572 18.9636845572 0.0
741 2 74.6312383572 19.8291845572 0.0
742 2 74.0641383572 17.4227845572 0.0
743 2 1.12540835718 23.6231845572 0.0
744 2 76.7531383572 24.5145845572 0.0
745 2 76.6370383572 21.9541845572 0.0
746 2 3.89834835718 24.6849845572 0.0
747 2 2.93776835718 22.3777845572 0.0
748 2 8.52475835718 23.3687845572 0.0
749 2 9.65413835718 25.2329845572 0.0
750 2 6.71876835718 25.1179845572 0.0
751 2 14.3268383572 22.7617845572 0.0
752 2 14.5520383572 25.6151845572 0.0
753 2 12.4329383572 24.7902845572 0.0
754 2 22.5857383572 23.8541845572 0.0
755 2 20.8005383572 25.5282845572 0.0
756 2 20.4876383572 22.6641845572 0.0
757 2 25.4449383572 23.9033845572 0.0
758 2 24.1710383572 21.9334845572 0.0
759 2 27.6965383572 25.2659845572 0.0
760 2 29.8746383572 26.6946845572 0.0
761 2 27.4543383572 27.8159845572 0.0
762 2 34.9997383572 25.9551845572 0.0
763 2 35.2370383572 23.2422845572 0.0
764 2 37.2011383572 25.0707845572 0.0
765 2 39.4889383572 24.1494845572 0.0
766 2 39.6586383572 26.5067845572 0.0
767 2 44.2089383572 25.0635845572 0.0
768 2 44.4377383572 27.7096845572 0.0
769 2 42.1582383572 26.9959845572 0.0
770 2 49.5816383572 23.9814845572 0.0
771 2 48.7814383572 26.7865845572 0.0
772 2 51.1065383572 25.6201845572 0.0
773 2 55.4393383572 22.6221845572 0.0
774 2 56.1519383572 25.2121845572 0.0
775 2 53.7696383572 24.6961845572 0.0
776 2 62.4894383572 25.4864845572 0.0
777 2 60.4173383572 25.7114845572 0.0
778 2 66.0392383572 23.3659845572 0.0
779 2 67.2791383572 25.7124845572 0.0
780 2 64.8610383572 25.6974845572 0.0
781 2 69.7677383572 23.0599845572 0.0
782 2 71.8200383572 25.0098845572 0.0
783 2 69.5214383572 25.6760845572 0.0
784 2 76.9979383572 27.0669845572 0.0
785 2 1.33144835718 28.9666845572 0.0
786 2 76.8046383572 29.5032845572 0.0
787 2 5.23912835718 26.9298845572 0.0