ITEM: TIMESTEP
0
ITEM: NUMBER OF ATOMS
1350
ITEM: BOX BOUNDS xy xz yz pp pp pp
0.0 78.8146171842 0
0.0 81.2456441312 0
-10.0 10.0 0
ITEM: ATOMS id type x y z vx vy vz
1 1 3.42715636897 2.97805206561 0.0 0.0 0.0 0.0
2 1 9.47958636897 4.02869206561 0.0 0.0 0.0 0.0
3 1 14.593446369 2.23233206561 0.0 0.0 0.0 0.0
4 1 19.661046369 0.459352065613 0.0 0.0 0.0 0.0
5 1 24.645846369 81.1526220656 0.0 0.0 0.0 0.0
6 1 29.872846369 80.9445220656 0.0 0.0 0.0 0.0
7 1 35.331846369 0.724502065613 0.0 0.0 0.0 0.0
8 1 41.936146369 1.22365206561 0.0 0.0 0.0 0.0
9 1 44.957746369 1.28531206561 0.0 0.0 0.0 0.0
10 1 50.550146369 2.11109206561 0.0 0.0 0.0 0.0
11 1 56.182746369 1.84420206561 0.0 0.0 0.0 0.0
12 1 61.937746369 2.66611206561 0.0 0.0 0.0 0.0
13 1 67.881246369 0.879492065613 0.0 0.0 0.0 0.0
14 1 70.955846369 0.897962065613 0.0 0.0 0.0 0.0
15 1 76.570146369 1.03028206561 0.0 0.0 0.0 0.0
16 1 77.785146369 5.10908206561 0.0 0.0 0.0 0.0
17 1 3.94025636897 7.99088206561 0.0 0.0 0.0 0.0
18 1 8.05502636897 6.68425206561 0.0 0.0 0.0 0.0
19 1 19.103446369 5.23199206561 0.0 0.0 0.0 0.0
20 1 22.130046369 4.87311206561 0.0 0.0 0.0 0.0
21 1 27.289746369 4.33716206561 0.0 0.0 0.0 0.0
22 1 32.246146369 4.36032206561 0.0 0.0 0.0 0.0
23 1 36.175246369 7.84638206561 0.0 0.0 0.0 0.0
24 1 41.387746369 6.59673206561 0.0 0.0 0.0 0.0
25 1 46.799646369 5.71928206561 0.0 0.0 0.0 0.0
26 1 52.426246369 6.11638206561 0.0 0.0 0.0 0.0
27 1 60.618346369 5.41661206561 0.0 0.0 0.0 0.0
28 1 63.372846369 6.54597206561 0.0 0.0 0.0 0.0
29 1 67.715346369 7.14986206561 0.0 0.0 0.0 0.0
30 1 74.775546369 4.96641206561 0.0 0.0 0.0 0.0
31 1 0.987076368975 12.8120220656 0.0 0.0 0.0 0.0
32 1 5.68839636897 10.4408220656 0.0 0.0 0.0 0.0
33 1 12.974446369 10.1027220656 0.0 0.0 0.0 0.0
34 1 18.684346369 11.1319220656 0.0 0.0 0.0 0.0
35 1 26.501446369 8.75592206561 0.0 0.0 0.0 0.0
36 1 29.532846369 9.07191206561 0.0 0.0 0.0 0.0
37 1 34.857446369 10.5399220656 0.0 0.0 0.0 0.0
38 1 39.302646369 13.9259220656 0.0 0.0 0.0 0.0
39 1 45.775746369 10.1074220656 0.0 0.0 0.0 0.0
40 1 48.799146369 9.90602206561 0.0 0.0 0.0 0.0
41 1 53.405846369 8.97871206561 0.0 0.0 0.0 0.0
42 1 60.040046369 10.6076220656 0.0 0.0 0.0 0.0
43 1 65.333546369 11.8093220656 0.0 0.0 0.0 0.0
44 1 69.221346369 9.72072206561 0.0 0.0 0.0 0.0
45 1 75.752446369 10.2873220656 0.0 0.0 0.0 0.0
46 1 0.167665368975 15.6878220656 0.0 0.0 0.0 0.0
47 1 5.02397636897 18.0899220656 0.0 0.0 0.0 0.0
48 1 10.216446369 15.1125220656 0.0 0.0 0.0 0.0
49 1 17.989646369 14.0551220656 0.0 0.0 0.0 0.0
50 1 20.975246369 13.9193220656 0.0 0.0 0.0 0.0
51 1 25.857346369 13.9686220656 0.0 0.0 0.0 0.0
52 1 31.526446369 14.0947220656 0.0 0.0 0.0 0.0
53 1 37.047546369 15.9381220656 0.0 0.0 0.0 0.0
54 1 44.071546369 17.0903220656 0.0 0.0 0.0 0.0
55 1 46.542646369 15.3683220656 0.0 0.0 0.0 0.0
56 1 51.980246369 14.3013220656 0.0 0.0 0.0 0.0
57 1 57.568846369 15.3991220656 0.0 0.0 0.0 0.0
58 1 62.891846369 15.3593220656 0.0 0.0 0.0 0.0
59 1 68.562346369 15.5112220656 0.0 0.0 0.0 0.0
60 1 74.040346369 15.6398220656 0.0 0.0 0.0 0.0
61 1 3.13811636897 20.4876220656 0.0 0.0 0.0 0.0
62 1 7.90763636897 20.2744220656 0.0 0.0 0.0 0.0
63 1 12.958146369 19.7332220656 0.0 0.0 0.0 0.0
64 1 18.061546369 18.1651220656 0.0 0.0 0.0 0.0
65 1 22.497046369 20.1595220656 0.0 0.0 0.0 0.0
66 1 27.827746369 18.0442220656 0.0 0.0 0.0 0.0
67 1 32.986746369 18.7661220656 0.0 0.0 0.0 0.0
68 1 37.256046369 20.9172220656 0.0 0.0 0.0 0.0
69 1 45.741646369 22.5794220656 0.0 0.0 0.0 0.0
70 1 50.284046369 18.9555220656 0.0 0.0 0.0 0.0
71 1 55.074146369 21.0965220656 0.0 0.0 0.0 0.0
72 1 62.403446369 19.0577220656 0.0 0.0 0.0 0.0
73 1 65.434446369 19.4640220656 0.0 0.0 0.0 0.0
74 1 71.020946369 19.8067220656 0.0 0.0 0.0 0.0
75 1 76.597246369 20.4103220656 0.0 0.0 0.0 0.0
76 1 0.221979368975 24.9573220656 0.0 0.0 0.0 0.0
77 1 5.09692636897 25.2091220656 0.0 0.0 0.0 0.0
78 1 10.567146369 24.5780220656 0.0 0.0 0.0 0.0
79 1 14.807246369 22.1206220656 0.0 0.0 0.0 0.0
80 1 22.562546369 24.3837220656 0.0 0.0 0.0 0.0
81 1 25.210746369 22.9518220656 0.0 0.0 0.0 0.0
82 1 30.260646369 22.8875220656 0.0 0.0 0.0 0.0
83 1 35.022146369 24.3948220656 0.0 0.0 0.0 0.0
84 1 39.376246369 23.0233220656 0.0 0.0 0.0 0.0
85 1 49.052746369 24.3898220656 0.0 0.0 0.0 0.0
86 1 54.199146369 23.9739220656 0.0 0.0 0.0 0.0
87 1 58.221146369 24.7950220656 0.0 0.0 0.0 0.0
88 1 62.931146369 23.9551220656 0.0 0.0 0.0 0.0
89 1 69.538146369 23.5430220656 0.0 0.0 0.0 0.0
90 1 73.565846369 26.8459220656 0.0 0.0 0.0 0.0
91 1 2.13966636897 29.9218220656 0.0 0.0 0.0 0.0
92 1 8.38925636897 29.0817220656 0.0 0.0 0.0 0.0
93 1 14.121446369 27.8351220656 0.0 0.0 0.0 0.0
94 1 19.788246369 28.9591220656 0.0 0.0 0.0 0.0
95 1 25.046346369 28.6635220656 0.0 0.0 0.0 0.0
96 1 27.812546369 27.5110220656 0.0 0.0 0.0 0.0
97 1 32.674046369 30.2023220656 0.0 0.0 0.0 0.0
98 1 38.423046369 28.5348220656 0.0 0.0 0.0 0.0
99 1 46.296646369 28.6628220656 0.0 0.0 0.0 0.0
100 1 52.213346369 28.6281220656 0.0 0.0 0.0 0.0
101 1 55.151246369 29.4602220656 0.0 0.0 0.0 0.0
102 1 60.231446369 29.0415220656 0.0 0.0 0.0 0.0
103 1 65.157246369 28.4756220656 0.0 0.0 0.0 0.0
104 1 68.367146369 26.3010220656 0.0 0.0 0.0 0.0
105 1 76.097246369 29.7010220656 0.0 0.0 0.0 0.0
106 1 78.234246369 34.5807220656 0.0 0.0 0.0 0.0
107 1 3.66352636897 32.5422220656 0.0 0.0 0.0 0.0
108 1 11.221246369 32.1703220656 0.0 0.0 0.0 0.0
109 1 16.728946369 32.2612220656 0.0 0.0 0.0 0.0
110 1 20.929346369 34.3986220656 0.0 0.0 0.0 0.0
111 1 25.794846369 34.2608220656 0.0 0.0 0.0 0.0
112 1 31.337346369 32.9054220656 0.0 0.0 0.0 0.0
113 1 36.258546369 32.6909220656 0.0 0.0 0.0 0.0
114 1 40.849146369 30.3742220656 0.0 0.0 0.0 0.0
115 1 48.828946369 34.3388220656 0.0 0.0 0.0 0.0
116 1 53.113146369 33.9671220656 0.0 0.0 0.0 0.0
117 1 60.120046369 32.9467220656 0.0 0.0 0.0 0.0
118 1 63.162846369 33.3834220656 0.0 0.0 0.0 0.0
119 1 68.445546369 32.2936220656 0.0 0.0 0.0 0.0
120 1 72.582246369 35.2704220656 0.0 0.0 0.0 0.0
121 1 2.89990636897 38.3391220656 0.0 0.0 0.0 0.0
122 1 8.51375636897 36.5461220656 0.0 0.0 0.0 0.0
123 1 14.073646369 36.3379220656 0.0 0.0 0.0 0.0
124 1 16.230046369 40.6540220656 0.0 0.0 0.0 0.0
125 1 23.207746369 39.0735220656 0.0 0.0 0.0 0.0
126 1 28.953946369 37.5245220656 0.0 0.0 0.0 0.0
127 1 34.201746369 37.4858220656 0.0 0.0 0.0 0.0
128 1 39.140446369 35.9594220656 0.0 0.0 0.0 0.0
129 1 43.749246369 33.6924220656 0.0 0.0 0.0 0.0
130 1 50.122946369 39.0160220656 0.0 0.0 0.0 0.0
131 1 55.232346369 38.7690220656 0.0 0.0 0.0 0.0
132 1 60.406646369 37.7711220656 0.0 0.0 0.0 0.0
133 1 67.307046369 37.0966220656 0.0 0.0 0.0 0.0
134 1 71.262546369 40.2439220656 0.0 0.0 0.0 0.0
135 1 76.352746369 38.9300220656 0.0 0.0 0.0 0.0
136 1 0.841016368975 42.9841220656 0.0 0.0 0.0 0.0
137 1 5.04898636897 40.5160220656 0.0 0.0 0.0 0.0
138 1 10.691546369 40.4198220656 0.0 0.0 0.0 0.0
139 1 13.502946369 44.7132220656 0.0 0.0 0.0 0.0
140 1 18.546646369 42.5734220656 0.0 0.0 0.0 0.0
141 1 26.478546369 41.7679220656 0.0 0.0 0.0 0.0
142 1 31.726846369 41.9866220656 0.0 0.0 0.0 0.0
143 1 37.448746369 41.2139220656 0.0 0.0 0.0 0.0
144 1 42.360046369 39.2708220656 0.0 0.0 0.0 0.0
145 1 45.961746369 43.3628220656 0.0 0.0 0.0 0.0
146 1 51.900646369 43.3273220656 0.0 0.0 0.0 0.0
147 1 60.395846369 41.5833220656 0.0 0.0 0.0 0.0
148 1 62.725746369 39.6789220656 0.0 0.0 0.0 0.0
149 1 69.712046369 42.8392220656 0.0 0.0 0.0 0.0
150 1 74.694046369 43.9936220656 0.0 0.0 0.0 0.0
151 1 3.42353636897 47.7360220656 0.0 0.0 0.0 0.0
152 1 8.01938636897 45.6899220656 0.0 0.0 0.0 0.0
153 1 12.062346369 49.2362220656 0.0 0.0 0.0 0.0
154 1 17.062046369 47.7971220656 0.0 0.0 0.0 0.0
155 1 25.406546369 45.8591220656 0.0 0.0 0.0 0.0
156 1 28.408746369 46.2170220656 0.0 0.0 0.0 0.0
157 1 33.245846369 44.5745220656 0.0 0.0 0.0 0.0
158 1 40.665746369 44.5898220656 0.0 0.0 0.0 0.0
159 1 44.148646369 48.1745220656 0.0 0.0 0.0 0.0
160 1 49.368946369 46.7907220656 0.0 0.0 0.0 0.0
161 1 53.753846369 45.6924220656 0.0 0.0 0.0 0.0
162 1 60.933446369 46.5360220656 0.0 0.0 0.0 0.0
163 1 66.219946369 45.6232220656 0.0 0.0 0.0 0.0
164 1 70.358246369 45.7950220656 0.0 0.0 0.0 0.0
165 1 77.305146369 48.0775220656 0.0 0.0 0.0 0.0
166 1 0.741334368975 52.6017220656 0.0 0.0 0.0 0.0
167 1 7.08781636897 51.1750220656 0.0 0.0 0.0 0.0
168 1 10.068246369 51.4977220656 0.0 0.0 0.0 0.0
169 1 16.273446369 52.7347220656 0.0 0.0 0.0 0.0
170 1 20.758246369 51.1441220656 0.0 0.0 0.0 0.0
171 1 25.421046369 52.8408220656 0.0 0.0 0.0 0.0
172 1 32.409446369 49.7337220656 0.0 0.0 0.0 0.0
173 1 37.388446369 49.1806220656 0.0 0.0 0.0 0.0
174 1 43.583946369 51.1057220656 0.0 0.0 0.0 0.0
175 1 48.371546369 51.4067220656 0.0 0.0 0.0 0.0
176 1 52.427946369 53.8191220656 0.0 0.0 0.0 0.0
177 1 60.108346369 51.0159220656 0.0 0.0 0.0 0.0
178 1 63.028546369 50.2887220656 0.0 0.0 0.0 0.0
179 1 68.143346369 50.9578220656 0.0 0.0 0.0 0.0
180 1 74.201346369 52.3462220656 0.0 0.0 0.0 0.0
181 1 2.60790636897 57.5125220656 0.0 0.0 0.0 0.0
182 1 7.71786636897 56.4731220656 0.0 0.0 0.0 0.0
183 1 13.194446369 58.8127220656 0.0 0.0 0.0 0.0
184 1 15.595546369 55.6574220656 0.0 0.0 0.0 0.0
185 1 23.686146369 55.2765220656 0.0 0.0 0.0 0.0
186 1 29.053846369 56.2212220656 0.0 0.0 0.0 0.0
187 1 31.206946369 52.4695220656 0.0 0.0 0.0 0.0
188 1 38.571746369 51.9237220656 0.0 0.0 0.0 0.0
189 1 44.774246369 55.8085220656 0.0 0.0 0.0 0.0
190 1 50.751146369 56.3150220656 0.0 0.0 0.0 0.0
191 1 55.383946369 56.9653220656 0.0 0.0 0.0 0.0
192 1 59.713846369 56.1215220656 0.0 0.0 0.0 0.0
193 1 64.900046369 55.1137220656 0.0 0.0 0.0 0.0
194 1 69.469846369 53.6902220656 0.0 0.0 0.0 0.0
195 1 76.170846369 56.7825220656 0.0 0.0 0.0 0.0
196 1 0.0338053689749 61.5258220656 0.0 0.0 0.0 0.0
197 1 4.56106636897 59.7986220656 0.0 0.0 0.0 0.0
198 1 11.951946369 61.5079220656 0.0 0.0 0.0 0.0
199 1 16.795546369 61.5537220656 0.0 0.0 0.0 0.0
200 1 21.793146369 58.9434220656 0.0 0.0 0.0 0.0
201 1 24.659446369 58.0984220656 0.0 0.0 0.0 0.0
202 1 33.627446369 57.8423220656 0.0 0.0 0.0 0.0
203 1 36.481346369 56.9311220656 0.0 0.0 0.0 0.0
204 1 40.916146369 58.8481220656 0.0 0.0 0.0 0.0
205 1 45.621546369 58.6690220656 0.0 0.0 0.0 0.0
206 1 52.335346369 61.4321220656 0.0 0.0 0.0 0.0
207 1 57.287246369 61.4521220656 0.0 0.0 0.0 0.0
208 1 62.221146369 59.9955220656 0.0 0.0 0.0 0.0
209 1 67.599446369 59.1623220656 0.0 0.0 0.0 0.0
210 1 72.549946369 60.5612220656 0.0 0.0 0.0 0.0
211 1 3.40690636897 65.2736220656 0.0 0.0 0.0 0.0
212 1 10.201946369 64.9942220656 0.0 0.0 0.0 0.0
213 1 13.070046369 65.9943220656 0.0 0.0 0.0 0.0
214 1 20.631846369 66.0492220656 0.0 0.0 0.0 0.0
215 1 23.187946369 64.4856220656 0.0 0.0 0.0 0.0
216 1 28.393346369 64.0859220656 0.0 0.0 0.0 0.0
217 1 33.366446369 63.2807220656 0.0 0.0 0.0 0.0
218 1 38.210346369 62.5907220656 0.0 0.0 0.0 0.0
219 1 43.992046369 63.5407220656 0.0 0.0 0.0 0.0
220 1 47.947146369 65.8847220656 0.0 0.0 0.0 0.0
221 1 53.685146369 65.9333220656 0.0 0.0 0.0 0.0
222 1 60.106746369 65.2231220656 0.0 0.0 0.0 0.0
223 1 65.311446369 63.8219220656 0.0 0.0 0.0 0.0
224 1 68.676146369 67.0442220656 0.0 0.0 0.0 0.0
225 1 73.816246369 63.3214220656 0.0 0.0 0.0 0.0
226 1 77.367846369 66.6450220656 0.0 0.0 0.0 0.0
227 1 4.64142636897 69.8111220656 0.0 0.0 0.0 0.0
228 1 8.98901636897 70.6034220656 0.0 0.0 0.0 0.0
229 1 13.660646369 71.2531220656 0.0 0.0 0.0 0.0
230 1 17.542446369 69.7520220656 0.0 0.0 0.0 0.0
231 1 25.866346369 68.7510220656 0.0 0.0 0.0 0.0
232 1 31.473646369 68.2388220656 0.0 0.0 0.0 0.0
233 1 37.617946369 67.1951220656 0.0 0.0 0.0 0.0
234 1 39.819146369 65.1450220656 0.0 0.0 0.0 0.0
235 1 46.488546369 68.5033220656 0.0 0.0 0.0 0.0
236 1 51.178546369 71.7189220656 0.0 0.0 0.0 0.0
237 1 55.434946369 68.3649220656 0.0 0.0 0.0 0.0
238 1 62.507046369 68.7421220656 0.0 0.0 0.0 0.0
239 1 67.719646369 69.8830220656 0.0 0.0 0.0 0.0
240 1 71.372246369 68.3165220656 0.0 0.0 0.0 0.0
241 1 1.83820636897 73.4865220656 0.0 0.0 0.0 0.0
242 1 5.94000636897 77.2897220656 0.0 0.0 0.0 0.0
243 1 11.106846369 75.7497220656 0.0 0.0 0.0 0.0
244 1 15.364546369 73.7146220656 0.0 0.0 0.0 0.0
245 1 22.102146369 71.5826220656 0.0 0.0 0.0 0.0
246 1 29.622746369 72.3248220656 0.0 0.0 0.0 0.0
247 1 35.100246369 74.9503220656 0.0 0.0 0.0 0.0
248 1 39.671746369 72.4733220656 0.0 0.0 0.0 0.0
249 1 44.179246369 74.6462220656 0.0 0.0 0.0 0.0
250 1 49.867246369 74.4055220656 0.0 0.0 0.0 0.0
251 1 54.759246369 73.9829220656 0.0 0.0 0.0 0.0
252 1 59.779546369 73.2609220656 0.0 0.0 0.0 0.0
253 1 64.526146369 73.5528220656 0.0 0.0 0.0 0.0
254 1 69.138646369 72.5398220656 0.0 0.0 0.0 0.0
255 1 75.478646369 74.8252220656 0.0 0.0 0.0 0.0
256 1 0.420450368975 2.48791206561 0.0 0.0 0.0 0.0
257 1 5.33254636897 5.34730206561 0.0 0.0 0.0 0.0
258 1 12.464046369 4.35564206561 0.0 0.0 0.0 0.0
259 1 17.584546369 2.62767206561 0.0 0.0 0.0 0.0
260 1 22.334346369 1.85102206561 0.0 0.0 0.0 0.0
261 1 27.317146369 1.31277206561 0.0 0.0 0.0 0.0
262 1 32.384446369 1.36420206561 0.0 0.0 0.0 0.0
263 1 37.353746369 2.96476206561 0.0 0.0 0.0 0.0
264 1 40.281946369 3.75749206561 0.0 0.0 0.0 0.0
265 1 47.577146369 2.81369206561 0.0 0.0 0.0 0.0
266 1 53.408746369 3.23595206561 0.0 0.0 0.0 0.0
267 1 59.227546369 1.27491206561 0.0 0.0 0.0 0.0
268 1 65.836646369 4.83925206561 0.0 0.0 0.0 0.0
269 1 64.982746369 1.97624206561 0.0 0.0 0.0 0.0
270 1 73.737846369 2.14258206561 0.0 0.0 0.0 0.0
271 1 1.02595636897 7.29542206561 0.0 0.0 0.0 0.0
272 1 8.60276636897 9.69622206561 0.0 0.0 0.0 0.0
273 1 13.590946369 7.13434206561 0.0 0.0 0.0 0.0
274 1 16.601146369 6.94484206561 0.0 0.0 0.0 0.0
275 1 24.892846369 6.17007206561 0.0 0.0 0.0 0.0
276 1 29.770846369 6.06320206561 0.0 0.0 0.0 0.0
277 1 35.171846369 5.03204206561 0.0 0.0 0.0 0.0
278 1 39.086946369 8.57655206561 0.0 0.0 0.0 0.0
279 1 44.315846369 7.44804206561 0.0 0.0 0.0 0.0
280 1 49.530746369 6.98559206561 0.0 0.0 0.0 0.0
281 1 56.351646369 9.60842206561 0.0 0.0 0.0 0.0
282 1 58.821046369 7.86045206561 0.0 0.0 0.0 0.0
283 1 65.245246369 8.83735206561 0.0 0.0 0.0 0.0
284 1 72.148946369 10.2002220656 0.0 0.0 0.0 0.0
285 1 74.004646369 7.86284206561 0.0 0.0 0.0 0.0
286 1 78.707746369 10.0481220656 0.0 0.0 0.0 0.0
287 1 3.97762636897 12.9049220656 0.0 0.0 0.0 0.0
288 1 10.591646369 12.0213220656 0.0 0.0 0.0 0.0
289 1 15.977646369 9.87582206561 0.0 0.0 0.0 0.0
290 1 21.683446369 11.0180220656 0.0 0.0 0.0 0.0
291 1 24.699146369 11.1706220656 0.0 0.0 0.0 0.0
292 1 31.854446369 11.0746220656 0.0 0.0 0.0 0.0
293 1 37.799646369 11.3066220656 0.0 0.0 0.0 0.0
294 1 42.260946369 14.6570220656 0.0 0.0 0.0 0.0
295 1 44.750446369 12.9485220656 0.0 0.0 0.0 0.0
296 1 51.469846369 11.3113220656 0.0 0.0 0.0 0.0
297 1 57.600346369 12.3587220656 0.0 0.0 0.0 0.0
298 1 62.420846369 12.4154220656 0.0 0.0 0.0 0.0
299 1 68.217746369 12.5445220656 0.0 0.0 0.0 0.0
300 1 73.899946369 12.6319220656 0.0 0.0 0.0 0.0
301 1 3.16127636897 15.7755220656 0.0 0.0 0.0 0.0
302 1 7.95767636897 17.2474220656 0.0 0.0 0.0 0.0
303 1 12.832846369 16.7012220656 0.0 0.0 0.0 0.0
304 1 15.819046369 16.1449220656 0.0 0.0 0.0 0.0
305 1 23.372246369 15.6861220656 0.0 0.0 0.0 0.0
306 1 28.654946369 15.1312220656 0.0 0.0 0.0 0.0
307 1 33.988346369 15.9108220656 0.0 0.0 0.0 0.0
308 1 38.823946369 18.3866220656 0.0 0.0 0.0 0.0
309 1 40.989946369 20.4890220656 0.0 0.0 0.0 0.0
310 1 49.493646369 16.0414220656 0.0 0.0 0.0 0.0
311 1 54.555946369 15.9199220656 0.0 0.0 0.0 0.0
312 1 60.286946369 16.8557220656 0.0 0.0 0.0 0.0
313 1 65.707646369 16.4783220656 0.0 0.0 0.0 0.0
314 1 71.271146369 16.8169220656 0.0 0.0 0.0 0.0
315 1 76.500646369 17.3899220656 0.0 0.0 0.0 0.0
316 1 0.431975368975 21.9102220656 0.0 0.0 0.0 0.0
317 1 5.57918636897 22.2247220656 0.0 0.0 0.0 0.0
318 1 10.590646369 21.5780220656 0.0 0.0 0.0 0.0
319 1 17.650346369 21.1499220656 0.0 0.0 0.0 0.0
320 1 21.026946369 17.5784220656 0.0 0.0 0.0 0.0
321 1 25.490646369 19.9614220656 0.0 0.0 0.0 0.0
322 1 30.205146369 19.8778220656 0.0 0.0 0.0 0.0
323 1 34.337246369 21.4584220656 0.0 0.0 0.0 0.0
324 1 43.966246369 20.1210220656 0.0 0.0 0.0 0.0
325 1 48.538846369 21.4379220656 0.0 0.0 0.0 0.0
326 1 53.294046369 18.6671220656 0.0 0.0 0.0 0.0
327 1 57.986646369 21.8091220656 0.0 0.0 0.0 0.0
328 1 60.981546369 21.6743220656 0.0 0.0 0.0 0.0
329 1 68.169246369 20.8474220656 0.0 0.0 0.0 0.0
330 1 73.685346369 21.2605220656 0.0 0.0 0.0 0.0
331 1 2.56465636897 26.8925220656 0.0 0.0 0.0 0.0
332 1 7.96613636897 26.1175220656 0.0 0.0 0.0 0.0
333 1 13.562346369 24.8789220656 0.0 0.0 0.0 0.0
334 1 20.413846369 22.3180220656 0.0 0.0 0.0 0.0
335 1 22.331446369 27.3637220656 0.0 0.0 0.0 0.0
336 1 27.751146369 24.5186220656 0.0 0.0 0.0 0.0
337 1 32.152146369 25.2204220656 0.0 0.0 0.0 0.0
338 1 37.805446369 25.5820220656 0.0 0.0 0.0 0.0
339 1 46.298646369 25.5877220656 0.0 0.0 0.0 0.0
340 1 51.751346369 25.6659220656 0.0 0.0 0.0 0.0
341 1 55.796746369 26.5213220656 0.0 0.0 0.0 0.0
342 1 60.887446369 26.1299220656 0.0 0.0 0.0 0.0
343 1 65.476546369 25.5105220656 0.0 0.0 0.0 0.0
344 1 72.506146369 24.0237220656 0.0 0.0 0.0 0.0
345 1 76.576846369 26.7343220656 0.0 0.0 0.0 0.0
346 1 78.430946369 31.5702220656 0.0 0.0 0.0 0.0
347 1 6.47225636897 31.4264220656 0.0 0.0 0.0 0.0
348 1 11.408546369 29.1843220656 0.0 0.0 0.0 0.0
349 1 16.795946369 29.2520220656 0.0 0.0 0.0 0.0
350 1 21.448346369 31.4596220656 0.0 0.0 0.0 0.0
351 1 24.444146369 31.5850220656 0.0 0.0 0.0 0.0
352 1 30.780146369 27.8874220656 0.0 0.0 0.0 0.0
353 1 35.657246369 29.7640220656 0.0 0.0 0.0 0.0
354 1 43.894546369 30.6330220656 0.0 0.0 0.0 0.0
355 1 50.759246369 32.0770220656 0.0 0.0 0.0 0.0
356 1 49.282546369 29.4525220656 0.0 0.0 0.0 0.0
357 1 57.867746369 30.8697220656 0.0 0.0 0.0 0.0
358 1 62.895546369 30.4111220656 0.0 0.0 0.0 0.0
359 1 68.035446369 29.2940220656 0.0 0.0 0.0 0.0
360 1 73.095646369 29.8431220656 0.0 0.0 0.0 0.0
361 1 2.36337636897 35.3212220656 0.0 0.0 0.0 0.0
362 1 8.56339636897 33.5615220656 0.0 0.0 0.0 0.0
363 1 13.956246369 33.3566220656 0.0 0.0 0.0 0.0
364 1 18.012846369 34.9872220656 0.0 0.0 0.0 0.0
365 1 23.394946369 36.0850220656 0.0 0.0 0.0 0.0
366 1 28.792946369 34.5236220656 0.0 0.0 0.0 0.0
367 1 33.872146369 34.5100220656 0.0 0.0 0.0 0.0
368 1 39.242546369 32.9458220656 0.0 0.0 0.0 0.0
369 1 46.112646369 35.5452220656 0.0 0.0 0.0 0.0
370 1 51.142446369 36.2151220656 0.0 0.0 0.0 0.0
371 1 55.522346369 35.7667220656 0.0 0.0 0.0 0.0
372 1 58.515146369 35.4584220656 0.0 0.0 0.0 0.0
373 1 66.109146369 34.2842220656 0.0 0.0 0.0 0.0
374 1 71.482046369 32.4345220656 0.0 0.0 0.0 0.0
375 1 75.548146369 36.0108220656 0.0 0.0 0.0 0.0
376 1 0.371245368975 39.9960220656 0.0 0.0 0.0 0.0
377 1 7.84903636897 39.4613220656 0.0 0.0 0.0 0.0
378 1 11.336446369 37.5056220656 0.0 0.0 0.0 0.0
379 1 16.729946369 37.6964220656 0.0 0.0 0.0 0.0
380 1 21.419546369 41.5396220656 0.0 0.0 0.0 0.0
381 1 26.223046369 38.8089220656 0.0 0.0 0.0 0.0
382 1 31.596346369 38.9851220656 0.0 0.0 0.0 0.0
383 1 37.116346369 38.2148220656 0.0 0.0 0.0 0.0
384 1 42.117946369 36.2567220656 0.0 0.0 0.0 0.0
385 1 47.186846369 38.3583220656 0.0 0.0 0.0 0.0
386 1 52.745846369 40.4639220656 0.0 0.0 0.0 0.0
387 1 58.096446369 39.6790220656 0.0 0.0 0.0 0.0
388 1 65.753246369 39.7288220656 0.0 0.0 0.0 0.0
389 1 70.346746369 37.3519220656 0.0 0.0 0.0 0.0
390 1 74.173746369 41.0201220656 0.0 0.0 0.0 0.0
391 1 3.28548636897 44.7361220656 0.0 0.0 0.0 0.0
392 1 5.98121636897 43.4183220656 0.0 0.0 0.0 0.0
393 1 13.399846369 41.7196220656 0.0 0.0 0.0 0.0
394 1 16.528146369 44.8434220656 0.0 0.0 0.0 0.0
395 1 23.890146369 43.2605220656 0.0 0.0 0.0 0.0
396 1 29.038946369 43.2930220656 0.0 0.0 0.0 0.0
397 1 36.190646369 43.9633220656 0.0 0.0 0.0 0.0
398 1 40.424446369 41.5874220656 0.0 0.0 0.0 0.0
399 1 45.095446369 40.4948220656 0.0 0.0 0.0 0.0
400 1 48.937446369 43.8349220656 0.0 0.0 0.0 0.0
401 1 56.715546369 46.1220220656 0.0 0.0 0.0 0.0
402 1 59.042946369 44.2427220656 0.0 0.0 0.0 0.0
403 1 66.713246369 42.6209220656 0.0 0.0 0.0 0.0
404 1 73.233146369 46.6303220656 0.0 0.0 0.0 0.0
405 1 77.489646369 45.0684220656 0.0 0.0 0.0 0.0
406 1 1.07265636897 49.6114220656 0.0 0.0 0.0 0.0
407 1 6.38481636897 48.2422220656 0.0 0.0 0.0 0.0
408 1 10.985846369 46.4030220656 0.0 0.0 0.0 0.0
409 1 14.992546369 49.9949220656 0.0 0.0 0.0 0.0
410 1 20.029746369 48.2430220656 0.0 0.0 0.0 0.0
411 1 22.949746369 47.5657220656 0.0 0.0 0.0 0.0
412 1 31.338546369 46.9230220656 0.0 0.0 0.0 0.0
413 1 38.148146369 46.2521220656 0.0 0.0 0.0 0.0
414 1 43.598446369 45.2334220656 0.0 0.0 0.0 0.0
415 1 47.088246369 48.7072220656 0.0 0.0 0.0 0.0
416 1 52.041046369 48.1393220656 0.0 0.0 0.0 0.0
417 1 58.618846369 48.4288220656 0.0 0.0 0.0 0.0
418 1 63.789146369 47.3805220656 0.0 0.0 0.0 0.0
419 1 68.216546369 47.9061220656 0.0 0.0 0.0 0.0
420 1 74.565946369 49.3371220656 0.0 0.0 0.0 0.0
421 1 3.03675636897 54.5405220656 0.0 0.0 0.0 0.0
422 1 5.98382636897 53.9931220656 0.0 0.0 0.0 0.0
423 1 9.99354636897 54.5025220656 0.0 0.0 0.0 0.0
424 1 19.127946369 53.6424220656 0.0 0.0 0.0 0.0
425 1 23.654546369 50.4583220656 0.0 0.0 0.0 0.0
426 1 28.353546369 53.3198220656 0.0 0.0 0.0 0.0
427 1 35.074346369 51.1076220656 0.0 0.0 0.0 0.0
428 1 41.318446369 53.0475220656 0.0 0.0 0.0 0.0
429 1 45.881546369 53.0342220656 0.0 0.0 0.0 0.0
430 1 51.338746369 51.0437220656 0.0 0.0 0.0 0.0
431 1 55.417146369 53.9782220656 0.0 0.0 0.0 0.0
432 1 58.361246369 53.4462220656 0.0 0.0 0.0 0.0
433 1 65.375346369 52.1465220656 0.0 0.0 0.0 0.0
434 1 72.306946369 54.7117220656 0.0 0.0 0.0 0.0
435 1 76.810646369 53.8392220656 0.0 0.0 0.0 0.0
436 1 78.602246369 58.5399220656 0.0 0.0 0.0 0.0
437 1 7.55132636897 59.5193220656 0.0 0.0 0.0 0.0
438 1 12.620246369 55.9040220656 0.0 0.0 0.0 0.0
439 1 16.181246369 58.6070220656 0.0 0.0 0.0 0.0
440 1 20.808946369 56.1196220656 0.0 0.0 0.0 0.0
441 1 27.557246369 58.8122220656 0.0 0.0 0.0 0.0
442 1 31.922646369 55.3814220656 0.0 0.0 0.0 0.0
443 1 36.300546369 53.8814220656 0.0 0.0 0.0 0.0
444 1 41.792346369 55.9899220656 0.0 0.0 0.0 0.0
445 1 48.595746369 58.3857220656 0.0 0.0 0.0 0.0
446 1 52.817946369 58.4801220656 0.0 0.0 0.0 0.0
447 1 57.919946369 58.5205220656 0.0 0.0 0.0 0.0
448 1 62.562246369 57.0040220656 0.0 0.0 0.0 0.0
449 1 67.712446369 56.1496220656 0.0 0.0 0.0 0.0
450 1 73.272846369 57.5978220656 0.0 0.0 0.0 0.0
451 1 2.92642636897 62.3135220656 0.0 0.0 0.0 0.0
452 1 9.04606636897 62.1780220656 0.0 0.0 0.0 0.0
453 1 14.349946369 63.2942220656 0.0 0.0 0.0 0.0
454 1 19.101846369 63.4707220656 0.0 0.0 0.0 0.0
455 1 21.660546369 61.9271220656 0.0 0.0 0.0 0.0
456 1 29.311646369 61.2292220656 0.0 0.0 0.0 0.0
457 1 32.233046369 60.5083220656 0.0 0.0 0.0 0.0
458 1 38.011346369 59.5588220656 0.0 0.0 0.0 0.0
459 1 43.333646369 60.6172220656 0.0 0.0 0.0 0.0
460 1 49.351446369 61.2825220656 0.0 0.0 0.0 0.0
461 1 54.794246369 63.1414220656 0.0 0.0 0.0 0.0
462 1 60.176146369 62.2209220656 0.0 0.0 0.0 0.0
463 1 65.095146369 60.8315220656 0.0 0.0 0.0 0.0
464 1 69.648646369 61.3619220656 0.0 0.0 0.0 0.0
465 1 76.783546369 63.6948220656 0.0 0.0 0.0 0.0
466 1 1.39793636897 67.5102220656 0.0 0.0 0.0 0.0
467 1 5.79758636897 67.0523220656 0.0 0.0 0.0 0.0
468 1 8.73249636897 67.6072220656 0.0 0.0 0.0 0.0
469 1 14.800546369 68.4791220656 0.0 0.0 0.0 0.0
470 1 20.455146369 69.0488220656 0.0 0.0 0.0 0.0
471 1 25.893246369 65.7506220656 0.0 0.0 0.0 0.0
472 1 31.140346369 65.2753220656 0.0 0.0 0.0 0.0
473 1 36.025446369 64.6509220656 0.0 0.0 0.0 0.0
474 1 42.623146369 66.2292220656 0.0 0.0 0.0 0.0
475 1 46.953046369 63.0787220656 0.0 0.0 0.0 0.0
476 1 50.798446369 66.7656220656 0.0 0.0 0.0 0.0
477 1 58.357546369 67.6876220656 0.0 0.0 0.0 0.0
478 1 63.047046369 65.8019220656 0.0 0.0 0.0 0.0
479 1 68.300546369 64.0635220656 0.0 0.0 0.0 0.0
480 1 73.605946369 66.3506220656 0.0 0.0 0.0 0.0
481 1 1.73517636897 70.4869220656 0.0 0.0 0.0 0.0
482 1 6.44963636897 72.1800220656 0.0 0.0 0.0 0.0
483 1 11.071846369 72.7436220656 0.0 0.0 0.0 0.0
484 1 18.162046369 72.7061220656 0.0 0.0 0.0 0.0
485 1 25.094146369 71.6564220656 0.0 0.0 0.0 0.0
486 1 28.757346369 69.4619220656 0.0 0.0 0.0 0.0
487 1 32.348646369 71.0932220656 0.0 0.0 0.0 0.0
488 1 37.665046369 70.2208220656 0.0 0.0 0.0 0.0
489 1 43.547946369 69.1163220656 0.0 0.0 0.0 0.0
490 1 49.339146369 69.3829220656 0.0 0.0 0.0 0.0
491 1 54.104446369 71.0622220656 0.0 0.0 0.0 0.0
492 1 59.918846369 70.2511220656 0.0 0.0 0.0 0.0
493 1 64.830346369 70.5924220656 0.0 0.0 0.0 0.0
494 1 71.854346369 71.2872220656 0.0 0.0 0.0 0.0
495 1 75.342346369 68.8449220656 0.0 0.0 0.0 0.0
496 1 78.428446369 75.5003220656 0.0 0.0 0.0 0.0
497 1 4.65349636897 74.5720220656 0.0 0.0 0.0 0.0
498 1 8.92008636897 77.8146220656 0.0 0.0 0.0 0.0
499 1 14.043046369 76.3971220656 0.0 0.0 0.0 0.0
500 1 20.735246369 74.2574220656 0.0 0.0 0.0 0.0
501 1 27.088846369 73.9242220656 0.0 0.0 0.0 0.0
502 1 35.205046369 71.9527220656 0.0 0.0 0.0 0.0
503 1 38.116746369 75.0729220656 0.0 0.0 0.0 0.0
504 1 42.657646369 72.0185220656 0.0 0.0 0.0 0.0
505 1 47.081546369 75.4975220656 0.0 0.0 0.0 0.0
506 1 52.456946369 75.9090220656 0.0 0.0 0.0 0.0
507 1 57.492046369 75.1927220656 0.0 0.0 0.0 0.0
508 1 62.051846369 75.2254220656 0.0 0.0 0.0 0.0
509 1 67.215246369 74.8509220656 0.0 0.0 0.0 0.0
510 1 74.800346369 71.8489220656 0.0 0.0 0.0 0.0
511 1 5.26051636897 0.591462065613 0.0 0.0 0.0 0.0
512 1 10.414046369 80.4372220656 0.0 0.0 0.0 0.0
513 1 15.826646369 78.8143220656 0.0 0.0 0.0 0.0
514 1 21.469246369 77.1915220656 0.0 0.0 0.0 0.0
515 1 27.187746369 76.9373220656 0.0 0.0 0.0 0.0
516 1 33.056346369 77.1874220656 0.0 0.0 0.0 0.0
517 1 38.381746369 78.0637220656 0.0 0.0 0.0 0.0
518 1 43.144746369 77.4849220656 0.0 0.0 0.0 0.0
519 1 48.051546369 78.3557220656 0.0 0.0 0.0 0.0
520 1 52.918446369 78.8704220656 0.0 0.0 0.0 0.0
521 1 57.918246369 78.1646220656 0.0 0.0 0.0 0.0
522 1 62.998346369 78.0818220656 0.0 0.0 0.0 0.0
523 1 68.555246369 79.1938220656 0.0 0.0 0.0 0.0
524 1 74.197046369 77.5900220656 0.0 0.0 0.0 0.0
525 1 0.766705368975 78.2893220656 0.0 0.0 0.0 0.0
526 1 3.66018636897 79.2640220656 0.0 0.0 0.0 0.0
527 1 8.22177636897 1.27823206561 0.0 0.0 0.0 0.0
528 1 13.447346369 80.6968220656 0.0 0.0 0.0 0.0
529 1 18.877446369 78.7977220656 0.0 0.0 0.0 0.0
530 1 24.377946369 78.1382220656 0.0 0.0 0.0 0.0
531 1 30.082146369 77.9298220656 0.0 0.0 0.0 0.0
532 1 35.503346369 78.9735220656 0.0 0.0 0.0 0.0
533 1 40.982946369 79.5849220656 0.0 0.0 0.0 0.0
534 1 45.318746369 79.5557220656 0.0 0.0 0.0 0.0
535 1 50.314246369 80.3503220656 0.0 0.0 0.0 0.0
536 1 55.640846369 80.1286220656 0.0 0.0 0.0 0.0
537 1 60.466246369 79.7497220656 0.0 0.0 0.0 0.0
538 1 66.002046369 77.6066220656 0.0 0.0 0.0 0.0
539 1 71.575246369 79.1743220656 0.0 0.0 0.0 0.0
540 1 76.721546369 79.2752220656 0.0 0.0 0.0 0.0
541 2 4.33095636897 1.77390206561 0.0 0.0 0.0 0.0
542 2 4.38110636897 4.16493206561 0.0 0.0 0.0 0.0
543 2 1.93104636897 2.68419206561 0.0 0.0 0.0 0.0
544 2 8.85650636897 5.39715206561 0.0 0.0 0.0 0.0
545 2 8.79212636897 2.68270206561 0.0 0.0 0.0 0.0
546 2 10.982746369 4.12920206561 0.0 0.0 0.0 0.0
547 2 16.086146369 2.45374206561 0.0 0.0 0.0 0.0
548 2 14.004946369 0.851242065613 0.0 0.0 0.0 0.0
549 2 13.536846369 3.30170206561 0.0 0.0 0.0 0.0
550 2 19.291846369 80.2522220656 0.0 0.0 0.0 0.0
551 2 18.559446369 1.48488206561 0.0 0.0 0.0 0.0
552 2 21.016346369 1.11220206561 0.0 0.0 0.0 0.0
553 2 24.492946369 79.6513220656 0.0 0.0 0.0 0.0
554 2 25.995446369 0.585312065613 0.0 0.0 0.0 0.0
555 2 23.499446369 0.890542065613 0.0 0.0 0.0 0.0
556 2 28.586646369 0.493422065613 0.0 0.0 0.0 0.0
557 2 31.152446369 0.501012065613 0.0 0.0 0.0 0.0
558 2 29.978346369 79.4427220656 0.0 0.0 0.0 0.0
559 2 35.451846369 80.4752220656 0.0 0.0 0.0 0.0
560 2 36.446346369 1.74304206561 0.0 0.0 0.0 0.0
561 2 33.851846369 1.03121206561 0.0 0.0 0.0 0.0
562 2 41.121646369 2.49629206561 0.0 0.0 0.0 0.0
563 2 41.393346369 81.0444220656 0.0 0.0 0.0 0.0
564 2 43.442446369 1.38389206561 0.0 0.0 0.0 0.0
565 2 46.263946369 2.03956206561 0.0 0.0 0.0 0.0
566 2 45.154846369 81.0392220656 0.0 0.0 0.0 0.0
567 2 50.422146369 0.600302065613 0.0 0.0 0.0 0.0
568 2 51.981346369 2.64404206561 0.0 0.0 0.0 0.0
569 2 49.070446369 2.52378206561 0.0 0.0 0.0 0.0
570 2 55.860046369 0.366160065613 0.0 0.0 0.0 0.0
571 2 57.743746369 1.72311206561 0.0 0.0 0.0 0.0
572 2 54.833746369 2.62955206561 0.0 0.0 0.0 0.0
573 2 60.585546369 1.96044206561 0.0 0.0 0.0 0.0
574 2 63.422846369 2.17997206561 0.0 0.0 0.0 0.0
575 2 61.231846369 4.03488206561 0.0 0.0 0.0 0.0
576 2 69.442146369 1.14943206561 0.0 0.0 0.0 0.0
577 2 66.412146369 1.33622206561 0.0 0.0 0.0 0.0
578 2 68.132346369 80.6403220656 0.0 0.0 0.0 0.0
579 2 71.386746369 80.6812220656 0.0 0.0 0.0 0.0
580 2 72.314646369 1.62200206561 0.0 0.0 0.0 0.0
581 2 76.616946369 80.7730220656 0.0 0.0 0.0 0.0
582 2 77.958146369 1.65715206561 0.0 0.0 0.0 0.0
583 2 75.139846369 1.54221206561 0.0 0.0 0.0 0.0
584 2 78.540546369 3.82098206561 0.0 0.0 0.0 0.0
585 2 78.811746369 6.21081206561 0.0 0.0 0.0 0.0
586 2 76.285546369 5.05237206561 0.0 0.0 0.0 0.0
587 2 4.60546636897 6.65754206561 0.0 0.0 0.0 0.0
588 2 4.77720636897 9.23765206561 0.0 0.0 0.0 0.0
589 2 2.48456636897 7.62833206561 0.0 0.0 0.0 0.0
590 2 8.44573636897 8.16339206561 0.0 0.0 0.0 0.0
591 2 6.71319636897 5.96649206561 0.0 0.0 0.0 0.0
592 2 17.905946369 6.17868206561 0.0 0.0 0.0 0.0
593 2 18.342146369 3.92551206561 0.0 0.0 0.0 0.0
594 2 20.629146369 5.19868206561 0.0 0.0 0.0 0.0
595 2 23.460046369 5.62930206561 0.0 0.0 0.0 0.0
596 2 22.288846369 3.36134206561 0.0 0.0 0.0 0.0
597 2 27.313246369 2.82657206561 0.0 0.0 0.0 0.0
598 2 28.535346369 5.19497206561 0.0 0.0 0.0 0.0
599 2 26.033346369 5.17167206561 0.0 0.0 0.0 0.0
600 2 32.215346369 2.85917206561 0.0 0.0 0.0 0.0
601 2 33.698446369 4.75570206561 0.0 0.0 0.0 0.0
602 2 31.039946369 5.24834206561 0.0 0.0 0.0 0.0
603 2 37.663646369 8.06163206561 0.0 0.0 0.0 0.0
604 2 35.632046369 6.45685206561 0.0 0.0 0.0 0.0
605 2 35.365546369 9.11292206561 0.0 0.0 0.0 0.0
606 2 40.861946369 5.16363206561 0.0 0.0 0.0 0.0
607 2 42.854346369 7.02136206561 0.0 0.0 0.0 0.0
608 2 40.283146369 7.64872206561 0.0 0.0 0.0 0.0