# input file

1350 atoms
2 atom types

0.0 78.6695126688 xlo xhi
0.0 81.5192828659 ylo yhi
-10.0 10.0 zlo zhi
0.0 0.0 0.0 xy xz yz

Masses

1 28.0855 #Si
2 15.9994 #O

Atoms

1 1 3.05797411125 2.26123143293 0.0
2 1 10.8214941113 0.92578143293 0.0
3 1 13.8273941113 0.77474143293 0.0
4 1 18.9268941113 0.86384143293 0.0
5 1 24.3653941113 0.72663143293 0.0
6 1 28.3575941113 2.91825143293 0.0
7 1 34.0276941113 1.66591143293 0.0
8 1 39.2430941113 1.87148143293 0.0
9 1 44.1991941113 0.78943143293 0.0
10 1 50.6771941113 1.00330143293 0.0
11 1 53.6396941113 1.75179143293 0.0
12 1 58.5869941113 1.72667143293 0.0
13 1 66.9099941113 1.36061143293 0.0
14 1 69.9371941113 1.53794143293 0.0
15 1 75.5115941113 1.69024143293 0.0
16 1 77.0198941113 4.28895143293 0.0
17 1 5.93176411125 5.93589143293 0.0
18 1 9.94279411125 9.05883143293 0.0
19 1 17.0254941113 5.37322143293 0.0
20 1 21.3802941113 7.33879143293 0.0
21 1 26.6900941113 5.43107143293 0.0
22 1 31.7486941113 6.01501143293 0.0
23 1 35.3349941113 4.40751143293 0.0
24 1 42.3326941113 5.85247143293 0.0
25 1 47.0692941113 8.19292143293 0.0
26 1 51.8447941113 8.64278143293 0.0
27 1 56.9878941113 6.47268143293 0.0
28 1 61.4916941113 5.86163143293 0.0
29 1 66.3975941113 8.20590143293 0.0
30 1 74.2104941113 5.35934143293 0.0
31 1 4.40524411125 9.90154143293 0.0
32 1 7.36706411125 10.6649414329 0.0
33 1 12.9419941113 9.47393143293 0.0
34 1 20.1213941113 10.0708414329 0.0
35 1 24.3466941113 10.3656414329 0.0
36 1 29.6512941113 10.1945414329 0.0
37 1 34.8933941113 10.2953414329 0.0
38 1 39.9901941113 10.4008414329 0.0
39 1 45.7307941113 10.9009414329 0.0
40 1 50.5858941113 11.3818414329 0.0
41 1 55.6918941113 11.4918414329 0.0
42 1 61.6765941113 10.3328414329 0.0
43 1 64.6947941113 10.6810414329 0.0
44 1 69.6723941113 11.1562414329 0.0
45 1 74.8683941113 12.6569414329 0.0
46 1 77.9825941113 15.5387414329 0.0
47 1 4.02388411125 14.3465414329 0.0
48 1 8.48363411125 13.4777414329 0.0
49 1 16.4032941113 13.6042414329 0.0
50 1 22.0189941113 15.3621414329 0.0
51 1 27.5073941113 14.5963414329 0.0
52 1 31.0232941113 17.1112414329 0.0
53 1 37.3959941113 15.0204414329 0.0
54 1 42.7669941113 14.6100414329 0.0
55 1 47.8858941113 15.9450414329 0.0
56 1 52.8696941113 16.0014414329 0.0
57 1 57.8521941113 16.3332414329 0.0
58 1 62.5014941113 15.9496414329 0.0
59 1 67.6724941113 15.5456414329 0.0
60 1 73.0180941113 15.0573414329 0.0
61 1 2.62725411125 19.5383414329 0.0
62 1 7.40720411125 18.7716414329 0.0
63 1 12.5966941113 17.1106414329 0.0
64 1 17.3764941113 16.5068414329 0.0
65 1 24.3045941113 19.0787414329 0.0
66 1 29.1697941113 19.4493414329 0.0
67 1 33.4846941113 18.7997414329 0.0
68 1 40.2251941113 19.1490414329 0.0
69 1 44.1467941113 21.9982414329 0.0
70 1 51.9586941113 20.2587414329 0.0
71 1 54.9459941113 20.8009414329 0.0
72 1 60.2205941113 21.0410414329 0.0
73 1 65.7012941113 20.2630414329 0.0
74 1 70.6538941113 19.7130414329 0.0
75 1 75.5870941113 19.9073414329 0.0
76 1 1.10081411125 23.2744414329 0.0
77 1 3.91271411125 22.2408414329 0.0
78 1 11.5958941113 21.8621414329 0.0
79 1 15.4508941113 24.4901414329 0.0
80 1 22.6493941113 23.3240414329 0.0
81 1 25.6511941113 23.8297414329 0.0
82 1 30.9744941113 24.0605414329 0.0
83 1 36.3847941113 23.4351414329 0.0
84 1 41.8602941113 23.9904414329 0.0
85 1 46.5781941113 25.4124414329 0.0
86 1 51.4848941113 25.3353414329 0.0
87 1 57.9371941113 25.4239414329 0.0
88 1 64.2143941113 24.6496414329 0.0
89 1 69.4186941113 24.5411414329 0.0
90 1 74.1956941113 24.3054414329 0.0
91 1 2.09613411125 29.3226414329 0.0
92 1 10.0319941113 26.5615414329 0.0
93 1 13.0693941113 26.3971414329 0.0
94 1 17.2881941113 28.5765414329 0.0
95 1 22.4665941113 28.8445414329 0.0
96 1 29.2877941113 28.2256414329 0.0
97 1 33.6219941113 30.4287414329 0.0
98 1 38.6294941113 27.9612414329 0.0
99 1 44.0110941113 29.2969414329 0.0
100 1 49.2920941113 30.0334414329 0.0
101 1 53.1523941113 27.8428414329 0.0
102 1 59.9432941113 27.6671414329 0.0
103 1 66.0543941113 31.7320414329 0.0
104 1 72.9989941113 29.0884414329 0.0
105 1 76.0057941113 29.3581414329 0.0
106 1 77.2707941113 33.9494414329 0.0
107 1 5.86440411125 32.4802414329 0.0
108 1 8.78675411125 31.8214414329 0.0
109 1 13.4999941113 32.0220414329 0.0
110 1 18.8924941113 33.1070414329 0.0
111 1 24.7223941113 30.9370414329 0.0
112 1 32.4686941113 33.2125414329 0.0
113 1 36.9036941113 33.1871414329 0.0
114 1 41.2735941113 32.6952414329 0.0
115 1 46.6652941113 33.9977414329 0.0
116 1 52.7192941113 33.6768414329 0.0
117 1 58.0863941113 33.0881414329 0.0
118 1 63.6310941113 33.5627414329 0.0
119 1 68.5211941113 35.4132414329 0.0
120 1 74.2449941113 33.9870414329 0.0
121 1 1.89346411125 38.3150414329 0.0
122 1 6.98739411125 40.0430414329 0.0
123 1 11.5059941113 36.8146414329 0.0
124 1 17.0838941113 37.9535414329 0.0
125 1 21.3700941113 34.8202414329 0.0
126 1 29.1376941113 36.4213414329 0.0
127 1 36.3551941113 37.7683414329 0.0
128 1 39.3542941113 37.9344414329 0.0
129 1 43.5633941113 37.3592414329 0.0
130 1 48.0786941113 36.6396414329 0.0
131 1 54.6479941113 37.6217414329 0.0
132 1 59.9188941113 37.4503414329 0.0
133 1 64.5232941113 38.6723414329 0.0
134 1 69.6216941113 40.1783414329 0.0
135 1 75.3962941113 39.4778414329 0.0
136 1 0.450304111252 43.1431414329 0.0
137 1 5.89284411125 42.8663414329 0.0
138 1 10.4340941113 42.4451414329 0.0
139 1 17.7028941113 40.8750414329 0.0
140 1 20.6800941113 40.4539414329 0.0
141 1 25.7557941113 39.3786414329 0.0
142 1 30.7079941113 39.0603414329 0.0
143 1 37.3614941113 43.5630414329 0.0
144 1 45.2941941113 44.1735414329 0.0
145 1 44.3215941113 41.3211414329 0.0
146 1 50.5454941113 41.7824414329 0.0
147 1 56.0524941113 41.6906414329 0.0
148 1 61.8788941113 42.8358414329 0.0
149 1 66.7288941113 45.4542414329 0.0
150 1 71.4560941113 42.5407414329 0.0
151 1 2.84485411125 47.2832414329 0.0
152 1 8.07691411125 47.6424414329 0.0
153 1 12.6970941113 47.2851414329 0.0
154 1 17.4444941113 45.2076414329 0.0
155 1 25.1500941113 43.9603414329 0.0
156 1 28.1691941113 43.9365414329 0.0
157 1 33.1942941113 46.4358414329 0.0
158 1 38.4987941113 48.6395414329 0.0
159 1 43.2258941113 48.6952414329 0.0
160 1 50.0384941113 46.5517414329 0.0
161 1 54.5494941113 45.6756414329 0.0
162 1 60.0979941113 48.2897414329 0.0
163 1 65.7521941113 48.2815414329 0.0
164 1 70.9751941113 47.6401414329 0.0
165 1 76.3988941113 47.5593414329 0.0
166 1 0.671429111252 51.9968414329 0.0
167 1 5.33990411125 51.9371414329 0.0
168 1 9.51110411125 50.3014414329 0.0
169 1 17.7559941113 49.6895414329 0.0
170 1 19.5365941113 47.2965414329 0.0
171 1 25.4327941113 49.5129414329 0.0
172 1 30.1286941113 49.1991414329 0.0
173 1 34.4532941113 51.1944414329 0.0
174 1 40.6642941113 54.0352414329 0.0
175 1 46.0234941113 49.7745414329 0.0
176 1 53.4472941113 50.9449414329 0.0
177 1 58.8921941113 51.0612414329 0.0
178 1 64.2850941113 53.6591414329 0.0
179 1 69.6317941113 52.1520414329 0.0
180 1 74.2051941113 54.1542414329 0.0
181 1 3.29888411125 56.8615414329 0.0
182 1 8.55302411125 55.9623414329 0.0
183 1 15.2363941113 55.5656414329 0.0
184 1 18.2517941113 55.5026414329 0.0
185 1 24.2789941113 54.4478414329 0.0
186 1 27.2513941113 54.0699414329 0.0
187 1 31.9401941113 56.9516414329 0.0
188 1 36.2965941113 53.5346414329 0.0
189 1 46.1042941113 55.4986414329 0.0
190 1 49.5214941113 57.3718414329 0.0
191 1 56.1160941113 55.3865414329 0.0
192 1 64.3984941113 56.6454414329 0.0
193 1 67.3642941113 56.9677414329 0.0
194 1 74.2459941113 57.1347414329 0.0
195 1 77.2357941113 57.0609414329 0.0
196 1 0.336112111252 61.7386414329 0.0
197 1 7.14413411125 60.6226414329 0.0
198 1 10.1280941113 60.8708414329 0.0
199 1 14.9072941113 60.9711414329 0.0
200 1 20.1239941113 60.2486414329 0.0
201 1 25.5458941113 59.8602414329 0.0
202 1 32.2061941113 59.9357414329 0.0
203 1 37.5970941113 60.7673414329 0.0
204 1 41.3377941113 57.0428414329 0.0
205 1 47.8061941113 59.8240414329 0.0
206 1 51.9625941113 59.0752414329 0.0
207 1 58.3066941113 59.9155414329 0.0
208 1 62.3990941113 63.2985414329 0.0
209 1 68.1903941113 62.0557414329 0.0
210 1 73.5177941113 62.1114414329 0.0
211 1 2.33282411125 66.4111414329 0.0
212 1 7.59246411125 65.7182414329 0.0
213 1 12.9753941113 65.7047414329 0.0
214 1 18.2270941113 65.0125414329 0.0
215 1 23.3969941113 64.2866414329 0.0
216 1 27.8576941113 61.8853414329 0.0
217 1 37.8263941113 63.7438414329 0.0
218 1 40.7433941113 63.0246414329 0.0
219 1 44.8688941113 63.8917414329 0.0
220 1 49.9018941113 64.5032414329 0.0
221 1 55.1308941113 64.0196414329 0.0
222 1 60.3097941113 65.4793414329 0.0
223 1 65.5486941113 66.1958414329 0.0
224 1 70.9682941113 66.4774414329 0.0
225 1 76.1493941113 66.1758414329 0.0
226 1 0.189218111252 71.0406414329 0.0
227 1 5.31738411125 70.4226414329 0.0
228 1 10.5165941113 70.0673414329 0.0
229 1 16.7384941113 69.6363414329 0.0
230 1 22.1334941113 68.9287414329 0.0
231 1 26.9535941113 67.4708414329 0.0
232 1 32.2843941113 67.8150414329 0.0
233 1 36.8133941113 68.8268414329 0.0
234 1 41.8655941113 68.6211414329 0.0
235 1 47.3384941113 68.8534414329 0.0
236 1 52.5912941113 68.7251414329 0.0
237 1 57.2664941113 71.0505414329 0.0
238 1 62.8189941113 70.2210414329 0.0
239 1 67.8676941113 70.5800414329 0.0
240 1 73.3544941113 70.8228414329 0.0
241 1 3.21668411125 75.2050414329 0.0
242 1 8.03092411125 74.6953414329 0.0
243 1 12.3215941113 72.4660414329 0.0
244 1 19.8151941113 73.5190414329 0.0
245 1 26.7823941113 72.2348414329 0.0
246 1 29.7828941113 71.9762414329 0.0
247 1 33.8949941113 75.6353414329 0.0
248 1 39.3485941113 73.5538414329 0.0
249 1 44.7368941113 73.0770414329 0.0
250 1 49.9861941113 73.3686414329 0.0
251 1 57.1053941113 74.0318414329 0.0
252 1 60.0362941113 74.6195414329 0.0
253 1 64.8107941113 74.9546414329 0.0
254 1 70.3704941113 74.8626414329 0.0
255 1 74.6518941113 73.5260414329 0.0
256 1 1.33770411125 4.75092143293 0.0
257 1 5.97776411125 2.95047143293 0.0
258 1 8.95620411125 3.25767143293 0.0
259 1 16.3415941113 2.43997143293 0.0
260 1 21.6551941113 2.15975143293 0.0
261 1 27.3572941113 0.09520543293 0.0
262 1 31.3604941113 3.04303143293 0.0
263 1 38.3028941113 4.73409143293 0.0
264 1 42.0530941113 2.87028143293 0.0
265 1 46.2989941113 2.93329143293 0.0
266 1 49.2147941113 3.62722143293 0.0
267 1 56.1387941113 3.52645143293 0.0
268 1 61.3729941113 2.87277143293 0.0
269 1 64.3784941113 2.95412143293 0.0
270 1 72.7011941113 2.76230143293 0.0
271 1 3.19416411125 7.13839143293 0.0
272 1 8.90318411125 6.25043143293 0.0
273 1 15.6263941113 8.08450143293 0.0
274 1 19.9824941113 4.69430143293 0.0
275 1 24.3726941113 7.35432143293 0.0
276 1 29.0452941113 7.27491143293 0.0
277 1 34.4448941113 7.29843143293 0.0
278 1 39.7647941113 7.38319143293 0.0
279 1 45.3087941113 5.77218143293 0.0
280 1 49.6365941113 6.61552143293 0.0
281 1 54.8573941113 8.60037143293 0.0
282 1 59.5533941113 8.13378143293 0.0
283 1 64.4706941113 5.93423143293 0.0
284 1 69.3838941113 8.17328143293 0.0
285 1 72.3368941113 7.69697143293 0.0
286 1 77.8941941113 12.5455414329 0.0
287 1 2.19769411125 11.9513414329 0.0
288 1 13.6333941113 12.4111414329 0.0
289 1 17.1910941113 10.6792414329 0.0
290 1 22.0734941113 12.3439414329 0.0
291 1 27.0391941113 11.6523414329 0.0
292 1 32.2292941113 11.7197414329 0.0
293 1 37.4039941113 11.9860414329 0.0
294 1 42.7819941113 11.5965414329 0.0
295 1 47.9821941113 12.9152414329 0.0
296 1 53.1023941113 13.0138414329 0.0
297 1 58.0677941113 13.3427414329 0.0
298 1 61.0722941113 13.2804414329 0.0
299 1 67.0301941113 12.6042414329 0.0
300 1 72.6303941113 10.6754414329 0.0
301 1 2.09740411125 16.6158414329 0.0
302 1 6.63191411125 15.8444414329 0.0
303 1 11.3635941113 14.3638414329 0.0
304 1 20.1491941113 17.7544414329 0.0
305 1 24.9227941113 16.1475414329 0.0
306 1 30.4964941113 14.1824414329 0.0
307 1 36.3231941113 17.8549414329 0.0
308 1 40.1755941113 16.1387414329 0.0
309 1 44.9559941113 16.6753414329 0.0
310 1 50.3804941113 17.6673414329 0.0
311 1 55.2592941113 17.8177414329 0.0
312 1 60.3272941113 18.0294414329 0.0
313 1 65.2154941113 17.2793414329 0.0
314 1 70.4690941113 16.6882414329 0.0
315 1 75.3378941113 16.9367414329 0.0
316 1 78.5015941113 20.5734414329 0.0
317 1 6.86711411125 21.7481414329 0.0
318 1 10.3839941113 19.1224414329 0.0
319 1 15.2084941113 18.6193414329 0.0
320 1 21.6270941113 20.4320414329 0.0
321 1 26.6023941113 20.9863414329 0.0
322 1 31.6321941113 21.1437414329 0.0
323 1 37.5786941113 20.6126414329 0.0
324 1 43.2346941113 19.1503414329 0.0
325 1 47.1246941113 22.4805414329 0.0
326 1 50.1373941113 22.6367414329 0.0
327 1 57.5209941113 22.4250414329 0.0
328 1 63.1347941113 21.8489414329 0.0
329 1 68.3812941113 21.6862414329 0.0
330 1 73.0692941113 21.5164414329 0.0
331 1 78.3659941113 27.5159414329 0.0
332 1 9.19528411125 23.6699414329 0.0
333 1 14.5950941113 21.5915414329 0.0
334 1 18.2241941113 25.7257414329 0.0
335 1 21.2556941113 26.0222414329 0.0
336 1 28.2502941113 25.3933414329 0.0
337 1 33.8035941113 25.1131414329 0.0
338 1 38.9915941113 24.9645414329 0.0
339 1 43.7397941113 26.3210414329 0.0
340 1 49.0524941113 27.0634414329 0.0
341 1 56.1387941113 27.8223414329 0.0
342 1 62.9156941113 27.3432414329 0.0
343 1 66.8490941113 26.0825414329 0.0
344 1 71.9142941113 26.2626414329 0.0
345 1 77.1792941113 24.7785414329 0.0
346 1 78.3891941113 31.1785414329 0.0
347 1 5.11775411125 29.5718414329 0.0
348 1 8.07332411125 28.8864414329 0.0
349 1 14.3303941113 29.1290414329 0.0
350 1 19.7894941113 30.2385414329 0.0
351 1 27.7689941113 30.8619414329 0.0
352 1 32.2872941113 27.7428414329 0.0
353 1 36.6107941113 30.1968414329 0.0
354 1 41.0510941113 29.7277414329 0.0
355 1 46.4759941113 31.0177414329 0.0
356 1 52.1995941113 30.7084414329 0.0
357 1 58.1326941113 30.0642414329 0.0
358 1 65.5418941113 28.7775414329 0.0
359 1 69.0018941113 32.4567414329 0.0
360 1 71.9914941113 31.9354414329 0.0
361 1 1.23623411125 35.3988414329 0.0
362 1 4.21438411125 34.9892414329 0.0
363 1 11.0606941113 33.8076414329 0.0
364 1 15.9401941113 33.7705414329 0.0
365 1 24.2654941113 33.9527414329 0.0
366 1 29.4640941113 33.4020414329 0.0
367 1 34.7059941113 35.2287414329 0.0
368 1 39.3249941113 34.9440414329 0.0
369 1 43.7140941113 34.3885414329 0.0
370 1 51.0359941113 36.1941414329 0.0
371 1 55.5294941113 34.7239414329 0.0
372 1 60.7447941113 34.5311414329 0.0
373 1 65.5504941113 35.8663414329 0.0
374 1 70.7629941113 37.4085414329 0.0
375 1 73.7327941113 36.9571414329 0.0
376 1 78.2952941113 40.2590414329 0.0
377 1 4.85965411125 37.9213414329 0.0
378 1 9.95359411125 39.4510414329 0.0
379 1 14.5057941113 36.4218414329 0.0
380 1 20.0530941113 37.5163414329 0.0
381 1 26.1089941113 36.3816414329 0.0
382 1 33.1517941113 40.9134414329 0.0
383 1 36.1710941113 40.7600414329 0.0
384 1 41.7580941113 39.7345414329 0.0
385 1 46.1163941113 38.9093414329 0.0
386 1 51.9689941113 39.0591414329 0.0
387 1 57.3167941113 38.9705414329 0.0
388 1 61.7570941113 39.8284414329 0.0
389 1 66.6760941113 40.7424414329 0.0
390 1 74.4437941113 42.3323414329 0.0
391 1 3.22913411125 44.2928414329 0.0
392 1 8.33422411125 44.6215414329 0.0
393 1 12.8205941113 44.2650414329 0.0
394 1 15.5251941113 42.9316414329 0.0
395 1 23.5378941113 41.4126414329 0.0
396 1 28.3476941113 40.9278414329 0.0
397 1 34.3369941113 43.6842414329 0.0
398 1 39.5551941113 45.7510414329 0.0
399 1 42.6310941113 45.7352414329 0.0
400 1 48.3861941113 43.9837414329 0.0
401 1 53.3206941113 42.9421414329 0.0
402 1 57.2556941113 44.4256414329 0.0
403 1 64.8642941113 43.1269414329 0.0
404 1 69.6868941113 44.9506414329 0.0
405 1 76.4718941113 44.5553414329 0.0
406 1 0.369899111252 48.9997414329 0.0
407 1 5.35720411125 48.9265414329 0.0
408 1 12.4999941113 50.3022414329 0.0
409 1 15.6539941113 47.5959414329 0.0
410 1 22.0400941113 48.8753414329 0.0
411 1 24.2119941113 46.8074414329 0.0
412 1 30.1918941113 46.1977414329 0.0
413 1 35.4920941113 48.3862414329 0.0
414 1 42.4299941113 51.6001414329 0.0
415 1 48.9791941113 49.3589414329 0.0
416 1 52.6953941113 48.0123414329 0.0
417 1 60.1163941113 45.2800414329 0.0
418 1 62.9218941113 49.2717414329 0.0
419 1 68.5334941113 49.3816414329 0.0
420 1 73.7014941113 48.8755414329 0.0
421 1 3.03374411125 53.8560414329 0.0
422 1 8.14801411125 52.9805414329 0.0
423 1 14.3981941113 52.6764414329 0.0
424 1 17.4074941113 52.6355414329 0.0
425 1 23.2734941113 51.6001414329 0.0
426 1 27.8860941113 51.1512414329 0.0
427 1 31.5470941113 51.8360414329 0.0
428 1 38.6944941113 51.7203414329 0.0
429 1 45.2149941113 52.6470414329 0.0
430 1 50.5884941113 51.9122414329 0.0
431 1 56.1382941113 52.3545414329 0.0
432 1 61.7557941113 52.0265414329 0.0
433 1 67.2695941113 53.9779414329 0.0
434 1 72.5827941113 51.6560414329 0.0
435 1 77.1860941113 54.0690414329 0.0
436 1 0.998514111252 58.8046414329 0.0
437 1 6.16048411125 57.7845414329 0.0
438 1 10.8089941113 57.9481414329 0.0
439 1 13.7932941113 58.1830414329 0.0
440 1 20.6843941113 57.3062414329 0.0
441 1 23.7207941113 57.4084414329 0.0
442 1 30.1927941113 54.5298414329 0.0
443 1 34.8415941113 56.1696414329 0.0
444 1 44.2340941113 57.8906414329 0.0
445 1 48.9411941113 54.4519414329 0.0
446 1 54.7802941113 58.1059414329 0.0
447 1 58.6783941113 56.9359414329 0.0
448 1 61.5841941113 57.6177414329 0.0
449 1 69.2828941113 59.2659414329 0.0
450 1 72.2808941113 59.3822414329 0.0
451 1 2.80192411125 63.4551414329 0.0
452 1 5.80717411125 63.2941414329 0.0
453 1 12.4833941113 62.7408414329 0.0
454 1 17.7159941113 62.0446414329 0.0
455 1 22.9246941113 61.3372414329 0.0
456 1 30.8344941113 62.6162414329 0.0
457 1 35.0966941113 59.1459414329 0.0
458 1 40.4868941113 59.9810414329 0.0
459 1 44.9848941113 60.8371414329 0.0
460 1 50.2610941113 61.5308414329 0.0
461 1 55.5553941113 61.0323414329 0.0
462 1 61.2020941113 60.5742414329 0.0
463 1 65.4101941113 63.2120414329 0.0
464 1 70.8425941113 63.4857414329 0.0
465 1 76.3426941113 63.1661414329 0.0
466 1 78.4927941113 68.0549414329 0.0
467 1 5.14397411125 67.4466414329 0.0
468 1 10.2958941113 67.0657414329 0.0
469 1 15.7907941113 66.7832414329 0.0
470 1 21.0310941113 66.1304414329 0.0
471 1 26.3883941113 64.5200414329 0.0
472 1 32.9165941113 64.8776414329 0.0
473 1 35.7778941113 65.9483414329 0.0
474 1 42.3603941113 65.5880414329 0.0
475 1 47.2005941113 65.8260414329 0.0
476 1 52.6387941113 65.7179414329 0.0
477 1 57.3345941113 66.0705414329 0.0
478 1 62.7332941113 67.2421414329 0.0
479 1 68.1905941113 67.6078414329 0.0
480 1 73.6451941113 67.8354414329 0.0
481 1 2.93856411125 72.2214414329 0.0
482 1 8.00832411125 71.7028414329 0.0
483 1 15.3050941113 72.2709414329 0.0
484 1 19.6035941113 70.5327414329 0.0
485 1 25.0268941113 69.7754414329 0.0
486 1 29.5400941113 68.9827414329 0.0
487 1 34.1296941113 70.2006414329 0.0
488 1 39.3997941113 70.4604414329 0.0
489 1 44.5516941113 70.0566414329 0.0
490 1 50.0060941113 70.3300414329 0.0
491 1 55.6078941113 68.5587414329 0.0
492 1 60.1952941113 71.6323414329 0.0
493 1 65.2261941113 71.9893414329 0.0
494 1 70.5565941113 71.8793414329 0.0
495 1 77.6219941113 73.7754414329 0.0
496 1 0.463046111252 76.3715414329 0.0
497 1 5.80723411125 76.7045414329 0.0
498 1 10.9843941113 75.1555414329 0.0
499 1 17.0591941113 74.7042414329 0.0
500 1 22.3835941113 75.0570414329 0.0
501 1 25.3843941113 74.8855414329 0.0
502 1 32.6763941113 72.8583414329 0.0
503 1 36.9568941113 75.5209414329 0.0
504 1 42.1932941113 74.7126414329 0.0
505 1 47.2844941113 74.7370414329 0.0
506 1 52.1380941113 75.5047414329 0.0
507 1 55.0709941113 76.2051414329 0.0
508 1 62.2950941113 76.5928414329 0.0
509 1 67.6106941113 76.0045414329 0.0
510 1 73.0964941113 76.0864414329 0.0
511 1 5.90267411125 79.7048414329 0.0
512 1 11.1765941113 78.1442414329 0.0
513 1 16.4559941113 77.6455414329 0.0
514 1 21.5268941113 77.9259414329 0.0
515 1 26.7056941113 77.5824414329 0.0
516 1 32.1561941113 78.1706414329 0.0
517 1 37.0044941113 78.5573414329 0.0
518 1 43.8499941113 77.2703414329 0.0
519 1 46.8647941113 77.7433414329 0.0
520 1 51.6925941113 78.4759414329 0.0
521 1 56.6730941113 78.7657414329 0.0
522 1 62.2357941113 79.5990414329 0.0
523 1 67.8094941113 78.9790414329 0.0
524 1 73.4225941113 79.0649414329 0.0
525 1 0.379568111252 79.3736414329 0.0
526 1 3.06161411125 80.7741414329 0.0
527 1 8.90507411125 80.1193414329 0.0
528 1 13.9501941113 79.2945414329 0.0
529 1 18.9026941113 79.3798414329 0.0
530 1 24.2028941113 79.2601414329 0.0
531 1 29.2488941113 79.1960414329 0.0
532 1 34.4317941113 80.1703414329 0.0
533 1 39.4078941113 80.3848414329 0.0
534 1 42.3921941113 79.8979414329 0.0
535 1 49.0581941113 79.9085414329 0.0
536 1 54.1002941113 80.3039414329 0.0
537 1 59.2788941113 80.3077414329 0.0
538 1 65.1684941113 80.4131414329 0.0
539 1 70.5966941113 80.1293414329 0.0
540 1 76.1768941113 80.2893414329 0.0
541 2 2.95080411125 0.75880143293 0.0
542 2 4.55289411125 2.49428143293 0.0
543 2 2.14046411125 3.46154143293 0.0
544 2 9.83349411125 81.3078414329 0.0
545 2 9.97259411125 2.16609143293 0.0
546 2 12.3249941113 0.95455143293 0.0
547 2 13.9789941113 80.7943414329 0.0
548 2 15.0411941113 1.66490143293 0.0
549 2 18.8784941113 80.8776414329 0.0
550 2 20.3245941113 1.42114143293 0.0
551 2 17.6378941113 1.65349143293 0.0
552 2 24.1699941113 80.7512414329 0.0
553 2 25.8750941113 0.48953643293 0.0
554 2 23.0654941113 1.55730143293 0.0
555 2 27.8972941113 1.50037143293 0.0
556 2 29.8638941113 2.92905143293 0.0
557 2 27.4066941113 4.10123143293 0.0
558 2 34.2830941113 0.17040943293 0.0
559 2 34.7614941113 3.00146143293 0.0
560 2 32.6100941113 2.21049143293 0.0
561 2 39.1705941113 0.36550143293 0.0
562 2 40.6792941113 2.30252143293 0.0
563 2 38.7039941113 3.27666143293 0.0
564 2 43.3978941113 81.0363414329 0.0
565 2 45.4094941113 1.70980143293 0.0
566 2 43.1430941113 1.85921143293 0.0
567 2 49.9807941113 2.34412143293 0.0
568 2 49.7677941113 81.2831414329 0.0
569 2 52.1407941113 1.45242143293 0.0
570 2 53.9802941113 0.27546843293 0.0
571 2 54.8130941113 2.74139143293 0.0
572 2 58.8694941113 0.24169743293 0.0
573 2 60.0005941113 2.27792143293 0.0
574 2 57.3576941113 2.60636143293 0.0
575 2 65.6959941113 2.25233143293 0.0
576 2 66.0140941113 0.14269543293 0.0
577 2 68.4124941113 1.57036143293 0.0
578 2 70.3213941113 0.08514643293 0.0
579 2 71.2709941113 2.27084143293 0.0
580 2 76.4124941113 2.90026143293 0.0
581 2 75.9098941113 0.24927543293 0.0
582 2 74.0471941113 2.06077143293 0.0
583 2 78.4972941113 4.59293143293 0.0
584 2 75.6899941113 5.03703143293 0.0
585 2 4.57876411125 6.54787143293 0.0
586 2 7.39121411125 6.27854143293 0.0
587 2 5.88142411125 4.44590143293 0.0
588 2 9.53379411125 7.60275143293 0.0
589 2 11.4432941113 9.25132143293 0.0
590 2 8.66005411125 9.86334143293 0.0
591 2 16.5160941113 3.93833143293 0.0
592 2 18.5086941113 5.04981143293 0.0
593 2 16.2836941113 6.70565143293 0.0
594 2 20.6853941113 6.02156143293 0.0
595 2 22.8766941113 7.23388143293 0.0
596 2 20.7235941113 8.69140143293 0.0
597 2 27.8333941113 6.41333143293 0.0
598 2 25.4470941113 6.29360143293 0.0
599 2 31.6441941113 4.52137143293 0.0
600 2 33.0231941113 6.78807143293 0.0
601 2 30.3965941113 6.63821143293 0.0
602 2 36.8196941113 4.57483143293 0.0
603 2 34.9499941113 5.87362143293 0.0
604 2 42.1517941113 4.35994143293 0.0
605 2 43.8220941113 5.96244143293 0.0
606 2 41.1260941113 6.72389143293 0.0
607 2 46.1475941113 7.00398143293 0.0
608 2 48.3989941113 7.48217143293 0.0
609 2 46.4094941113 9.54535143293 0.0
610 2 50.8358941113 7.52545143293 0.0
611 2 53.3479941113 8.53857143293 0.0
612 2 51.1418941113 9.97964143293 0.0
613 2 56.5507941113 5.00470143293 0.0
614 2 58.2407941113 7.35480143293 0.0
615 2 55.8571941113 7.48441143293 0.0
616 2 61.2943941113 4.37806143293 0.0
617 2 60.5188941113 6.97956143293 0.0
618 2 62.9768941113 6.08235143293 0.0
619 2 65.4874941113 7.01622143293 0.0
620 2 67.8862941113 8.02246143293 0.0
621 2 65.5516941113 9.44136143293 0.0
622 2 73.3321941113 6.58054143293 0.0
623 2 73.3190941113 4.14013143293 0.0
624 2 5.89343411125 10.2632414329 0.0
625 2 3.25628411125 10.8791414329 0.0
626 2 3.70198411125 8.56113143293 0.0
627 2 7.87754411125 12.0961414329 0.0
628 2 14.1947941113 8.61550143293 0.0
629 2 13.3078941113 10.9414414329 0.0
630 2 21.0120941113 11.2769414329 0.0
631 2 18.6578941113 10.3570414329 0.0
632 2 24.4239941113 8.86498143293 0.0
633 2 25.7060941113 10.9945414329 0.0
634 2 23.2539941113 11.3969414329 0.0
635 2 30.9839941113 10.8654414329 0.0
636 2 29.3195941113 8.74081143293 0.0
637 2 28.3528941113 10.9398414329 0.0
638 2 34.7611941113 8.77951143293 0.0
639 2 36.1506941113 11.1306414329 0.0
640 2 33.5848941113 11.0704414329 0.0
641 2 39.8074941113 8.89025143293 0.0
642 2 41.4045941113 10.9598414329 0.0
643 2 38.7140941113 11.2191414329 0.0
644 2 44.2384941113 11.1607414329 0.0
645 2 46.7998941113 11.9725414329 0.0
646 2 51.8221941113 12.2403414329 0.0
647 2 49.2755941113 12.1217414329 0.0
648 2 55.3777941113 10.0219414329 0.0
649 2 54.4130941113 12.2871414329 0.0
650 2 56.9400941113 12.3412414329 0.0
651 2 61.3957941113 11.8162414329 0.0
652 2 60.5438941113 9.31005143293 0.0
653 2 63.2030941113 10.4532414329 0.0
654 2 65.7674941113 11.7720414329 0.0
655 2 69.4667941113 9.67224143293 0.0
656 2 68.3898941113 11.9315414329 0.0
657 2 71.1879941113 11.1458414329 0.0
658 2 73.8245941113 11.5686414329 0.0
659 2 76.3695941113 12.4389414329 0.0
660 2 73.9010941113 13.8319414329 0.0
661 2 77.9592941113 14.0469414329 0.0
662 2 0.673712111252 16.1521414329 0.0
663 2 76.6737941113 16.2547414329 0.0
664 2 3.14820411125 13.1311414329 0.0
665 2 5.34311411125 15.0634414329 0.0
666 2 3.07439411125 15.5050414329 0.0
667 2 9.93609411125 13.8927414329 0.0
668 2 7.60842411125 14.6979414329 0.0
669 2 16.9084941113 12.1639414329 0.0
670 2 16.9378941113 15.0327414329 0.0
671 2 14.9695941113 13.1011414329 0.0
672 2 21.0730941113 16.5377414329 0.0
673 2 23.4933941113 15.6747414329 0.0
674 2 21.9474941113 13.8438414329 0.0
675 2 26.2579941113 15.4476414329 0.0
676 2 29.0028941113 14.4271414329 0.0
677 2 27.1647941113 13.1349414329 0.0
678 2 30.8760941113 15.6338414329 0.0
679 2 32.3344941113 17.8309414329 0.0
680 2 29.9085941113 18.1346414329 0.0
681 2 37.3112941113 13.5040414329 0.0
682 2 38.8247941113 15.4953414329 0.0
683 2 36.7349941113 16.3969414329 0.0
684 2 42.7739941113 13.1097414329 0.0
685 2 43.9309941113 15.5657414329 0.0
686 2 41.4536941113 15.3507414329 0.0
687 2 47.9581941113 14.4274414329 0.0
688 2 46.4361941113 16.3902414329 0.0
689 2 49.0761941113 16.8868414329 0.0
690 2 52.9967941113 14.5103414329 0.0
691 2 54.0609941113 16.9149414329 0.0
692 2 51.5755941113 16.7497414329 0.0
693 2 57.8726941113 14.8368414329 0.0
694 2 59.0709941113 17.2042414329 0.0
695 2 56.5587941113 17.0821414329 0.0
696 2 63.8824941113 16.5626414329 0.0
697 2 61.8815941113 14.5621414329 0.0
698 2 61.4655941113 17.0467414329 0.0
699 2 67.3134941113 14.0831414329 0.0
700 2 69.0778941113 16.0957414329 0.0
701 2 66.4553941113 16.4280414329 0.0
702 2 74.1260941113 16.0788414329 0.0
703 2 71.6874941113 15.7841414329 0.0
704 2 2.52508411125 18.0470414329 0.0
705 2 1.16334411125 19.8972414329 0.0
706 2 3.41268411125 20.8063414329 0.0
707 2 6.92863411125 17.3320414329 0.0
708 2 8.91094411125 18.8798414329 0.0
709 2 7.03720411125 20.2407414329 0.0
710 2 11.9999941113 15.7299414329 0.0
711 2 13.9223941113 17.8200414329 0.0
712 2 11.4544941113 18.0834414329 0.0
713 2 16.3320941113 17.6083414329 0.0
714 2 18.7492941113 17.1550414329 0.0
715 2 24.6856941113 17.6317414329 0.0
716 2 25.4524941113 20.0316414329 0.0
717 2 22.9609941113 19.7309414329 0.0
718 2 30.3525941113 20.3673414329 0.0
719 2 27.8775941113 20.1964414329 0.0
720 2 34.8769941113 18.2817414329 0.0
721 2 32.7477941113 20.1242414329 0.0
722 2 40.1276941113 17.6389414329 0.0
723 2 39.0094941113 20.0458414329 0.0
724 2 41.7305941113 19.2260414329 0.0
725 2 43.7411941113 20.5567414329 0.0
726 2 45.6582941113 22.1071414329 0.0
727 2 42.9469941113 22.9327414329 0.0
728 2 51.0412941113 21.4468414329 0.0
729 2 51.1028941113 19.0016414329 0.0
730 2 53.4284941113 20.6442414329 0.0
731 2 55.1929941113 19.3102414329 0.0
732 2 56.1847941113 21.6882414329 0.0
733 2 58.8784941113 21.7377414329 0.0
734 2 61.6668941113 21.5042414329 0.0
735 2 60.2683941113 19.5300414329 0.0
736 2 65.4701941113 18.7669414329 0.0
737 2 67.0197941113 21.0133414329 0.0
738 2 64.3914941113 21.0139414329 0.0
739 2 70.5805941113 18.2041414329 0.0
740 2 71.8615941113 20.6271414329 0.0
741 2 69.4802941113 20.6546414329 0.0
742 2 75.4111941113 18.4229414329 0.0
743 2 77.0408941113 20.2669414329 0.0
744 2 74.3453941113 20.7201414329 0.0
745 2 78.5047941113 24.0697414329 0.0
746 2 0.391844111252 21.9543414329 0.0
747 2 2.60121411125 23.0092414329 0.0
748 2 5.41040411125 22.1565414329 0.0
749 2 10.9669941113 20.4989414329 0.0
750 2 13.0926941113 21.7810414329 0.0
751 2 10.4644941113 22.8515414329 0.0
752 2 15.1422941113 23.0028414329 0.0
753 2 16.8958941113 24.9687414329 0.0
754 2 14.2193941113 25.3981414329 0.0
755 2 21.9395941113 24.6663414329 0.0
756 2 22.0033941113 21.9268414329 0.0
757 2 24.1459941113 23.6500414329 0.0
758 2 26.2039941113 22.4236414329 0.0
759 2 26.8866941113 24.7261414329 0.0
760 2 31.3027941113 22.5941414329 0.0
761 2 32.3987941113 24.5559414329 0.0
762 2 29.5992941113 24.6787414329 0.0
763 2 36.9097941113 21.9838414329 0.0
764 2 37.6865941113 24.2160414329 0.0
765 2 35.0887941113 24.2678414329 0.0
766 2 42.7146941113 25.2387414329 0.0
767 2 40.3923941113 24.3770414329 0.0
768 2 46.8782941113 23.9604414329 0.0
769 2 47.7678941113 26.3091414329 0.0
770 2 45.1593941113 25.8437414329 0.0
771 2 50.9182941113 23.9381414329 0.0
772 2 52.4527941113 26.5032414329 0.0
773 2 50.2555941113 26.1959414329 0.0
774 2 57.7056941113 23.9345414329 0.0
775 2 56.8965941113 26.5213414329 0.0
776 2 59.0857941113 26.4200414329 0.0
777 2 63.6359941113 23.2725414329 0.0
778 2 65.6106941113 25.2183414329 0.0
779 2 63.4191941113 25.9266414329 0.0
780 2 68.1689941113 25.3868414329 0.0
781 2 70.6557941113 25.4152414329 0.0
782 2 68.9351941113 23.1018414329 0.0
783 2 73.5654941113 22.9347414329 0.0
784 2 75.6923941113 24.5178414329 0.0
785 2 73.1016941113 25.3335414329 0.0
786 2 1.02977411125 28.2314414329 0.0
787 2 3.60869411125 29.3337414329 0.0