ITEM: TIMESTEP
0
ITEM: NUMBER OF ATOMS
1350
ITEM: BOX BOUNDS xy xz yz pp pp pp
0.0 80.4487613952 0
0.0 79.3047350372 0
-10.0 10.0 0
ITEM: ATOMS id type x y z vx vy vz
1 1 2.63575847446 0.91591751859 0.0 0.0 0.0 0.0
2 1 10.6822184745 0.70476751859 0.0 0.0 0.0 0.0
3 1 13.7558184745 0.50677751859 0.0 0.0 0.0 0.0
4 1 21.8984184745 78.7900675186 0.0 0.0 0.0 0.0
5 1 24.9618184745 78.8598675186 0.0 0.0 0.0 0.0
6 1 30.0672184745 1.02255751859 0.0 0.0 0.0 0.0
7 1 36.3438184745 0.97689751859 0.0 0.0 0.0 0.0
8 1 41.2809184745 2.95882751859 0.0 0.0 0.0 0.0
9 1 46.8557184745 1.25301751859 0.0 0.0 0.0 0.0
10 1 51.7668184745 4.13561751859 0.0 0.0 0.0 0.0
11 1 57.1062184745 2.71629751859 0.0 0.0 0.0 0.0
12 1 62.1078184745 1.85740751859 0.0 0.0 0.0 0.0
13 1 67.5687184745 3.65671751859 0.0 0.0 0.0 0.0
14 1 73.2309184745 1.90424751859 0.0 0.0 0.0 0.0
15 1 80.0312184745 1.01728751859 0.0 0.0 0.0 0.0
16 1 0.0515034744621 6.30034751859 0.0 0.0 0.0 0.0
17 1 5.05387847446 5.65904751859 0.0 0.0 0.0 0.0
18 1 10.7052184745 6.84083751859 0.0 0.0 0.0 0.0
19 1 16.1138184745 4.64251751859 0.0 0.0 0.0 0.0
20 1 21.3981184745 4.02292751859 0.0 0.0 0.0 0.0
21 1 26.9626184745 4.63288751859 0.0 0.0 0.0 0.0
22 1 31.6571184745 3.57777751859 0.0 0.0 0.0 0.0
23 1 39.3049184745 5.28779751859 0.0 0.0 0.0 0.0
24 1 45.3740184745 5.84676751859 0.0 0.0 0.0 0.0
25 1 51.0178184745 7.03787751859 0.0 0.0 0.0 0.0
26 1 56.0644184745 7.23881751859 0.0 0.0 0.0 0.0
27 1 61.1135184745 9.00626751859 0.0 0.0 0.0 0.0
28 1 67.9622184745 6.65914751859 0.0 0.0 0.0 0.0
29 1 70.9489184745 6.42540751859 0.0 0.0 0.0 0.0
30 1 75.7251184745 6.70922751859 0.0 0.0 0.0 0.0
31 1 3.43266847446 10.6619675186 0.0 0.0 0.0 0.0
32 1 11.1742184745 9.80316751859 0.0 0.0 0.0 0.0
33 1 14.1448184745 9.37036751859 0.0 0.0 0.0 0.0
34 1 19.4671184745 8.64116751859 0.0 0.0 0.0 0.0
35 1 24.7794184745 8.40130751859 0.0 0.0 0.0 0.0
36 1 30.0286184745 8.88186751859 0.0 0.0 0.0 0.0
37 1 35.2559184745 8.80876751859 0.0 0.0 0.0 0.0
38 1 40.1893184745 8.16879751859 0.0 0.0 0.0 0.0
39 1 47.9495184745 10.3483675186 0.0 0.0 0.0 0.0
40 1 53.1539184745 11.7761675186 0.0 0.0 0.0 0.0
41 1 60.4764184745 11.9402675186 0.0 0.0 0.0 0.0
42 1 63.4051184745 12.5670675186 0.0 0.0 0.0 0.0
43 1 68.3259184745 12.3089675186 0.0 0.0 0.0 0.0
44 1 73.4222184745 11.4012675186 0.0 0.0 0.0 0.0
45 1 78.7193184745 11.3220675186 0.0 0.0 0.0 0.0
46 1 0.837193474462 15.6083675186 0.0 0.0 0.0 0.0
47 1 6.13221847446 15.0139675186 0.0 0.0 0.0 0.0
48 1 11.1924184745 14.4301675186 0.0 0.0 0.0 0.0
49 1 18.9584184745 12.6008675186 0.0 0.0 0.0 0.0
50 1 21.9454184745 12.8958675186 0.0 0.0 0.0 0.0
51 1 26.7673184745 13.1020675186 0.0 0.0 0.0 0.0
52 1 32.0684184745 13.3763675186 0.0 0.0 0.0 0.0
53 1 37.9134184745 13.2248675186 0.0 0.0 0.0 0.0
54 1 43.7415184745 13.1007675186 0.0 0.0 0.0 0.0
55 1 49.2186184745 15.2024675186 0.0 0.0 0.0 0.0
56 1 54.5512184745 16.8760675186 0.0 0.0 0.0 0.0
57 1 59.7035184745 16.6047675186 0.0 0.0 0.0 0.0
58 1 65.2514184745 17.1023675186 0.0 0.0 0.0 0.0
59 1 72.6281184745 16.0733675186 0.0 0.0 0.0 0.0
60 1 75.6947184745 15.8170675186 0.0 0.0 0.0 0.0
61 1 5.49712847446 19.1856675186 0.0 0.0 0.0 0.0
62 1 8.52371847446 19.3193675186 0.0 0.0 0.0 0.0
63 1 15.5100184745 17.8886675186 0.0 0.0 0.0 0.0
64 1 18.5031184745 17.6518675186 0.0 0.0 0.0 0.0
65 1 23.9221184745 17.8164675186 0.0 0.0 0.0 0.0
66 1 29.1396184745 17.6761675186 0.0 0.0 0.0 0.0
67 1 33.5131184745 16.0334675186 0.0 0.0 0.0 0.0
68 1 40.5452184745 16.8252675186 0.0 0.0 0.0 0.0
69 1 45.6153184745 17.6346675186 0.0 0.0 0.0 0.0
70 1 49.7879184745 18.1717675186 0.0 0.0 0.0 0.0
71 1 56.3834184745 21.1458675186 0.0 0.0 0.0 0.0
72 1 61.5705184745 20.9377675186 0.0 0.0 0.0 0.0
73 1 66.2743184745 21.7676675186 0.0 0.0 0.0 0.0
74 1 71.4801184745 21.1861675186 0.0 0.0 0.0 0.0
75 1 78.9420184745 19.9914675186 0.0 0.0 0.0 0.0
76 1 0.538668374462 24.2494675186 0.0 0.0 0.0 0.0
77 1 5.46285847446 24.6264675186 0.0 0.0 0.0 0.0
78 1 12.7663184745 23.5458675186 0.0 0.0 0.0 0.0
79 1 15.6623184745 22.6839675186 0.0 0.0 0.0 0.0
80 1 21.3782184745 22.1481675186 0.0 0.0 0.0 0.0
81 1 26.9480184745 22.2875675186 0.0 0.0 0.0 0.0
82 1 32.4238184745 21.6525675186 0.0 0.0 0.0 0.0
83 1 39.3807184745 21.2666675186 0.0 0.0 0.0 0.0
84 1 42.3835184745 21.6496675186 0.0 0.0 0.0 0.0
85 1 46.9840184745 24.7376675186 0.0 0.0 0.0 0.0
86 1 52.8446184745 25.0060675186 0.0 0.0 0.0 0.0
87 1 58.5817184745 25.5173675186 0.0 0.0 0.0 0.0
88 1 63.3306184745 28.0369675186 0.0 0.0 0.0 0.0
89 1 70.0015184745 25.7710675186 0.0 0.0 0.0 0.0
90 1 74.0094184745 22.8223675186 0.0 0.0 0.0 0.0
91 1 2.93883847446 29.0998675186 0.0 0.0 0.0 0.0
92 1 7.13938847446 27.1458675186 0.0 0.0 0.0 0.0
93 1 15.7797184745 27.3833675186 0.0 0.0 0.0 0.0
94 1 18.6659184745 26.4588675186 0.0 0.0 0.0 0.0
95 1 24.2135184745 26.5040675186 0.0 0.0 0.0 0.0
96 1 31.0136184745 26.0688675186 0.0 0.0 0.0 0.0
97 1 34.0343184745 26.2514675186 0.0 0.0 0.0 0.0
98 1 39.3824184745 26.5588675186 0.0 0.0 0.0 0.0
99 1 45.2353184745 27.1993675186 0.0 0.0 0.0 0.0
100 1 49.5617184745 30.8160675186 0.0 0.0 0.0 0.0
101 1 55.0123184745 29.3109675186 0.0 0.0 0.0 0.0
102 1 62.5209184745 30.9164675186 0.0 0.0 0.0 0.0
103 1 66.0315184745 29.3372675186 0.0 0.0 0.0 0.0
104 1 73.3902184745 28.6447675186 0.0 0.0 0.0 0.0
105 1 78.5067184745 28.0819675186 0.0 0.0 0.0 0.0
106 1 0.677517174462 33.2009675186 0.0 0.0 0.0 0.0
107 1 5.68887847446 32.8993675186 0.0 0.0 0.0 0.0
108 1 10.3477984745 33.0814675186 0.0 0.0 0.0 0.0
109 1 15.4375184745 32.8628675186 0.0 0.0 0.0 0.0
110 1 22.3730184745 30.5532675186 0.0 0.0 0.0 0.0
111 1 25.2524184745 31.4188675186 0.0 0.0 0.0 0.0
112 1 30.9240184745 31.2579675186 0.0 0.0 0.0 0.0
113 1 36.4558184745 30.8396675186 0.0 0.0 0.0 0.0
114 1 42.1133184745 30.8207675186 0.0 0.0 0.0 0.0
115 1 47.6126184745 33.1110675186 0.0 0.0 0.0 0.0
116 1 53.2730184745 34.0072675186 0.0 0.0 0.0 0.0
117 1 57.0682184745 31.5120675186 0.0 0.0 0.0 0.0
118 1 65.7569184745 35.1824675186 0.0 0.0 0.0 0.0
119 1 71.3977184745 33.5967675186 0.0 0.0 0.0 0.0
120 1 76.8168184745 32.7842675186 0.0 0.0 0.0 0.0
121 1 2.83102847446 37.6909675186 0.0 0.0 0.0 0.0
122 1 7.78974847446 37.8810675186 0.0 0.0 0.0 0.0
123 1 12.2759184745 37.4432675186 0.0 0.0 0.0 0.0
124 1 17.7889184745 36.7937675186 0.0 0.0 0.0 0.0
125 1 22.6972184745 35.8892675186 0.0 0.0 0.0 0.0
126 1 26.2872184745 34.2743675186 0.0 0.0 0.0 0.0
127 1 33.2704184745 35.2413675186 0.0 0.0 0.0 0.0
128 1 38.8818184745 34.9103675186 0.0 0.0 0.0 0.0
129 1 44.2694184745 35.5036675186 0.0 0.0 0.0 0.0
130 1 48.8875184745 35.8667675186 0.0 0.0 0.0 0.0
131 1 58.0388184745 36.7925675186 0.0 0.0 0.0 0.0
132 1 60.6326184745 35.3105675186 0.0 0.0 0.0 0.0
133 1 67.2069184745 37.8079675186 0.0 0.0 0.0 0.0
134 1 74.1124184745 37.3359675186 0.0 0.0 0.0 0.0
135 1 78.4604184745 38.0448675186 0.0 0.0 0.0 0.0
136 1 0.170388474462 42.6433675186 0.0 0.0 0.0 0.0
137 1 4.82482847446 42.4445675186 0.0 0.0 0.0 0.0
138 1 10.2021384745 42.6410675186 0.0 0.0 0.0 0.0
139 1 15.2559184745 41.1582675186 0.0 0.0 0.0 0.0
140 1 20.7858184745 40.9074675186 0.0 0.0 0.0 0.0
141 1 25.6742184745 40.2432675186 0.0 0.0 0.0 0.0
142 1 30.3476184745 39.4722675186 0.0 0.0 0.0 0.0
143 1 34.4420184745 38.0041675186 0.0 0.0 0.0 0.0
144 1 41.3136184745 39.4316675186 0.0 0.0 0.0 0.0
145 1 45.4750184745 38.2496675186 0.0 0.0 0.0 0.0
146 1 52.3208184745 39.5814675186 0.0 0.0 0.0 0.0
147 1 59.1696184745 42.5114675186 0.0 0.0 0.0 0.0
148 1 65.9357184745 42.1415675186 0.0 0.0 0.0 0.0
149 1 71.1333184745 41.9691675186 0.0 0.0 0.0 0.0
150 1 75.5735184745 42.6981675186 0.0 0.0 0.0 0.0
151 1 2.48529847446 47.4578675186 0.0 0.0 0.0 0.0
152 1 7.46717847446 46.8359675186 0.0 0.0 0.0 0.0
153 1 11.9505184745 45.0871675186 0.0 0.0 0.0 0.0
154 1 17.5302184745 45.0463675186 0.0 0.0 0.0 0.0
155 1 21.8208184745 43.7011675186 0.0 0.0 0.0 0.0
156 1 28.2103184745 44.7141675186 0.0 0.0 0.0 0.0
157 1 33.3451184745 43.7023675186 0.0 0.0 0.0 0.0
158 1 38.5636184745 43.2884675186 0.0 0.0 0.0 0.0
159 1 44.1833184745 43.7809675186 0.0 0.0 0.0 0.0
160 1 49.5271184745 44.4438675186 0.0 0.0 0.0 0.0
161 1 56.7014184745 46.4197675186 0.0 0.0 0.0 0.0
162 1 60.2905184745 45.3055675186 0.0 0.0 0.0 0.0
163 1 67.9449184745 46.4568675186 0.0 0.0 0.0 0.0
164 1 72.7166184745 47.3415675186 0.0 0.0 0.0 0.0
165 1 77.9716184745 47.3151675186 0.0 0.0 0.0 0.0
166 1 80.0535184745 52.0903675186 0.0 0.0 0.0 0.0
167 1 6.53290847446 51.4709675186 0.0 0.0 0.0 0.0
168 1 9.53067847446 51.3749675186 0.0 0.0 0.0 0.0
169 1 15.0198184745 50.1160675186 0.0 0.0 0.0 0.0
170 1 20.8853184745 49.1556675186 0.0 0.0 0.0 0.0
171 1 25.0223184745 51.5304675186 0.0 0.0 0.0 0.0
172 1 31.5003184745 48.6482675186 0.0 0.0 0.0 0.0
173 1 37.0172184745 47.8196675186 0.0 0.0 0.0 0.0
174 1 41.8449184745 47.5042675186 0.0 0.0 0.0 0.0
175 1 44.7948184745 50.8155675186 0.0 0.0 0.0 0.0
176 1 51.4655184745 49.8883675186 0.0 0.0 0.0 0.0
177 1 54.1485184745 47.8965675186 0.0 0.0 0.0 0.0
178 1 63.1259184745 49.7137675186 0.0 0.0 0.0 0.0
179 1 68.1887184745 49.4552675186 0.0 0.0 0.0 0.0
180 1 74.9147184745 51.7684675186 0.0 0.0 0.0 0.0
181 1 0.934718474462 56.4372675186 0.0 0.0 0.0 0.0
182 1 6.61737847446 56.7922675186 0.0 0.0 0.0 0.0
183 1 12.7381184745 54.8267675186 0.0 0.0 0.0 0.0
184 1 18.4637184745 53.3707675186 0.0 0.0 0.0 0.0
185 1 24.7710184745 54.5297675186 0.0 0.0 0.0 0.0
186 1 27.8303184745 52.5798675186 0.0 0.0 0.0 0.0
187 1 34.4585184745 52.2838675186 0.0 0.0 0.0 0.0
188 1 39.7416184745 52.4446675186 0.0 0.0 0.0 0.0
189 1 44.1411184745 53.7340675186 0.0 0.0 0.0 0.0
190 1 47.5626184745 51.9005675186 0.0 0.0 0.0 0.0
191 1 55.1497184745 53.7989675186 0.0 0.0 0.0 0.0
192 1 61.0906184745 53.8170675186 0.0 0.0 0.0 0.0
193 1 65.6933184745 56.2936675186 0.0 0.0 0.0 0.0
194 1 71.2599184745 55.7637675186 0.0 0.0 0.0 0.0
195 1 76.0524184745 56.2366675186 0.0 0.0 0.0 0.0
196 1 78.6711184745 60.7009675186 0.0 0.0 0.0 0.0
197 1 3.65644847446 60.5010675186 0.0 0.0 0.0 0.0
198 1 8.47348847446 59.2278675186 0.0 0.0 0.0 0.0
199 1 16.2018184745 57.3940675186 0.0 0.0 0.0 0.0
200 1 20.9520184745 58.5747675186 0.0 0.0 0.0 0.0
201 1 28.6144184745 58.4316675186 0.0 0.0 0.0 0.0
202 1 33.2209184745 56.9539675186 0.0 0.0 0.0 0.0
203 1 36.1969184745 56.6030675186 0.0 0.0 0.0 0.0
204 1 40.4710184745 55.3509675186 0.0 0.0 0.0 0.0
205 1 47.7510184745 57.6567675186 0.0 0.0 0.0 0.0
206 1 52.3585184745 57.8821675186 0.0 0.0 0.0 0.0
207 1 56.4350184745 56.5553675186 0.0 0.0 0.0 0.0
208 1 63.4243184745 58.2724675186 0.0 0.0 0.0 0.0
209 1 67.8971184745 60.1383675186 0.0 0.0 0.0 0.0
210 1 73.3055184745 60.9004675186 0.0 0.0 0.0 0.0
211 1 1.45866447446 64.7269675186 0.0 0.0 0.0 0.0
212 1 5.40616847446 62.8914675186 0.0 0.0 0.0 0.0
213 1 14.0346184745 65.1189675186 0.0 0.0 0.0 0.0
214 1 21.3866184745 61.5316675186 0.0 0.0 0.0 0.0
215 1 24.3467184745 61.9973675186 0.0 0.0 0.0 0.0
216 1 30.8585184745 63.8707675186 0.0 0.0 0.0 0.0
217 1 35.0828184745 62.3964675186 0.0 0.0 0.0 0.0
218 1 40.4653184745 60.4330675186 0.0 0.0 0.0 0.0
219 1 45.7051184745 61.8253675186 0.0 0.0 0.0 0.0
220 1 50.8052184745 62.5209675186 0.0 0.0 0.0 0.0
221 1 55.0102184745 64.8429675186 0.0 0.0 0.0 0.0
222 1 59.9924184745 62.1665675186 0.0 0.0 0.0 0.0
223 1 64.7027184745 65.3771675186 0.0 0.0 0.0 0.0
224 1 68.7458184745 63.0203675186 0.0 0.0 0.0 0.0
225 1 75.0471184745 63.3462675186 0.0 0.0 0.0 0.0
226 1 0.372191474462 68.8665675186 0.0 0.0 0.0 0.0
227 1 5.84019847446 68.1640675186 0.0 0.0 0.0 0.0
228 1 9.56805847446 65.0052675186 0.0 0.0 0.0 0.0
229 1 16.8870184745 67.8730675186 0.0 0.0 0.0 0.0
230 1 21.4376184745 66.6701675186 0.0 0.0 0.0 0.0
231 1 25.8064184745 64.6054675186 0.0 0.0 0.0 0.0
232 1 32.2787184745 66.5333675186 0.0 0.0 0.0 0.0
233 1 38.7057184745 65.1252675186 0.0 0.0 0.0 0.0
234 1 43.2581184745 65.3338675186 0.0 0.0 0.0 0.0
235 1 45.9899184745 69.0954675186 0.0 0.0 0.0 0.0
236 1 53.9516184745 67.7055675186 0.0 0.0 0.0 0.0
237 1 58.3364184745 67.4940675186 0.0 0.0 0.0 0.0
238 1 63.6223184745 68.1543675186 0.0 0.0 0.0 0.0
239 1 68.6527184745 68.6864675186 0.0 0.0 0.0 0.0
240 1 74.3352184745 68.8512675186 0.0 0.0 0.0 0.0
241 1 3.78524847446 72.6054675186 0.0 0.0 0.0 0.0
242 1 8.77646847446 71.0274675186 0.0 0.0 0.0 0.0
243 1 13.8228184745 71.1195675186 0.0 0.0 0.0 0.0
244 1 18.0979184745 70.6002675186 0.0 0.0 0.0 0.0
245 1 25.6416184745 69.9408675186 0.0 0.0 0.0 0.0
246 1 30.6353184745 71.3503675186 0.0 0.0 0.0 0.0
247 1 35.7210184745 71.0979675186 0.0 0.0 0.0 0.0
248 1 40.8761184745 70.1540675186 0.0 0.0 0.0 0.0
249 1 48.7549184745 70.2462675186 0.0 0.0 0.0 0.0
250 1 51.7406184745 72.7653675186 0.0 0.0 0.0 0.0
251 1 56.4915184745 72.7047675186 0.0 0.0 0.0 0.0
252 1 61.2605184745 72.1207675186 0.0 0.0 0.0 0.0
253 1 66.4988184745 72.9430675186 0.0 0.0 0.0 0.0
254 1 69.9467184745 71.4231675186 0.0 0.0 0.0 0.0
255 1 76.3754184745 71.0881675186 0.0 0.0 0.0 0.0
256 1 78.7913184745 3.76870751859 0.0 0.0 0.0 0.0
257 1 5.12961847446 2.64171751859 0.0 0.0 0.0 0.0
258 1 8.16046847446 2.42045751859 0.0 0.0 0.0 0.0
259 1 16.5851184745 1.67783751859 0.0 0.0 0.0 0.0
260 1 19.6631184745 1.53592751859 0.0 0.0 0.0 0.0
261 1 27.1182184745 1.64480751859 0.0 0.0 0.0 0.0
262 1 34.6667184745 3.48129751859 0.0 0.0 0.0 0.0
263 1 39.3378184745 0.63039751859 0.0 0.0 0.0 0.0
264 1 44.3473184745 2.99702751859 0.0 0.0 0.0 0.0
265 1 49.8172184745 1.84586751859 0.0 0.0 0.0 0.0
266 1 54.7400184745 4.54384751859 0.0 0.0 0.0 0.0
267 1 59.8850184745 3.90869751859 0.0 0.0 0.0 0.0
268 1 65.2082184745 1.71012751859 0.0 0.0 0.0 0.0
269 1 70.6076184745 3.43828751859 0.0 0.0 0.0 0.0
270 1 75.7423184745 3.68251751859 0.0 0.0 0.0 0.0
271 1 2.78189847446 7.66911751859 0.0 0.0 0.0 0.0
272 1 8.05335847446 5.42398751859 0.0 0.0 0.0 0.0
273 1 13.6743184745 6.40169751859 0.0 0.0 0.0 0.0
274 1 18.9206184745 5.70905751859 0.0 0.0 0.0 0.0
275 1 24.0728184745 5.46925751859 0.0 0.0 0.0 0.0
276 1 29.7089184745 5.88039751859 0.0 0.0 0.0 0.0
277 1 36.3474184745 5.97631751859 0.0 0.0 0.0 0.0
278 1 43.2010184745 7.94032751859 0.0 0.0 0.0 0.0
279 1 48.0197184745 7.34112751859 0.0 0.0 0.0 0.0
280 1 53.4856184745 8.78936751859 0.0 0.0 0.0 0.0
281 1 59.0571184745 6.80926751859 0.0 0.0 0.0 0.0
282 1 64.0478184745 9.64036751859 0.0 0.0 0.0 0.0
283 1 67.0565184745 9.54136751859 0.0 0.0 0.0 0.0
284 1 73.2302184745 8.38936751859 0.0 0.0 0.0 0.0
285 1 78.2769184745 8.32929751859 0.0 0.0 0.0 0.0
286 1 1.04081647446 12.5652675186 0.0 0.0 0.0 0.0
287 1 6.18563847446 12.0036675186 0.0 0.0 0.0 0.0
288 1 9.23548847446 12.0992675186 0.0 0.0 0.0 0.0
289 1 16.9982184745 10.3308675186 0.0 0.0 0.0 0.0
290 1 22.1924184745 9.91246751859 0.0 0.0 0.0 0.0
291 1 27.2671184745 10.1177675186 0.0 0.0 0.0 0.0
292 1 32.6536184745 10.3905675186 0.0 0.0 0.0 0.0
293 1 37.9300184745 10.2008675186 0.0 0.0 0.0 0.0
294 1 44.9486184745 10.3762675186 0.0 0.0 0.0 0.0
295 1 50.2032184745 12.3658675186 0.0 0.0 0.0 0.0
296 1 55.2413184745 13.9501675186 0.0 0.0 0.0 0.0
297 1 58.2597184745 13.9594675186 0.0 0.0 0.0 0.0
298 1 65.9433184745 14.1719675186 0.0 0.0 0.0 0.0
299 1 71.1667184745 13.4038675186 0.0 0.0 0.0 0.0
300 1 76.0890184745 12.8203675186 0.0 0.0 0.0 0.0
301 1 3.67100847446 16.7579675186 0.0 0.0 0.0 0.0
302 1 8.85868847446 16.3315675186 0.0 0.0 0.0 0.0
303 1 14.1467184745 15.2102675186 0.0 0.0 0.0 0.0
304 1 17.1525184745 14.9536675186 0.0 0.0 0.0 0.0
305 1 24.2690184745 14.8088675186 0.0 0.0 0.0 0.0
306 1 29.3387184745 14.6639675186 0.0 0.0 0.0 0.0
307 1 36.5195184745 15.9292675186 0.0 0.0 0.0 0.0
308 1 40.8426184745 13.8566675186 0.0 0.0 0.0 0.0
309 1 46.2583184745 14.7296675186 0.0 0.0 0.0 0.0
310 1 52.6086184745 19.1808675186 0.0 0.0 0.0 0.0
311 1 57.2041184745 18.2639675186 0.0 0.0 0.0 0.0
312 1 62.3655184745 18.0245675186 0.0 0.0 0.0 0.0
313 1 67.5796184745 19.0172675186 0.0 0.0 0.0 0.0
314 1 70.5571184745 18.3209675186 0.0 0.0 0.0 0.0
315 1 78.5374184745 16.9801675186 0.0 0.0 0.0 0.0
316 1 1.20419347446 21.3350675186 0.0 0.0 0.0 0.0
317 1 4.18111847446 21.8803675186 0.0 0.0 0.0 0.0
318 1 10.9485184745 21.1446675186 0.0 0.0 0.0 0.0
319 1 13.8275184745 20.3147675186 0.0 0.0 0.0 0.0
320 1 21.1768184745 19.1176675186 0.0 0.0 0.0 0.0
321 1 26.5777184745 19.2832675186 0.0 0.0 0.0 0.0
322 1 31.9923184745 18.6526675186 0.0 0.0 0.0 0.0
323 1 38.0852184745 18.5185675186 0.0 0.0 0.0 0.0
324 1 42.8466184745 18.7043675186 0.0 0.0 0.0 0.0
325 1 47.4144184745 20.0105675186 0.0 0.0 0.0 0.0
326 1 53.5206184745 22.0559675186 0.0 0.0 0.0 0.0
327 1 59.0198184745 22.5447675186 0.0 0.0 0.0 0.0
328 1 63.5690184745 23.1746675186 0.0 0.0 0.0 0.0
329 1 69.0326184745 22.9447675186 0.0 0.0 0.0 0.0
330 1 76.9744184745 22.3058675186 0.0 0.0 0.0 0.0
331 1 2.86964847446 26.1151675186 0.0 0.0 0.0 0.0
332 1 10.1036184745 27.6361675186 0.0 0.0 0.0 0.0
333 1 12.8879184745 26.5094675186 0.0 0.0 0.0 0.0
334 1 18.6153184745 23.4421675186 0.0 0.0 0.0 0.0
335 1 24.1404184745 23.4758675186 0.0 0.0 0.0 0.0
336 1 29.8476184745 23.2678675186 0.0 0.0 0.0 0.0
337 1 34.9220184745 23.3827675186 0.0 0.0 0.0 0.0
338 1 37.9153184745 23.8906675186 0.0 0.0 0.0 0.0
339 1 45.3551184745 22.2172675186 0.0 0.0 0.0 0.0
340 1 49.8523184745 25.7153675186 0.0 0.0 0.0 0.0
341 1 55.6106184745 26.3431675186 0.0 0.0 0.0 0.0
342 1 61.6405184745 25.5465675186 0.0 0.0 0.0 0.0
343 1 68.9147184745 28.5616675186 0.0 0.0 0.0 0.0
344 1 72.9976184745 25.6621675186 0.0 0.0 0.0 0.0
345 1 78.1269184745 25.0934675186 0.0 0.0 0.0 0.0
346 1 0.173130474462 30.2327675186 0.0 0.0 0.0 0.0
347 1 5.82930847446 29.8806675186 0.0 0.0 0.0 0.0
348 1 11.4390184745 30.3021675186 0.0 0.0 0.0 0.0
349 1 14.4392184745 30.0550675186 0.0 0.0 0.0 0.0
350 1 21.4348184745 27.6956675186 0.0 0.0 0.0 0.0
351 1 26.3978184745 28.6226675186 0.0 0.0 0.0 0.0
352 1 29.4219184745 28.6311675186 0.0 0.0 0.0 0.0
353 1 36.6226184745 27.8343675186 0.0 0.0 0.0 0.0
354 1 42.2161184745 27.7881675186 0.0 0.0 0.0 0.0
355 1 48.1048184745 28.1870675186 0.0 0.0 0.0 0.0
356 1 52.5631184745 31.0800675186 0.0 0.0 0.0 0.0
357 1 59.9278184745 32.3878675186 0.0 0.0 0.0 0.0
358 1 65.2195184745 32.2230675186 0.0 0.0 0.0 0.0
359 1 71.1039184745 30.6040675186 0.0 0.0 0.0 0.0
360 1 76.1195184745 29.8723675186 0.0 0.0 0.0 0.0
361 1 3.27316847446 34.7028675186 0.0 0.0 0.0 0.0
362 1 7.94754847446 34.8720675186 0.0 0.0 0.0 0.0
363 1 12.9524184745 34.5352675186 0.0 0.0 0.0 0.0
364 1 18.2525184745 33.8437675186 0.0 0.0 0.0 0.0
365 1 21.1907184745 33.2948675186 0.0 0.0 0.0 0.0
366 1 29.2342184745 33.7568675186 0.0 0.0 0.0 0.0
367 1 33.7780184745 32.2616675186 0.0 0.0 0.0 0.0
368 1 39.2783184745 31.9278675186 0.0 0.0 0.0 0.0
369 1 44.6420184745 32.5256675186 0.0 0.0 0.0 0.0
370 1 51.7877184745 36.6087675186 0.0 0.0 0.0 0.0
371 1 56.2309184745 34.3971675186 0.0 0.0 0.0 0.0
372 1 63.2308184745 36.8085675186 0.0 0.0 0.0 0.0
373 1 71.2165184745 36.5873675186 0.0 0.0 0.0 0.0
374 1 74.2927184745 34.3577675186 0.0 0.0 0.0 0.0
375 1 78.7775184745 35.0508675186 0.0 0.0 0.0 0.0
376 1 0.542652274462 39.6497675186 0.0 0.0 0.0 0.0
377 1 5.24179847446 39.4667675186 0.0 0.0 0.0 0.0
378 1 10.2291684745 39.6303675186 0.0 0.0 0.0 0.0
379 1 15.1530184745 38.1932675186 0.0 0.0 0.0 0.0
380 1 20.5421184745 37.9458675186 0.0 0.0 0.0 0.0
381 1 25.4029184745 37.1864675186 0.0 0.0 0.0 0.0
382 1 30.5273184745 36.4582675186 0.0 0.0 0.0 0.0
383 1 37.3776184745 37.5095675186 0.0 0.0 0.0 0.0
384 1 41.4432184745 36.4433675186 0.0 0.0 0.0 0.0
385 1 48.3869184745 38.8426675186 0.0 0.0 0.0 0.0
386 1 55.0773184745 40.7566675186 0.0 0.0 0.0 0.0
387 1 57.9181184745 39.7879675186 0.0 0.0 0.0 0.0
388 1 64.6835184745 39.4207675186 0.0 0.0 0.0 0.0
389 1 69.8454184745 39.2417675186 0.0 0.0 0.0 0.0
390 1 75.9525184745 39.7035675186 0.0 0.0 0.0 0.0
391 1 2.57426847446 44.4400675186 0.0 0.0 0.0 0.0
392 1 7.46555847446 43.8443675186 0.0 0.0 0.0 0.0
393 1 14.7302184745 44.0779675186 0.0 0.0 0.0 0.0
394 1 18.0701184745 42.1053675186 0.0 0.0 0.0 0.0
395 1 24.7392184745 43.1417675186 0.0 0.0 0.0 0.0
396 1 28.3089184745 41.6804675186 0.0 0.0 0.0 0.0
397 1 33.0878184745 40.6913675186 0.0 0.0 0.0 0.0
398 1 38.4699184745 40.3008675186 0.0 0.0 0.0 0.0
399 1 43.9492184745 40.8121675186 0.0 0.0 0.0 0.0
400 1 49.9443184745 41.4296675186 0.0 0.0 0.0 0.0
401 1 56.3295184745 43.4578675186 0.0 0.0 0.0 0.0
402 1 65.3129184745 45.0473675186 0.0 0.0 0.0 0.0
403 1 68.5991184745 43.5357675186 0.0 0.0 0.0 0.0
404 1 73.0312184745 44.3135675186 0.0 0.0 0.0 0.0
405 1 78.1114184745 44.3040675186 0.0 0.0 0.0 0.0
406 1 80.4001184745 49.0899675186 0.0 0.0 0.0 0.0
407 1 5.18558847446 48.7808675186 0.0 0.0 0.0 0.0
408 1 9.99331847446 48.4392675186 0.0 0.0 0.0 0.0
409 1 12.9407184745 47.9235675186 0.0 0.0 0.0 0.0
410 1 20.2450184745 46.2444675186 0.0 0.0 0.0 0.0
411 1 25.5186184745 46.0804675186 0.0 0.0 0.0 0.0
412 1 31.0565184745 45.6726675186 0.0 0.0 0.0 0.0
413 1 36.0816184745 44.9623675186 0.0 0.0 0.0 0.0
414 1 41.2828184745 44.5711675186 0.0 0.0 0.0 0.0
415 1 46.6773184745 45.4524675186 0.0 0.0 0.0 0.0
416 1 51.3161184745 46.8927675186 0.0 0.0 0.0 0.0
417 1 59.1520184745 48.1117675186 0.0 0.0 0.0 0.0
418 1 62.8859184745 46.7388675186 0.0 0.0 0.0 0.0
419 1 71.1468184745 49.9456675186 0.0 0.0 0.0 0.0
420 1 75.3483184745 48.7872675186 0.0 0.0 0.0 0.0
421 1 2.15301847446 53.7037675186 0.0 0.0 0.0 0.0
422 1 5.16432847446 54.1311675186 0.0 0.0 0.0 0.0
423 1 12.5041184745 51.8552675186 0.0 0.0 0.0 0.0
424 1 18.0919184745 50.3913675186 0.0 0.0 0.0 0.0
425 1 23.9043184745 48.7122675186 0.0 0.0 0.0 0.0
426 1 30.6066184745 51.5267675186 0.0 0.0 0.0 0.0
427 1 34.4166184745 49.2973675186 0.0 0.0 0.0 0.0
428 1 39.5581184745 49.4414675186 0.0 0.0 0.0 0.0
429 1 44.8282184745 47.8247675186 0.0 0.0 0.0 0.0
430 1 50.4171184745 52.6533675186 0.0 0.0 0.0 0.0
431 1 54.3150184745 50.8816675186 0.0 0.0 0.0 0.0
432 1 60.3667184745 50.8838675186 0.0 0.0 0.0 0.0
433 1 65.7263184745 51.1911675186 0.0 0.0 0.0 0.0
434 1 72.0933184745 52.8274675186 0.0 0.0 0.0 0.0
435 1 77.3622184745 53.5040675186 0.0 0.0 0.0 0.0
436 1 78.6578184745 57.7124675186 0.0 0.0 0.0 0.0
437 1 3.71823847446 57.5451675186 0.0 0.0 0.0 0.0
438 1 13.2442184745 57.7787675186 0.0 0.0 0.0 0.0
439 1 15.6886184745 54.4503675186 0.0 0.0 0.0 0.0
440 1 23.6406184745 57.2827675186 0.0 0.0 0.0 0.0
441 1 27.6078184745 55.5698675186 0.0 0.0 0.0 0.0
442 1 32.1158184745 54.1401675186 0.0 0.0 0.0 0.0
443 1 37.0477184745 53.7335675186 0.0 0.0 0.0 0.0
444 1 43.1776184745 56.5630675186 0.0 0.0 0.0 0.0
445 1 46.9292184745 54.7986675186 0.0 0.0 0.0 0.0
446 1 52.3679184745 54.9006675186 0.0 0.0 0.0 0.0
447 1 59.4380184745 56.3652675186 0.0 0.0 0.0 0.0
448 1 64.1243184745 53.7382675186 0.0 0.0 0.0 0.0
449 1 68.5795184745 57.1928675186 0.0 0.0 0.0 0.0
450 1 73.4732184745 57.8432675186 0.0 0.0 0.0 0.0
451 1 0.987202474462 61.7800675186 0.0 0.0 0.0 0.0
452 1 8.29168847446 62.2568675186 0.0 0.0 0.0 0.0
453 1 11.3513184745 60.0911675186 0.0 0.0 0.0 0.0
454 1 18.9865184745 56.3303675186 0.0 0.0 0.0 0.0
455 1 25.7783184745 59.3774675186 0.0 0.0 0.0 0.0
456 1 30.4154184745 60.8724675186 0.0 0.0 0.0 0.0
457 1 33.2669184745 59.9724675186 0.0 0.0 0.0 0.0
458 1 38.8864184745 57.8832675186 0.0 0.0 0.0 0.0
459 1 45.0464184745 58.9050675186 0.0 0.0 0.0 0.0
460 1 49.9644184745 59.6528675186 0.0 0.0 0.0 0.0
461 1 55.0095184745 59.2562675186 0.0 0.0 0.0 0.0
462 1 60.5468184745 59.1719675186 0.0 0.0 0.0 0.0
463 1 64.9730184745 60.8173675186 0.0 0.0 0.0 0.0
464 1 71.6874184745 63.4624675186 0.0 0.0 0.0 0.0
465 1 77.9893184745 63.6154675186 0.0 0.0 0.0 0.0
466 1 79.3626184745 66.2657675186 0.0 0.0 0.0 0.0
467 1 4.28557847446 65.6356675186 0.0 0.0 0.0 0.0
468 1 11.8714184745 63.0733675186 0.0 0.0 0.0 0.0
469 1 17.0092184745 64.8934675186 0.0 0.0 0.0 0.0
470 1 19.8781184745 64.1064675186 0.0 0.0 0.0 0.0
471 1 28.5495184745 65.7751675186 0.0 0.0 0.0 0.0
472 1 35.7351184745 65.3467675186 0.0 0.0 0.0 0.0
473 1 38.0712184745 62.2118675186 0.0 0.0 0.0 0.0
474 1 42.7586184745 62.3848675186 0.0 0.0 0.0 0.0
475 1 48.0413184745 63.7390675186 0.0 0.0 0.0 0.0
476 1 53.8075184745 62.0675675186 0.0 0.0 0.0 0.0
477 1 58.0139184745 64.4894675186 0.0 0.0 0.0 0.0
478 1 62.8968184745 62.9829675186 0.0 0.0 0.0 0.0
479 1 67.6776184745 65.8274675186 0.0 0.0 0.0 0.0
480 1 73.4739184745 65.9064675186 0.0 0.0 0.0 0.0
481 1 3.26024847446 69.6677675186 0.0 0.0 0.0 0.0
482 1 8.82681847446 67.9795675186 0.0 0.0 0.0 0.0
483 1 13.9113184745 68.1136675186 0.0 0.0 0.0 0.0
484 1 20.8903184745 69.6053675186 0.0 0.0 0.0 0.0
485 1 24.3795184745 67.2213675186 0.0 0.0 0.0 0.0
486 1 29.9573184745 68.4143675186 0.0 0.0 0.0 0.0
487 1 34.7903184745 68.1970675186 0.0 0.0 0.0 0.0
488 1 40.8926184745 67.1622675186 0.0 0.0 0.0 0.0
489 1 46.1636184745 66.0939675186 0.0 0.0 0.0 0.0
490 1 51.7127184745 69.7413675186 0.0 0.0 0.0 0.0
491 1 56.2423184745 69.6691675186 0.0 0.0 0.0 0.0
492 1 60.8186184745 69.1598675186 0.0 0.0 0.0 0.0
493 1 65.9726184745 69.9980675186 0.0 0.0 0.0 0.0
494 1 72.9209184745 71.5127675186 0.0 0.0 0.0 0.0
495 1 79.3393184745 71.4532675186 0.0 0.0 0.0 0.0
496 1 0.963636474462 73.6067675186 0.0 0.0 0.0 0.0
497 1 6.71225847446 73.2641675186 0.0 0.0 0.0 0.0
498 1 11.2781184745 72.6867675186 0.0 0.0 0.0 0.0
499 1 16.2376184745 72.9257675186 0.0 0.0 0.0 0.0
500 1 23.1300184745 71.5672675186 0.0 0.0 0.0 0.0
501 1 27.7272184745 72.0868675186 0.0 0.0 0.0 0.0
502 1 33.2554184745 72.8641675186 0.0 0.0 0.0 0.0
503 1 38.5970184745 72.1127675186 0.0 0.0 0.0 0.0
504 1 43.7308184745 71.1029675186 0.0 0.0 0.0 0.0
505 1 48.7671184745 73.2477675186 0.0 0.0 0.0 0.0
506 1 54.1344184745 74.5924675186 0.0 0.0 0.0 0.0
507 1 59.1183184745 74.2000675186 0.0 0.0 0.0 0.0
508 1 63.6855184745 73.8845675186 0.0 0.0 0.0 0.0
509 1 69.1393184745 74.3411675186 0.0 0.0 0.0 0.0
510 1 74.9405184745 73.7486675186 0.0 0.0 0.0 0.0
511 1 6.41506847446 76.2793675186 0.0 0.0 0.0 0.0
512 1 11.7825184745 75.6485675186 0.0 0.0 0.0 0.0
513 1 17.3364184745 75.7296675186 0.0 0.0 0.0 0.0
514 1 22.8855184745 74.5428675186 0.0 0.0 0.0 0.0
515 1 27.4095184745 77.0586675186 0.0 0.0 0.0 0.0
516 1 33.1112184745 75.8920675186 0.0 0.0 0.0 0.0
517 1 40.5135184745 74.4756675186 0.0 0.0 0.0 0.0
518 1 43.5512184745 74.1131675186 0.0 0.0 0.0 0.0
519 1 47.9929184745 77.7510675186 0.0 0.0 0.0 0.0
520 1 53.9507184745 77.6160675186 0.0 0.0 0.0 0.0
521 1 61.0015184745 76.5740675186 0.0 0.0 0.0 0.0
522 1 64.0176184745 76.8564675186 0.0 0.0 0.0 0.0
523 1 69.6260184745 77.3434675186 0.0 0.0 0.0 0.0
524 1 75.3519184745 76.7804675186 0.0 0.0 0.0 0.0
525 1 0.597259164462 76.5635675186 0.0 0.0 0.0 0.0
526 1 3.53892847446 77.3495675186 0.0 0.0 0.0 0.0
527 1 9.27367847446 77.3302675186 0.0 0.0 0.0 0.0
528 1 14.5373184745 76.9022675186 0.0 0.0 0.0 0.0
529 1 20.3538184745 76.1949675186 0.0 0.0 0.0 0.0
530 1 25.9026184745 74.4798675186 0.0 0.0 0.0 0.0
531 1 30.4359184745 77.3454675186 0.0 0.0 0.0 0.0
532 1 35.7906184745 77.3231675186 0.0 0.0 0.0 0.0
533 1 38.7958184745 76.9662675186 0.0 0.0 0.0 0.0
534 1 46.4183184745 75.1609675186 0.0 0.0 0.0 0.0
535 1 50.9764184745 78.3702675186 0.0 0.0 0.0 0.0
536 1 56.6607184745 79.0588675186 0.0 0.0 0.0 0.0
537 1 59.7070184745 79.2592675186 0.0 0.0 0.0 0.0
538 1 66.6839184745 78.3440675186 0.0 0.0 0.0 0.0
539 1 72.6157184745 78.2169675186 0.0 0.0 0.0 0.0
540 1 78.2788184745 77.8262675186 0.0 0.0 0.0 0.0
541 2 3.18532847446 78.8181675186 0.0 0.0 0.0 0.0
542 2 3.85450847446 1.82374751859 0.0 0.0 0.0 0.0
543 2 1.11268247446 0.98916751859 0.0 0.0 0.0 0.0
544 2 9.45655847446 1.62996751859 0.0 0.0 0.0 0.0
545 2 9.94163847446 78.6852675186 0.0 0.0 0.0 0.0
546 2 12.2243184745 0.73538751859 0.0 0.0 0.0 0.0
547 2 14.1585184745 78.3554675186 0.0 0.0 0.0 0.0
548 2 15.1670184745 1.10658751859 0.0 0.0 0.0 0.0
549 2 20.7700184745 0.49341751859 0.0 0.0 0.0 0.0
550 2 21.1118184745 77.5000675186 0.0 0.0 0.0 0.0
551 2 23.4348184745 78.8383675186 0.0 0.0 0.0 0.0
552 2 26.1614184745 77.9251675186 0.0 0.0 0.0 0.0
553 2 25.9284184745 0.72995751859 0.0 0.0 0.0 0.0
554 2 30.4014184745 78.8613675186 0.0 0.0 0.0 0.0
555 2 28.5783184745 1.27017751859 0.0 0.0 0.0 0.0
556 2 30.9219184745 2.26049751859 0.0 0.0 0.0 0.0
557 2 35.8979184745 78.8363675186 0.0 0.0 0.0 0.0
558 2 35.4739184745 2.20565751859 0.0 0.0 0.0 0.0
559 2 37.8559184745 0.96118751859 0.0 0.0 0.0 0.0
560 2 40.3894184745 1.71763751859 0.0 0.0 0.0 0.0
561 2 42.8131184745 2.92032751859 0.0 0.0 0.0 0.0
562 2 40.3076184745 4.14214751859 0.0 0.0 0.0 0.0
563 2 47.2596184745 79.0886675186 0.0 0.0 0.0 0.0
564 2 48.3068184745 1.74466751859 0.0 0.0 0.0 0.0
565 2 45.5514184745 2.04101751859 0.0 0.0 0.0 0.0
566 2 50.7742184745 3.01147751859 0.0 0.0 0.0 0.0
567 2 53.2739184745 4.22448751859 0.0 0.0 0.0 0.0
568 2 51.3498184745 5.57393751859 0.0 0.0 0.0 0.0
569 2 55.8904184745 3.58651751859 0.0 0.0 0.0 0.0
570 2 58.5160184745 3.24659751859 0.0 0.0 0.0 0.0
571 2 56.7564184745 1.26229751859 0.0 0.0 0.0 0.0
572 2 60.9278184745 0.87997751859 0.0 0.0 0.0 0.0
573 2 63.6545184745 1.80255751859 0.0 0.0 0.0 0.0
574 2 61.1239184745 3.04516751859 0.0 0.0 0.0 0.0
575 2 66.3385184745 2.75699751859 0.0 0.0 0.0 0.0
576 2 69.0771184745 3.34333751859 0.0 0.0 0.0 0.0
577 2 67.5639184745 5.18958751859 0.0 0.0 0.0 0.0
578 2 72.9524184745 0.40447751859 0.0 0.0 0.0 0.0
579 2 74.5341184745 2.73299751859 0.0 0.0 0.0 0.0
580 2 71.8876184745 2.62523751859 0.0 0.0 0.0 0.0
581 2 79.4359184745 2.40208751859 0.0 0.0 0.0 0.0
582 2 79.0501184745 79.1600675186 0.0 0.0 0.0 0.0
583 2 79.7156184745 4.98599751859 0.0 0.0 0.0 0.0
584 2 79.4340184745 7.36873751859 0.0 0.0 0.0 0.0
585 2 1.43701847446 6.94334751859 0.0 0.0 0.0 0.0
586 2 4.94484847446 4.14785751859 0.0 0.0 0.0 0.0
587 2 6.57682847446 5.75627751859 0.0 0.0 0.0 0.0
588 2 3.94845847446 6.68572751859 0.0 0.0 0.0 0.0
589 2 9.36618847446 6.16415751859 0.0 0.0 0.0 0.0
590 2 12.1586184745 6.39650751859 0.0 0.0 0.0 0.0
591 2 10.7968184745 8.34500751859 0.0 0.0 0.0 0.0
592 2 16.2911184745 3.15804751859 0.0 0.0 0.0 0.0
593 2 17.5038184745 5.22064751859 0.0 0.0 0.0 0.0
594 2 14.8416184745 5.45017751859 0.0 0.0 0.0 0.0
595 2 20.1889184745 4.92110751859 0.0 0.0 0.0 0.0
596 2 22.7696184745 4.68891751859 0.0 0.0 0.0 0.0
597 2 20.5886184745 2.74492751859 0.0 0.0 0.0 0.0
598 2 27.0127184745 3.13476751859 0.0 0.0 0.0 0.0