ITEM: TIMESTEP
0
ITEM: NUMBER OF ATOMS
1350
ITEM: BOX BOUNDS xy xz yz pp pp pp
0.0 77.867240595 0
0.0 82.2936855865 0
-10.0 10.0 0
ITEM: ATOMS id type x y z vx vy vz
1 1 3.03167807436 1.52639279325 0.0 0.0 0.0 0.0
2 1 7.84099807436 1.11900279325 0.0 0.0 0.0 0.0
3 1 12.1875580744 4.14142279325 0.0 0.0 0.0 0.0
4 1 20.5241580744 1.71392279325 0.0 0.0 0.0 0.0
5 1 23.6286580744 1.85926279325 0.0 0.0 0.0 0.0
6 1 29.0894580744 1.87540279325 0.0 0.0 0.0 0.0
7 1 32.8255580744 4.71527279325 0.0 0.0 0.0 0.0
8 1 41.4577580744 3.27675279325 0.0 0.0 0.0 0.0
9 1 47.3778580744 1.06664279325 0.0 0.0 0.0 0.0
10 1 50.3547580744 0.628192793247 0.0 0.0 0.0 0.0
11 1 55.4933580744 0.289943793247 0.0 0.0 0.0 0.0
12 1 61.4584580744 0.372589793247 0.0 0.0 0.0 0.0
13 1 64.4263580744 1.01304279325 0.0 0.0 0.0 0.0
14 1 69.9895580744 1.15372279325 0.0 0.0 0.0 0.0
15 1 75.4668580744 0.985562793247 0.0 0.0 0.0 0.0
16 1 0.080169074358 5.56986279325 0.0 0.0 0.0 0.0
17 1 5.15207807436 6.19242279325 0.0 0.0 0.0 0.0
18 1 10.4458580744 6.68309279325 0.0 0.0 0.0 0.0
19 1 15.2991580744 7.31441279325 0.0 0.0 0.0 0.0
20 1 20.4641580744 5.84645279325 0.0 0.0 0.0 0.0
21 1 26.2460580744 6.21194279325 0.0 0.0 0.0 0.0
22 1 30.8761580744 7.02448279325 0.0 0.0 0.0 0.0
23 1 35.1329580744 6.65372279325 0.0 0.0 0.0 0.0
24 1 45.1987580744 7.40393279325 0.0 0.0 0.0 0.0
25 1 48.1407580744 6.80790279325 0.0 0.0 0.0 0.0
26 1 52.9950580744 5.11271279325 0.0 0.0 0.0 0.0
27 1 57.3221580744 7.44972279325 0.0 0.0 0.0 0.0
28 1 61.8044580744 4.81182279325 0.0 0.0 0.0 0.0
29 1 67.5003580744 5.26860279325 0.0 0.0 0.0 0.0
30 1 72.7048580744 5.34364279325 0.0 0.0 0.0 0.0
31 1 1.35156807436 13.0159427932 0.0 0.0 0.0 0.0
32 1 6.69912807436 10.8545427932 0.0 0.0 0.0 0.0
33 1 13.9233580744 11.4793427932 0.0 0.0 0.0 0.0
34 1 17.1990580744 9.63546279325 0.0 0.0 0.0 0.0
35 1 22.8461580744 9.77203279325 0.0 0.0 0.0 0.0
36 1 27.2125580744 11.3328427932 0.0 0.0 0.0 0.0
37 1 33.1375580744 11.9158427932 0.0 0.0 0.0 0.0
38 1 38.5036580744 10.8177427932 0.0 0.0 0.0 0.0
39 1 42.2820580744 14.1037427932 0.0 0.0 0.0 0.0
40 1 50.2969580744 10.4998427932 0.0 0.0 0.0 0.0
41 1 57.6407580744 10.3873427932 0.0 0.0 0.0 0.0
42 1 60.6091580744 10.3259427932 0.0 0.0 0.0 0.0
43 1 65.5202580744 8.93933279325 0.0 0.0 0.0 0.0
44 1 70.9137580744 9.76223279325 0.0 0.0 0.0 0.0
45 1 75.5629580744 9.92510279325 0.0 0.0 0.0 0.0
46 1 77.6777580744 15.6666427932 0.0 0.0 0.0 0.0
47 1 4.23112807436 15.8652427932 0.0 0.0 0.0 0.0
48 1 8.61931807436 15.9334427932 0.0 0.0 0.0 0.0
49 1 13.3902580744 16.1300427932 0.0 0.0 0.0 0.0
50 1 18.6361580744 14.9722427932 0.0 0.0 0.0 0.0
51 1 23.8538580744 15.3081427932 0.0 0.0 0.0 0.0
52 1 28.0851580744 14.2156427932 0.0 0.0 0.0 0.0
53 1 35.2683580744 14.0118427932 0.0 0.0 0.0 0.0
54 1 45.2842580744 13.9739427932 0.0 0.0 0.0 0.0
55 1 48.4718580744 15.5003427932 0.0 0.0 0.0 0.0
56 1 52.9600580744 15.1596427932 0.0 0.0 0.0 0.0
57 1 58.0526580744 14.6650427932 0.0 0.0 0.0 0.0
58 1 62.8786580744 14.0448427932 0.0 0.0 0.0 0.0
59 1 68.1939580744 13.6043427932 0.0 0.0 0.0 0.0
60 1 73.1388580744 14.8614427932 0.0 0.0 0.0 0.0
61 1 2.15241807436 20.8195427932 0.0 0.0 0.0 0.0
62 1 6.79002807436 20.8971427932 0.0 0.0 0.0 0.0
63 1 12.3117580744 22.1422427932 0.0 0.0 0.0 0.0
64 1 17.4501580744 19.6271427932 0.0 0.0 0.0 0.0
65 1 22.1261580744 19.5779427932 0.0 0.0 0.0 0.0
66 1 27.1564580744 19.7297427932 0.0 0.0 0.0 0.0
67 1 33.9440580744 19.0355427932 0.0 0.0 0.0 0.0
68 1 39.6508580744 19.2567427932 0.0 0.0 0.0 0.0
69 1 45.4330580744 19.9519427932 0.0 0.0 0.0 0.0
70 1 50.7243580744 20.2408427932 0.0 0.0 0.0 0.0
71 1 56.1216580744 19.3511427932 0.0 0.0 0.0 0.0
72 1 62.3822580744 18.6289427932 0.0 0.0 0.0 0.0
73 1 65.3585580744 18.1196427932 0.0 0.0 0.0 0.0
74 1 68.4589580744 21.0978427932 0.0 0.0 0.0 0.0
75 1 74.9818580744 20.3271427932 0.0 0.0 0.0 0.0
76 1 76.9128580744 25.2025427932 0.0 0.0 0.0 0.0
77 1 4.75700807436 25.7826427932 0.0 0.0 0.0 0.0
78 1 13.1490580744 25.0097427932 0.0 0.0 0.0 0.0
79 1 16.0866580744 24.4894427932 0.0 0.0 0.0 0.0
80 1 20.6178580744 26.9963427932 0.0 0.0 0.0 0.0
81 1 25.3730580744 24.2724427932 0.0 0.0 0.0 0.0
82 1 29.3430580744 21.8242427932 0.0 0.0 0.0 0.0
83 1 36.9129580744 25.0643427932 0.0 0.0 0.0 0.0
84 1 40.9305580744 22.0359427932 0.0 0.0 0.0 0.0
85 1 48.2031580744 24.4681427932 0.0 0.0 0.0 0.0
86 1 55.5985580744 23.1678427932 0.0 0.0 0.0 0.0
87 1 56.0030580744 27.3728427932 0.0 0.0 0.0 0.0
88 1 61.1669580744 24.3519427932 0.0 0.0 0.0 0.0
89 1 66.2815580744 23.1326427932 0.0 0.0 0.0 0.0
90 1 70.5416580744 23.2355427932 0.0 0.0 0.0 0.0
91 1 0.324808074358 27.9192427932 0.0 0.0 0.0 0.0
92 1 8.16977807436 29.7898427932 0.0 0.0 0.0 0.0
93 1 13.7849580744 30.6065427932 0.0 0.0 0.0 0.0
94 1 19.5623580744 29.8257427932 0.0 0.0 0.0 0.0
95 1 24.0794580744 29.7039427932 0.0 0.0 0.0 0.0
96 1 30.1359580744 27.1540427932 0.0 0.0 0.0 0.0
97 1 35.7809580744 27.8348427932 0.0 0.0 0.0 0.0
98 1 40.4483580744 27.8964427932 0.0 0.0 0.0 0.0
99 1 45.5311580744 28.2903427932 0.0 0.0 0.0 0.0
100 1 50.8755580744 29.0312427932 0.0 0.0 0.0 0.0
101 1 55.5360580744 31.9667427932 0.0 0.0 0.0 0.0
102 1 60.3291580744 28.8088427932 0.0 0.0 0.0 0.0
103 1 66.1710580744 27.2740427932 0.0 0.0 0.0 0.0
104 1 68.3934580744 32.1413427932 0.0 0.0 0.0 0.0
105 1 73.3047580744 29.0113427932 0.0 0.0 0.0 0.0
106 1 77.2058580744 32.9410427932 0.0 0.0 0.0 0.0
107 1 4.08882807436 31.3419427932 0.0 0.0 0.0 0.0
108 1 13.5638580744 33.5819427932 0.0 0.0 0.0 0.0
109 1 16.5325580744 33.8121427932 0.0 0.0 0.0 0.0
110 1 20.2605580744 32.7630427932 0.0 0.0 0.0 0.0
111 1 26.5655580744 31.3439427932 0.0 0.0 0.0 0.0
112 1 32.9359580744 31.4745427932 0.0 0.0 0.0 0.0
113 1 37.4650580744 32.7365427932 0.0 0.0 0.0 0.0
114 1 42.4989580744 32.7009427932 0.0 0.0 0.0 0.0
115 1 48.2918580744 33.0266427932 0.0 0.0 0.0 0.0
116 1 53.6729580744 34.3110427932 0.0 0.0 0.0 0.0
117 1 61.1097580744 32.4411427932 0.0 0.0 0.0 0.0
118 1 61.3302580744 35.3959427932 0.0 0.0 0.0 0.0
119 1 67.1861580744 34.9264427932 0.0 0.0 0.0 0.0
120 1 72.2906580744 34.2497427932 0.0 0.0 0.0 0.0
121 1 3.78431807436 36.3234427932 0.0 0.0 0.0 0.0
122 1 6.68048807436 37.1575427932 0.0 0.0 0.0 0.0
123 1 13.5440580744 38.0722427932 0.0 0.0 0.0 0.0
124 1 19.3732580744 38.4813427932 0.0 0.0 0.0 0.0
125 1 26.9262580744 36.9912427932 0.0 0.0 0.0 0.0
126 1 29.7357580744 35.8075427932 0.0 0.0 0.0 0.0
127 1 34.1716580744 38.8594427932 0.0 0.0 0.0 0.0
128 1 41.2726580744 37.0718427932 0.0 0.0 0.0 0.0
129 1 43.7807580744 35.4207427932 0.0 0.0 0.0 0.0
130 1 50.7051580744 39.9770427932 0.0 0.0 0.0 0.0
131 1 53.5843580744 39.0928427932 0.0 0.0 0.0 0.0
132 1 59.3315580744 38.8050427932 0.0 0.0 0.0 0.0
133 1 64.7637580744 38.7634427932 0.0 0.0 0.0 0.0
134 1 68.3385580744 37.7300427932 0.0 0.0 0.0 0.0
135 1 75.0981580744 38.1507427932 0.0 0.0 0.0 0.0
136 1 77.0106580744 42.8913427932 0.0 0.0 0.0 0.0
137 1 3.71655807436 41.7484427932 0.0 0.0 0.0 0.0
138 1 8.17499807436 39.7688427932 0.0 0.0 0.0 0.0
139 1 15.7704580744 42.1058427932 0.0 0.0 0.0 0.0
140 1 21.4001580744 42.8542427932 0.0 0.0 0.0 0.0
141 1 26.6716580744 42.0798427932 0.0 0.0 0.0 0.0
142 1 32.1081580744 41.0813427932 0.0 0.0 0.0 0.0
143 1 36.4825580744 42.3618427932 0.0 0.0 0.0 0.0
144 1 41.3651580744 42.6890427932 0.0 0.0 0.0 0.0
145 1 49.1858580744 37.3841427932 0.0 0.0 0.0 0.0
146 1 52.6371580744 45.0808427932 0.0 0.0 0.0 0.0
147 1 55.1036580744 41.6676427932 0.0 0.0 0.0 0.0
148 1 61.3475580744 45.5735427932 0.0 0.0 0.0 0.0
149 1 66.7007580744 43.5323427932 0.0 0.0 0.0 0.0
150 1 71.9562580744 42.7699427932 0.0 0.0 0.0 0.0
151 1 2.50042807436 47.0536427932 0.0 0.0 0.0 0.0
152 1 6.94857807436 45.3366427932 0.0 0.0 0.0 0.0
153 1 12.2276580744 45.3433427932 0.0 0.0 0.0 0.0
154 1 16.4446580744 45.0389427932 0.0 0.0 0.0 0.0
155 1 23.0962580744 45.3286427932 0.0 0.0 0.0 0.0
156 1 29.9303580744 45.7826427932 0.0 0.0 0.0 0.0
157 1 34.1157580744 46.5358427932 0.0 0.0 0.0 0.0
158 1 38.8406580744 49.0552427932 0.0 0.0 0.0 0.0
159 1 42.7735580744 45.3833427932 0.0 0.0 0.0 0.0
160 1 49.2458580744 47.8514427932 0.0 0.0 0.0 0.0
161 1 58.3341580744 45.8921427932 0.0 0.0 0.0 0.0
162 1 59.2415580744 50.7051427932 0.0 0.0 0.0 0.0
163 1 64.5333580744 48.5335427932 0.0 0.0 0.0 0.0
164 1 69.8062580744 47.5971427932 0.0 0.0 0.0 0.0
165 1 74.9981580744 47.4264427932 0.0 0.0 0.0 0.0
166 1 0.762018074358 51.4720427932 0.0 0.0 0.0 0.0
167 1 7.25429807436 50.2700427932 0.0 0.0 0.0 0.0
168 1 10.1919580744 49.6546427932 0.0 0.0 0.0 0.0
169 1 15.2106580744 52.2405427932 0.0 0.0 0.0 0.0
170 1 20.9630580744 50.5968427932 0.0 0.0 0.0 0.0
171 1 28.1334580744 50.6441427932 0.0 0.0 0.0 0.0
172 1 31.1232580744 51.1932427932 0.0 0.0 0.0 0.0
173 1 38.8912580744 52.0317427932 0.0 0.0 0.0 0.0
174 1 41.8111580744 51.2575427932 0.0 0.0 0.0 0.0
175 1 46.7902580744 52.2667427932 0.0 0.0 0.0 0.0
176 1 54.5178580744 53.0043427932 0.0 0.0 0.0 0.0
177 1 57.5157580744 53.1711427932 0.0 0.0 0.0 0.0
178 1 62.0400580744 53.5095427932 0.0 0.0 0.0 0.0
179 1 67.2433580744 52.4164427932 0.0 0.0 0.0 0.0
180 1 73.0605580744 51.9863427932 0.0 0.0 0.0 0.0
181 1 2.86927807436 56.0729427932 0.0 0.0 0.0 0.0
182 1 8.04881807436 55.5882427932 0.0 0.0 0.0 0.0
183 1 15.3268580744 55.2514427932 0.0 0.0 0.0 0.0
184 1 18.2888580744 54.7567427932 0.0 0.0 0.0 0.0
185 1 22.0217580744 58.0772427932 0.0 0.0 0.0 0.0
186 1 27.3142580744 55.7046427932 0.0 0.0 0.0 0.0
187 1 32.7845580744 56.2427427932 0.0 0.0 0.0 0.0
188 1 37.3680580744 56.5498427932 0.0 0.0 0.0 0.0
189 1 42.7597580744 56.1146427932 0.0 0.0 0.0 0.0
190 1 48.1613580744 56.7991427932 0.0 0.0 0.0 0.0
191 1 53.2567580744 57.7165427932 0.0 0.0 0.0 0.0
192 1 59.0424580744 58.2324427932 0.0 0.0 0.0 0.0
193 1 66.4685580744 56.8396427932 0.0 0.0 0.0 0.0
194 1 68.8002580744 54.9706427932 0.0 0.0 0.0 0.0
195 1 75.8356580744 55.8053427932 0.0 0.0 0.0 0.0
196 1 0.762658074358 62.5812427932 0.0 0.0 0.0 0.0
197 1 5.82774807436 60.2964427932 0.0 0.0 0.0 0.0
198 1 10.1065580744 62.4299427932 0.0 0.0 0.0 0.0
199 1 15.1122580744 60.3449427932 0.0 0.0 0.0 0.0
200 1 20.7192580744 60.8120427932 0.0 0.0 0.0 0.0
201 1 25.4653580744 60.5766427932 0.0 0.0 0.0 0.0
202 1 30.5965580744 60.1862427932 0.0 0.0 0.0 0.0
203 1 35.2217580744 61.3805427932 0.0 0.0 0.0 0.0
204 1 40.2316580744 60.7166427932 0.0 0.0 0.0 0.0
205 1 45.3008580744 60.7236427932 0.0 0.0 0.0 0.0
206 1 48.8639580744 63.8375427932 0.0 0.0 0.0 0.0
207 1 56.1096580744 61.9234427932 0.0 0.0 0.0 0.0
208 1 61.6303580744 62.3097427932 0.0 0.0 0.0 0.0
209 1 66.7182580744 61.8259427932 0.0 0.0 0.0 0.0
210 1 73.7208580744 60.2860427932 0.0 0.0 0.0 0.0
211 1 5.28745807436 65.1259427932 0.0 0.0 0.0 0.0
212 1 8.26921807436 64.8028427932 0.0 0.0 0.0 0.0
213 1 12.9159580744 65.5919427932 0.0 0.0 0.0 0.0
214 1 17.9431580744 64.7652427932 0.0 0.0 0.0 0.0
215 1 24.9518580744 65.0065427932 0.0 0.0 0.0 0.0
216 1 27.9837580744 64.8789427932 0.0 0.0 0.0 0.0
217 1 32.3753580744 67.9458427932 0.0 0.0 0.0 0.0
218 1 39.2366580744 65.4516427932 0.0 0.0 0.0 0.0
219 1 42.2537580744 65.3310427932 0.0 0.0 0.0 0.0
220 1 47.1270580744 66.2738427932 0.0 0.0 0.0 0.0
221 1 51.5594580744 65.1270427932 0.0 0.0 0.0 0.0
222 1 59.0091580744 66.2562427932 0.0 0.0 0.0 0.0
223 1 64.4825580744 66.6066427932 0.0 0.0 0.0 0.0
224 1 69.2293580744 63.5136427932 0.0 0.0 0.0 0.0
225 1 76.8354580744 64.9941427932 0.0 0.0 0.0 0.0
226 1 77.5930580744 69.6373427932 0.0 0.0 0.0 0.0
227 1 4.63282807436 70.8377427932 0.0 0.0 0.0 0.0
228 1 9.79585807436 69.9895427932 0.0 0.0 0.0 0.0
229 1 15.4696580744 69.7358427932 0.0 0.0 0.0 0.0
230 1 19.4987580744 70.1397427932 0.0 0.0 0.0 0.0
231 1 24.2049580744 72.5583427932 0.0 0.0 0.0 0.0
232 1 31.4345580744 70.8161427932 0.0 0.0 0.0 0.0
233 1 35.3776580744 74.4015427932 0.0 0.0 0.0 0.0
234 1 39.9345580744 70.8699427932 0.0 0.0 0.0 0.0
235 1 44.7121580744 70.5084427932 0.0 0.0 0.0 0.0
236 1 50.0882580744 70.5354427932 0.0 0.0 0.0 0.0
237 1 55.7593580744 69.9526427932 0.0 0.0 0.0 0.0
238 1 62.7242580744 70.4357427932 0.0 0.0 0.0 0.0
239 1 66.8617580744 68.4433427932 0.0 0.0 0.0 0.0
240 1 72.3782580744 70.7659427932 0.0 0.0 0.0 0.0
241 1 2.15761807436 74.7320427932 0.0 0.0 0.0 0.0
242 1 7.47401807436 75.5205427932 0.0 0.0 0.0 0.0
243 1 13.1007580744 76.2566427932 0.0 0.0 0.0 0.0
244 1 16.9856580744 77.6123427932 0.0 0.0 0.0 0.0
245 1 22.2652580744 74.8555427932 0.0 0.0 0.0 0.0
246 1 27.3283580744 76.3155427932 0.0 0.0 0.0 0.0
247 1 30.1015580744 73.5278427932 0.0 0.0 0.0 0.0
248 1 38.7650580744 76.1970427932 0.0 0.0 0.0 0.0
249 1 42.9666580744 75.5587427932 0.0 0.0 0.0 0.0
250 1 48.1797580744 74.7953427932 0.0 0.0 0.0 0.0
251 1 53.4555580744 74.1144427932 0.0 0.0 0.0 0.0
252 1 57.7533580744 72.2062427932 0.0 0.0 0.0 0.0
253 1 65.4831580744 74.2135427932 0.0 0.0 0.0 0.0
254 1 72.4340580744 73.7734427932 0.0 0.0 0.0 0.0
255 1 75.3638580744 74.4799427932 0.0 0.0 0.0 0.0
256 1 0.190611074358 2.55640279325 0.0 0.0 0.0 0.0
257 1 5.58091807436 3.16921279325 0.0 0.0 0.0 0.0
258 1 10.9030580744 1.37487279325 0.0 0.0 0.0 0.0
259 1 15.2590580744 4.31555279325 0.0 0.0 0.0 0.0
260 1 18.2798580744 3.76661279325 0.0 0.0 0.0 0.0
261 1 26.3543580744 3.21873279325 0.0 0.0 0.0 0.0
262 1 32.1195580744 1.77775279325 0.0 0.0 0.0 0.0
263 1 40.3560580744 6.09693279325 0.0 0.0 0.0 0.0
264 1 44.1564580744 4.59012279325 0.0 0.0 0.0 0.0
265 1 47.0780580744 4.01966279325 0.0 0.0 0.0 0.0
266 1 53.0102580744 2.07421279325 0.0 0.0 0.0 0.0
267 1 58.9058580744 3.83292279325 0.0 0.0 0.0 0.0
268 1 58.4746580744 0.877896793247 0.0 0.0 0.0 0.0
269 1 67.1831580744 2.27880279325 0.0 0.0 0.0 0.0
270 1 72.7659580744 2.33984279325 0.0 0.0 0.0 0.0
271 1 2.39229807436 7.50928279325 0.0 0.0 0.0 0.0
272 1 7.63762807436 7.93694279325 0.0 0.0 0.0 0.0
273 1 12.6648580744 8.73036279325 0.0 0.0 0.0 0.0
274 1 20.0421580744 8.80296279325 0.0 0.0 0.0 0.0
275 1 23.3120580744 6.80533279325 0.0 0.0 0.0 0.0
276 1 28.2274580744 8.47329279325 0.0 0.0 0.0 0.0
277 1 33.1839580744 8.92385279325 0.0 0.0 0.0 0.0
278 1 37.8973580744 7.84311279325 0.0 0.0 0.0 0.0
279 1 42.3737580744 8.35214279325 0.0 0.0 0.0 0.0
280 1 51.0631580744 7.52723279325 0.0 0.0 0.0 0.0
281 1 56.0126580744 4.80014279325 0.0 0.0 0.0 0.0
282 1 60.3054580744 7.37398279325 0.0 0.0 0.0 0.0
283 1 64.5882580744 6.05941279325 0.0 0.0 0.0 0.0
284 1 70.1002580744 6.84354279325 0.0 0.0 0.0 0.0
285 1 75.2592580744 6.93240279325 0.0 0.0 0.0 0.0
286 1 0.716068074358 10.0605427932 0.0 0.0 0.0 0.0
287 1 4.37776807436 12.8499427932 0.0 0.0 0.0 0.0
288 1 8.86705807436 12.9504427932 0.0 0.0 0.0 0.0
289 1 11.8054580744 13.5711427932 0.0 0.0 0.0 0.0
290 1 16.7441580744 12.5891427932 0.0 0.0 0.0 0.0
291 1 24.3804580744 12.3392427932 0.0 0.0 0.0 0.0
292 1 31.0646580744 14.0719427932 0.0 0.0 0.0 0.0
293 1 38.2463580744 13.8359427932 0.0 0.0 0.0 0.0
294 1 41.4677580744 11.2066427932 0.0 0.0 0.0 0.0
295 1 47.9776580744 12.5327427932 0.0 0.0 0.0 0.0
296 1 52.8056580744 12.1803427932 0.0 0.0 0.0 0.0
297 1 55.7773580744 12.6747427932 0.0 0.0 0.0 0.0
298 1 63.4714580744 11.1233427932 0.0 0.0 0.0 0.0
299 1 68.0351580744 10.6069427932 0.0 0.0 0.0 0.0
300 1 73.1820580744 11.7990427932 0.0 0.0 0.0 0.0
301 1 1.92990807436 17.7991427932 0.0 0.0 0.0 0.0
302 1 6.39312807436 17.9229427932 0.0 0.0 0.0 0.0
303 1 10.9353580744 17.8265427932 0.0 0.0 0.0 0.0
304 1 16.3099580744 16.8584427932 0.0 0.0 0.0 0.0
305 1 21.1732580744 16.6774427932 0.0 0.0 0.0 0.0
306 1 26.4890580744 16.7736427932 0.0 0.0 0.0 0.0
307 1 33.1931580744 16.1542427932 0.0 0.0 0.0 0.0
308 1 40.1204580744 16.2240427932 0.0 0.0 0.0 0.0
309 1 45.8486580744 16.9437427932 0.0 0.0 0.0 0.0
310 1 50.8639580744 17.2646427932 0.0 0.0 0.0 0.0
311 1 55.6675580744 16.4241427932 0.0 0.0 0.0 0.0
312 1 60.7078580744 16.1049427932 0.0 0.0 0.0 0.0
313 1 65.6361580744 15.1520427932 0.0 0.0 0.0 0.0
314 1 70.2644580744 15.7753427932 0.0 0.0 0.0 0.0
315 1 75.0652580744 17.2292427932 0.0 0.0 0.0 0.0
316 1 77.3516580744 22.2014427932 0.0 0.0 0.0 0.0
317 1 4.44828807436 22.7779427932 0.0 0.0 0.0 0.0
318 1 9.76795807436 20.5892427932 0.0 0.0 0.0 0.0
319 1 15.2352580744 21.6160427932 0.0 0.0 0.0 0.0
320 1 19.8074580744 21.4844427932 0.0 0.0 0.0 0.0
321 1 24.6044580744 21.3325427932 0.0 0.0 0.0 0.0
322 1 32.3487580744 21.5687427932 0.0 0.0 0.0 0.0
323 1 36.7456580744 20.0893427932 0.0 0.0 0.0 0.0
324 1 43.8996580744 22.5648427932 0.0 0.0 0.0 0.0
325 1 48.0138580744 21.4804427932 0.0 0.0 0.0 0.0
326 1 53.6144580744 20.9482427932 0.0 0.0 0.0 0.0
327 1 58.1155580744 21.5619427932 0.0 0.0 0.0 0.0
328 1 61.0972580744 21.3516427932 0.0 0.0 0.0 0.0
329 1 68.3701580744 18.1252427932 0.0 0.0 0.0 0.0
330 1 73.5165580744 23.0132427932 0.0 0.0 0.0 0.0
331 1 3.28767807436 28.4217427932 0.0 0.0 0.0 0.0
332 1 7.55594807436 26.8549427932 0.0 0.0 0.0 0.0
333 1 10.5059580744 26.3913427932 0.0 0.0 0.0 0.0
334 1 19.0821580744 24.4125427932 0.0 0.0 0.0 0.0
335 1 23.6078580744 26.7288427932 0.0 0.0 0.0 0.0
336 1 28.3712580744 24.6827427932 0.0 0.0 0.0 0.0
337 1 35.1539580744 22.6427427932 0.0 0.0 0.0 0.0
338 1 39.9117580744 24.9033427932 0.0 0.0 0.0 0.0
339 1 45.3109580744 25.2651427932 0.0 0.0 0.0 0.0
340 1 50.7654580744 26.0352427932 0.0 0.0 0.0 0.0
341 1 53.7078580744 25.4637427932 0.0 0.0 0.0 0.0
342 1 58.8119580744 26.2349427932 0.0 0.0 0.0 0.0
343 1 64.0632580744 25.1330427932 0.0 0.0 0.0 0.0
344 1 68.3793580744 25.2798427932 0.0 0.0 0.0 0.0
345 1 74.0181580744 26.0235427932 0.0 0.0 0.0 0.0
346 1 76.1249580744 30.1161427932 0.0 0.0 0.0 0.0
347 1 6.87747807436 32.4807427932 0.0 0.0 0.0 0.0
348 1 11.1060580744 29.3096427932 0.0 0.0 0.0 0.0
349 1 16.7515580744 30.8105427932 0.0 0.0 0.0 0.0
350 1 23.2200580744 32.5820427932 0.0 0.0 0.0 0.0
351 1 29.2125580744 30.0162427932 0.0 0.0 0.0 0.0
352 1 32.8504580744 28.4577427932 0.0 0.0 0.0 0.0
353 1 38.0721580744 29.7731427932 0.0 0.0 0.0 0.0
354 1 42.8686580744 29.7013427932 0.0 0.0 0.0 0.0
355 1 48.0240580744 30.0250427932 0.0 0.0 0.0 0.0
356 1 53.8652580744 29.4928427932 0.0 0.0 0.0 0.0
357 1 58.4290580744 31.1367427932 0.0 0.0 0.0 0.0
358 1 63.0180580744 30.1505427932 0.0 0.0 0.0 0.0
359 1 66.0273580744 30.2627427932 0.0 0.0 0.0 0.0
360 1 71.3361580744 31.3695427932 0.0 0.0 0.0 0.0
361 1 2.25104807436 33.7200427932 0.0 0.0 0.0 0.0
362 1 8.66614807436 34.9123427932 0.0 0.0 0.0 0.0
363 1 11.5615580744 35.7854427932 0.0 0.0 0.0 0.0
364 1 19.0024580744 35.4927427932 0.0 0.0 0.0 0.0
365 1 25.7202580744 34.2244427932 0.0 0.0 0.0 0.0
366 1 30.2704580744 32.8320427932 0.0 0.0 0.0 0.0
367 1 34.6891580744 33.8983427932 0.0 0.0 0.0 0.0
368 1 39.9903580744 34.3513427932 0.0 0.0 0.0 0.0
369 1 46.7677580744 35.6146427932 0.0 0.0 0.0 0.0
370 1 50.7125580744 34.7940427932 0.0 0.0 0.0 0.0
371 1 55.4444580744 36.7148427932 0.0 0.0 0.0 0.0
372 1 58.3736580744 36.0009427932 0.0 0.0 0.0 0.0
373 1 64.3157580744 35.8065427932 0.0 0.0 0.0 0.0
374 1 71.2535580744 37.0934427932 0.0 0.0 0.0 0.0
375 1 75.1555580744 35.1386427932 0.0 0.0 0.0 0.0
376 1 77.4929580744 39.9303427932 0.0 0.0 0.0 0.0
377 1 2.47367807436 39.0212427932 0.0 0.0 0.0 0.0
378 1 11.1752580744 39.9258427932 0.0 0.0 0.0 0.0
379 1 16.4006580744 39.1623427932 0.0 0.0 0.0 0.0
380 1 22.0789580744 39.9034427932 0.0 0.0 0.0 0.0
381 1 25.1139580744 39.4620427932 0.0 0.0 0.0 0.0
382 1 32.7403580744 36.2137427932 0.0 0.0 0.0 0.0
383 1 37.1452580744 39.4554427932 0.0 0.0 0.0 0.0
384 1 40.1580580744 39.8793427932 0.0 0.0 0.0 0.0
385 1 48.2484580744 45.0242427932 0.0 0.0 0.0 0.0
386 1 50.4547580744 42.9883427932 0.0 0.0 0.0 0.0
387 1 58.0655580744 41.4846427932 0.0 0.0 0.0 0.0
388 1 62.0600580744 39.9743427932 0.0 0.0 0.0 0.0
389 1 67.1698580744 40.5254427932 0.0 0.0 0.0 0.0
390 1 72.5840580744 39.7978427932 0.0 0.0 0.0 0.0
391 1 1.87719807436 44.1183427932 0.0 0.0 0.0 0.0
392 1 6.64626807436 42.3503427932 0.0 0.0 0.0 0.0
393 1 12.7978580744 42.4202427932 0.0 0.0 0.0 0.0
394 1 19.4260580744 45.1191427932 0.0 0.0 0.0 0.0
395 1 26.0583580744 45.0460427932 0.0 0.0 0.0 0.0
396 1 29.6067580744 42.7538427932 0.0 0.0 0.0 0.0
397 1 33.7573580744 43.5719427932 0.0 0.0 0.0 0.0
398 1 38.8008580744 44.2251427932 0.0 0.0 0.0 0.0
399 1 45.5930580744 46.4138427932 0.0 0.0 0.0 0.0
400 1 52.2087580744 48.0460427932 0.0 0.0 0.0 0.0
401 1 55.5958580744 44.6113427932 0.0 0.0 0.0 0.0
402 1 60.7969580744 42.6581427932 0.0 0.0 0.0 0.0
403 1 64.3769580744 45.5249427932 0.0 0.0 0.0 0.0
404 1 69.5322580744 44.5873427932 0.0 0.0 0.0 0.0
405 1 74.4530580744 44.4614427932 0.0 0.0 0.0 0.0
406 1 77.7878580744 48.5865427932 0.0 0.0 0.0 0.0
407 1 5.38320807436 47.8977427932 0.0 0.0 0.0 0.0
408 1 9.59485807436 46.7196427932 0.0 0.0 0.0 0.0
409 1 14.4789580744 47.3093427932 0.0 0.0 0.0 0.0
410 1 21.1356580744 47.5864427932 0.0 0.0 0.0 0.0
411 1 27.5761580744 47.6494427932 0.0 0.0 0.0 0.0
412 1 31.6821580744 48.2338427932 0.0 0.0 0.0 0.0
413 1 37.0898580744 46.6690427932 0.0 0.0 0.0 0.0
414 1 41.7185580744 48.2356427932 0.0 0.0 0.0 0.0
415 1 46.6125580744 49.2537427932 0.0 0.0 0.0 0.0
416 1 54.4570580744 50.0097427932 0.0 0.0 0.0 0.0
417 1 57.1130580744 48.6205427932 0.0 0.0 0.0 0.0
418 1 62.2335580744 50.5058427932 0.0 0.0 0.0 0.0
419 1 67.4056580744 49.4210427932 0.0 0.0 0.0 0.0
420 1 72.4540580744 49.0389427932 0.0 0.0 0.0 0.0
421 1 3.29563807436 53.1077427932 0.0 0.0 0.0 0.0
422 1 6.31560807436 53.1149427932 0.0 0.0 0.0 0.0
423 1 13.1810580744 50.0264427932 0.0 0.0 0.0 0.0
424 1 18.1773580744 51.7612427932 0.0 0.0 0.0 0.0
425 1 23.0852580744 52.7600427932 0.0 0.0 0.0 0.0
426 1 26.1252580744 52.9149427932 0.0 0.0 0.0 0.0
427 1 33.3608580744 53.2767427932 0.0 0.0 0.0 0.0
428 1 36.3710580744 53.6963427932 0.0 0.0 0.0 0.0
429 1 43.9689580744 53.3485427932 0.0 0.0 0.0 0.0
430 1 49.2656580744 54.0138427932 0.0 0.0 0.0 0.0
431 1 52.1725580744 54.8853427932 0.0 0.0 0.0 0.0
432 1 59.6174580744 55.2890427932 0.0 0.0 0.0 0.0
433 1 64.9130580744 54.2902427932 0.0 0.0 0.0 0.0
434 1 71.7720580744 54.7099427932 0.0 0.0 0.0 0.0
435 1 75.9445580744 52.8136427932 0.0 0.0 0.0 0.0
436 1 0.320248074358 57.6391427932 0.0 0.0 0.0 0.0
437 1 5.58721807436 57.3200427932 0.0 0.0 0.0 0.0
438 1 10.5441580744 57.2994427932 0.0 0.0 0.0 0.0
439 1 13.5667580744 57.7131427932 0.0 0.0 0.0 0.0
440 1 21.2592580744 55.1755427932 0.0 0.0 0.0 0.0
441 1 24.9975580744 57.6304427932 0.0 0.0 0.0 0.0
442 1 29.9432580744 57.2308427932 0.0 0.0 0.0 0.0
443 1 34.9584580744 58.3558427932 0.0 0.0 0.0 0.0
444 1 40.1701580744 57.6864427932 0.0 0.0 0.0 0.0
445 1 45.2935580744 57.7275427932 0.0 0.0 0.0 0.0
446 1 50.4268580744 58.7813427932 0.0 0.0 0.0 0.0
447 1 56.0672580744 58.9100427932 0.0 0.0 0.0 0.0
448 1 61.8770580744 59.3314427932 0.0 0.0 0.0 0.0
449 1 64.9130580744 59.3995427932 0.0 0.0 0.0 0.0
450 1 73.2514580744 57.3180427932 0.0 0.0 0.0 0.0
451 1 3.78335807436 62.5181427932 0.0 0.0 0.0 0.0
452 1 8.79008807436 59.7535427932 0.0 0.0 0.0 0.0
453 1 13.0992580744 62.5928427932 0.0 0.0 0.0 0.0
454 1 17.8276580744 61.7300427932 0.0 0.0 0.0 0.0
455 1 23.2012580744 62.5365427932 0.0 0.0 0.0 0.0
456 1 28.1423580744 61.8904427932 0.0 0.0 0.0 0.0
457 1 32.4476580744 62.5738427932 0.0 0.0 0.0 0.0
458 1 37.9516580744 62.7011427932 0.0 0.0 0.0 0.0
459 1 42.7672580744 62.3574427932 0.0 0.0 0.0 0.0
460 1 48.3056580744 60.9116427932 0.0 0.0 0.0 0.0
461 1 54.4776580744 64.4470427932 0.0 0.0 0.0 0.0
462 1 58.7965580744 63.2687427932 0.0 0.0 0.0 0.0
463 1 64.3267580744 63.6252427932 0.0 0.0 0.0 0.0
464 1 72.1786580744 62.8782427932 0.0 0.0 0.0 0.0
465 1 76.7355580744 60.2604427932 0.0 0.0 0.0 0.0
466 1 1.16856807436 67.0374427932 0.0 0.0 0.0 0.0
467 1 4.06669807436 67.8720427932 0.0 0.0 0.0 0.0
468 1 10.2659580744 67.0286427932 0.0 0.0 0.0 0.0
469 1 15.6778580744 66.7419427932 0.0 0.0 0.0 0.0
470 1 19.8260580744 67.1248427932 0.0 0.0 0.0 0.0
471 1 22.8325580744 67.1366427932 0.0 0.0 0.0 0.0
472 1 30.9910580744 65.2497427932 0.0 0.0 0.0 0.0
473 1 35.2870580744 68.7698427932 0.0 0.0 0.0 0.0
474 1 38.2806580744 68.3215427932 0.0 0.0 0.0 0.0
475 1 44.3744580744 67.4936427932 0.0 0.0 0.0 0.0
476 1 49.8304580744 67.5647427932 0.0 0.0 0.0 0.0
477 1 56.1064580744 66.9754427932 0.0 0.0 0.0 0.0
478 1 61.6726580744 67.6380427932 0.0 0.0 0.0 0.0
479 1 69.2039580744 66.5414427932 0.0 0.0 0.0 0.0
480 1 73.8347580744 65.4041427932 0.0 0.0 0.0 0.0
481 1 1.79507807436 71.7757427932 0.0 0.0 0.0 0.0
482 1 8.84491807436 72.8384427932 0.0 0.0 0.0 0.0
483 1 12.6795580744 70.8047427932 0.0 0.0 0.0 0.0
484 1 17.2376580744 72.1647427932 0.0 0.0 0.0 0.0
485 1 22.5018580744 70.1047427932 0.0 0.0 0.0 0.0
486 1 27.1096580744 73.3323427932 0.0 0.0 0.0 0.0
487 1 34.3124580744 71.6089427932 0.0 0.0 0.0 0.0
488 1 38.1638580744 73.2868427932 0.0 0.0 0.0 0.0
489 1 42.4721580744 72.5390427932 0.0 0.0 0.0 0.0
490 1 47.4046580744 71.8854427932 0.0 0.0 0.0 0.0
491 1 53.0185580744 71.1597427932 0.0 0.0 0.0 0.0
492 1 60.7226580744 72.6495427932 0.0 0.0 0.0 0.0
493 1 65.6330580744 71.1951427932 0.0 0.0 0.0 0.0
494 1 71.9525580744 67.7734427932 0.0 0.0 0.0 0.0
495 1 75.2774580744 71.4868427932 0.0 0.0 0.0 0.0
496 1 77.6145580744 76.5069427932 0.0 0.0 0.0 0.0
497 1 5.00938807436 73.8305427932 0.0 0.0 0.0 0.0
498 1 11.7212580744 73.6215427932 0.0 0.0 0.0 0.0
499 1 15.7872580744 74.8601427932 0.0 0.0 0.0 0.0
500 1 19.8318580744 76.6248427932 0.0 0.0 0.0 0.0
501 1 24.4157580744 76.9382427932 0.0 0.0 0.0 0.0
502 1 30.3102580744 76.5702427932 0.0 0.0 0.0 0.0
503 1 35.9990580744 77.3379427932 0.0 0.0 0.0 0.0
504 1 41.1416580744 77.9860427932 0.0 0.0 0.0 0.0
505 1 45.7901580744 76.6138427932 0.0 0.0 0.0 0.0
506 1 51.0124580744 75.8364427932 0.0 0.0 0.0 0.0
507 1 56.3524580744 74.8604427932 0.0 0.0 0.0 0.0
508 1 62.5518580744 75.0322427932 0.0 0.0 0.0 0.0
509 1 67.9555580744 75.9647427932 0.0 0.0 0.0 0.0
510 1 70.9550580744 76.3700427932 0.0 0.0 0.0 0.0
511 1 8.26593807436 78.4446427932 0.0 0.0 0.0 0.0
512 1 11.2935580744 78.6876427932 0.0 0.0 0.0 0.0
513 1 15.7702580744 80.4134427932 0.0 0.0 0.0 0.0
514 1 20.4957580744 79.5361427932 0.0 0.0 0.0 0.0
515 1 25.5755580744 81.8347427932 0.0 0.0 0.0 0.0
516 1 31.0536580744 79.5208427932 0.0 0.0 0.0 0.0
517 1 36.3990580744 80.3286427932 0.0 0.0 0.0 0.0
518 1 41.7741580744 0.258939793247 0.0 0.0 0.0 0.0
519 1 46.6495580744 79.4962427932 0.0 0.0 0.0 0.0
520 1 52.2769580744 78.5636427932 0.0 0.0 0.0 0.0
521 1 57.4679580744 77.6459427932 0.0 0.0 0.0 0.0
522 1 62.0816580744 79.7394427932 0.0 0.0 0.0 0.0
523 1 67.6262580744 78.9396427932 0.0 0.0 0.0 0.0
524 1 72.7467580744 78.8276427932 0.0 0.0 0.0 0.0
525 1 0.504318074358 79.4327427932 0.0 0.0 0.0 0.0
526 1 3.25123807436 80.8083427932 0.0 0.0 0.0 0.0
527 1 6.30905807436 80.7721427932 0.0 0.0 0.0 0.0
528 1 12.8324580744 81.2897427932 0.0 0.0 0.0 0.0
529 1 18.4908580744 81.7539427932 0.0 0.0 0.0 0.0
530 1 23.4580580744 79.7522427932 0.0 0.0 0.0 0.0
531 1 28.5355580744 81.2216427932 0.0 0.0 0.0 0.0
532 1 33.5011580744 81.3502427932 0.0 0.0 0.0 0.0
533 1 39.4858580744 80.5403427932 0.0 0.0 0.0 0.0
534 1 44.7555580744 81.8484427932 0.0 0.0 0.0 0.0
535 1 49.6415580744 80.0152427932 0.0 0.0 0.0 0.0
536 1 55.1333580744 79.5808427932 0.0 0.0 0.0 0.0
537 1 60.4664580744 77.2247427932 0.0 0.0 0.0 0.0
538 1 64.9953580744 80.3630427932 0.0 0.0 0.0 0.0
539 1 70.2216580744 80.4575427932 0.0 0.0 0.0 0.0
540 1 75.4456580744 80.2589427932 0.0 0.0 0.0 0.0
541 2 1.60731807436 2.03620279325 0.0 0.0 0.0 0.0
542 2 4.28385807436 2.37331279325 0.0 0.0 0.0 0.0
543 2 3.10476807436 0.0196750932467 0.0 0.0 0.0 0.0
544 2 7.09603807436 82.0795427932 0.0 0.0 0.0 0.0
545 2 9.37135807436 1.24484279325 0.0 0.0 0.0 0.0
546 2 6.79414807436 2.24086279325 0.0 0.0 0.0 0.0
547 2 11.5322580744 2.76172279325 0.0 0.0 0.0 0.0
548 2 13.7339580744 4.11348279325 0.0 0.0 0.0 0.0
549 2 11.2455580744 5.36523279325 0.0 0.0 0.0 0.0
550 2 19.5069580744 0.576705793247 0.0 0.0 0.0 0.0
551 2 19.3921580744 2.73221279325 0.0 0.0 0.0 0.0
552 2 22.0754580744 1.83226279325 0.0 0.0 0.0 0.0
553 2 24.9272580744 2.69728279325 0.0 0.0 0.0 0.0
554 2 24.5839580744 0.678820793247 0.0 0.0 0.0 0.0
555 2 28.8476580744 0.396008793247 0.0 0.0 0.0 0.0
556 2 30.6052580744 1.91207279325 0.0 0.0 0.0 0.0
557 2 27.7444580744 2.58851279325 0.0 0.0 0.0 0.0
558 2 32.5926580744 3.22574279325 0.0 0.0 0.0 0.0
559 2 34.1226580744 5.51965279325 0.0 0.0 0.0 0.0
560 2 31.6943580744 5.74379279325 0.0 0.0 0.0 0.0
561 2 41.5084580744 1.76370279325 0.0 0.0 0.0 0.0
562 2 42.8473580744 3.87558279325 0.0 0.0 0.0 0.0
563 2 40.7197580744 4.61904279325 0.0 0.0 0.0 0.0
564 2 47.3084580744 2.55950279325 0.0 0.0 0.0 0.0
565 2 46.0370580744 0.379393793247 0.0 0.0 0.0 0.0
566 2 48.8716580744 0.899907793247 0.0 0.0 0.0 0.0
567 2 50.0941580744 81.4438427932 0.0 0.0 0.0 0.0
568 2 51.6728580744 1.35575279325 0.0 0.0 0.0 0.0
569 2 55.2899580744 81.0818427932 0.0 0.0 0.0 0.0
570 2 56.9935580744 0.546664793247 0.0 0.0 0.0 0.0
571 2 54.2932580744 1.23286279325 0.0 0.0 0.0 0.0
572 2 59.9593580744 0.552147793247 0.0 0.0 0.0 0.0
573 2 61.6628580744 81.1753427932 0.0 0.0 0.0 0.0
574 2 62.8899580744 0.960011793247 0.0 0.0 0.0 0.0
575 2 64.8213580744 81.8519427932 0.0 0.0 0.0 0.0
576 2 65.7642580744 1.73502279325 0.0 0.0 0.0 0.0
577 2 68.5783580744 1.68366279325 0.0 0.0 0.0 0.0
578 2 71.3714580744 1.76349279325 0.0 0.0 0.0 0.0
579 2 70.1062580744 81.9483427932 0.0 0.0 0.0 0.0
580 2 75.4225580744 81.7722427932 0.0 0.0 0.0 0.0
581 2 76.7734580744 1.75567279325 0.0 0.0 0.0 0.0
582 2 74.1115580744 1.65828279325 0.0 0.0 0.0 0.0
583 2 0.132631074358 4.06518279325 0.0 0.0 0.0 0.0
584 2 76.5909580744 6.22796279325 0.0 0.0 0.0 0.0
585 2 1.27519807436 6.48567279325 0.0 0.0 0.0 0.0
586 2 3.79334807436 6.90208279325 0.0 0.0 0.0 0.0
587 2 6.40347807436 7.05084279325 0.0 0.0 0.0 0.0
588 2 5.39120807436 4.68372279325 0.0 0.0 0.0 0.0
589 2 11.4743580744 7.80536279325 0.0 0.0 0.0 0.0
590 2 9.02160807436 7.27150279325 0.0 0.0 0.0 0.0
591 2 15.3581580744 5.82328279325 0.0 0.0 0.0 0.0
592 2 16.2743580744 8.45926279325 0.0 0.0 0.0 0.0
593 2 13.9451580744 7.94575279325 0.0 0.0 0.0 0.0
594 2 19.3296580744 4.87352279325 0.0 0.0 0.0 0.0
595 2 21.9785580744 6.08740279325 0.0 0.0 0.0 0.0
596 2 20.1460580744 7.31135279325 0.0 0.0 0.0 0.0
597 2 26.4082580744 4.72242279325 0.0 0.0 0.0 0.0
598 2 27.2150580744 7.35298279325 0.0 0.0 0.0 0.0