# input file

1350 atoms
2 atom types

0.0 76.0358165601 xlo xhi
0.0 84.4352604498 ylo yhi
-10.0 10.0 zlo zhi
0.0 0.0 0.0 xy xz yz

Masses

1 28.0855 #Si
2 15.9994 #O

Atoms

1 1 2.88086605691 0.374892224878 0.0
2 1 8.54834605691 0.243610224878 0.0
3 1 11.3161460569 3.70364022488 0.0
4 1 16.5486460569 3.91500022488 0.0
5 1 20.9315460569 2.37430022488 0.0
6 1 25.8063460569 1.38391122488 0.0
7 1 31.1381460569 1.44805122488 0.0
8 1 37.5256460569 2.14495022488 0.0
9 1 43.6568460569 1.98097022488 0.0
10 1 49.2754460569 1.10580172488 0.0
11 1 53.9214460569 0.695784224878 0.0
12 1 57.7468460569 4.07851022488 0.0
13 1 63.0617460569 1.65359922488 0.0
14 1 68.8817460569 1.53186322488 0.0
15 1 75.8842460569 0.596620224878 0.0
16 1 0.262616056913 5.64141022488 0.0
17 1 5.67646605691 4.41442022488 0.0
18 1 9.13394605691 8.01834022488 0.0
19 1 13.6470460569 10.4447602249 0.0
20 1 21.5213460569 7.09441022488 0.0
21 1 24.4651460569 6.42109022488 0.0
22 1 29.4625460569 5.52411022488 0.0
23 1 34.7814460569 6.96020022488 0.0
24 1 39.2139460569 4.64757022488 0.0
25 1 46.8565460569 5.47457022488 0.0
26 1 51.8631460569 5.86635022488 0.0
27 1 56.2629460569 6.72721022488 0.0
28 1 60.7319460569 6.60290022488 0.0
29 1 65.8979460569 5.40224022488 0.0
30 1 71.0337460569 6.24514022488 0.0
31 1 3.47608605691 9.21130022488 0.0
32 1 6.45744605691 12.5088302249 0.0
33 1 12.2396460569 13.0864302249 0.0
34 1 16.1596460569 12.0641302249 0.0
35 1 23.2761460569 12.4481302249 0.0
36 1 29.5553460569 9.54608022488 0.0
37 1 32.5439460569 8.99270022488 0.0
38 1 37.4824460569 10.2670502249 0.0
39 1 45.2917460569 9.67654022488 0.0
40 1 48.2668460569 10.1571702249 0.0
41 1 53.0741460569 11.3141302249 0.0
42 1 58.6577460569 11.6654302249 0.0
43 1 64.0192460569 10.2784602249 0.0
44 1 68.6116460569 12.4833302249 0.0
45 1 72.5221460569 8.85884022488 0.0
46 1 0.105356056913 16.8272302249 0.0
47 1 5.11885605691 15.2022302249 0.0
48 1 9.78884605691 18.5018302249 0.0
49 1 15.4423460569 17.6341302249 0.0
50 1 21.0752460569 17.3932302249 0.0
51 1 26.2334460569 16.8234302249 0.0
52 1 30.5907460569 14.5940302249 0.0
53 1 35.0104460569 16.6038302249 0.0
54 1 40.0878460569 14.7014302249 0.0
55 1 44.3921460569 17.3793302249 0.0
56 1 49.9842460569 15.4399302249 0.0
57 1 54.2899460569 14.1120302249 0.0
58 1 62.0856460569 15.0099302249 0.0
59 1 67.6402460569 15.3075302249 0.0
60 1 72.6925460569 14.4419302249 0.0
61 1 3.41413605691 20.3910302249 0.0
62 1 8.58474605691 21.2421302249 0.0
63 1 13.5006460569 23.9323302249 0.0
64 1 18.8576460569 21.5254302249 0.0
65 1 24.1584460569 21.6394302249 0.0
66 1 31.2540460569 19.4735302249 0.0
67 1 34.2596460569 19.5118302249 0.0
68 1 38.9625460569 19.6564302249 0.0
69 1 42.8392460569 22.0669302249 0.0
70 1 48.1820460569 19.9288302249 0.0
71 1 53.4309460569 19.7227302249 0.0
72 1 60.6562460569 19.2406302249 0.0
73 1 63.7009460569 19.0831302249 0.0
74 1 69.3527460569 19.3031302249 0.0
75 1 74.5143460569 19.4016302249 0.0
76 1 75.9834460569 24.4536302249 0.0
77 1 5.36559605691 25.2575302249 0.0
78 1 12.3052460569 26.6679302249 0.0
79 1 17.3378460569 26.0978302249 0.0
80 1 20.9460460569 28.7163302249 0.0
81 1 28.2043460569 25.4879302249 0.0
82 1 31.1354460569 24.8676302249 0.0
83 1 36.1523460569 24.4962302249 0.0
84 1 41.8139460569 24.8919302249 0.0
85 1 46.6624460569 24.6394302249 0.0
86 1 50.4196460569 26.9292302249 0.0
87 1 55.4626460569 24.9023302249 0.0
88 1 60.0908460569 24.1384302249 0.0
89 1 65.7748460569 23.2297302249 0.0
90 1 71.0661460569 23.8580302249 0.0
91 1 2.37932605691 29.0750302249 0.0
92 1 6.86296605691 27.8713302249 0.0
93 1 14.2341460569 30.8542302249 0.0
94 1 19.5350460569 31.3821302249 0.0
95 1 24.0912460569 31.7144302249 0.0
96 1 28.6215460569 30.5657302249 0.0
97 1 33.6030460569 29.4222302249 0.0
98 1 39.0274460569 28.7180302249 0.0
99 1 44.5721460569 29.5532302249 0.0
100 1 49.5034460569 29.7964302249 0.0
101 1 54.1407460569 32.5159302249 0.0
102 1 58.6669460569 29.3699302249 0.0
103 1 63.7459460569 27.5158302249 0.0
104 1 67.8031460569 30.3929302249 0.0
105 1 73.0949460569 28.8791302249 0.0
106 1 0.144436056913 33.3465302249 0.0
107 1 5.33425605691 33.3306302249 0.0
108 1 10.3403460569 33.8608302249 0.0
109 1 15.8501460569 35.3424302249 0.0
110 1 23.1952460569 36.0612302249 0.0
111 1 26.1869460569 35.8676302249 0.0
112 1 30.4974460569 34.4761302249 0.0
113 1 37.9130460569 32.9756302249 0.0
114 1 40.9147460569 33.1419302249 0.0
115 1 46.1547460569 34.3850302249 0.0
116 1 52.8265460569 35.2317302249 0.0
117 1 58.2656460569 34.7804302249 0.0
118 1 62.7313460569 32.5217302249 0.0
119 1 66.2143460569 35.5574302249 0.0
120 1 71.0427460569 33.8198302249 0.0
121 1 2.45969605691 37.8602302249 0.0
122 1 7.10102605691 38.2151302249 0.0
123 1 11.4531460569 38.2117302249 0.0
124 1 16.9589460569 39.7522302249 0.0
125 1 21.8038460569 41.1078302249 0.0
126 1 28.5602460569 40.1442302249 0.0
127 1 33.0548460569 38.7998302249 0.0
128 1 37.5310460569 40.8722302249 0.0
129 1 42.6756460569 38.0446302249 0.0
130 1 47.3787460569 37.1686302249 0.0
131 1 54.5469460569 39.0990302249 0.0
132 1 64.3589460569 40.0278302249 0.0
133 1 63.6213460569 37.0942302249 0.0
134 1 70.6929460569 38.7565302249 0.0
135 1 73.6192460569 38.1054302249 0.0
136 1 1.03452605691 42.5907302249 0.0
137 1 4.05119605691 42.9010302249 0.0
138 1 8.95114605691 43.2975302249 0.0
139 1 13.8841460569 42.7295302249 0.0
140 1 16.8561460569 42.7387302249 0.0
141 1 23.7318460569 43.4134302249 0.0
142 1 33.0023460569 43.8029302249 0.0
143 1 36.0309460569 43.4855302249 0.0
144 1 41.2626460569 42.8960302249 0.0
145 1 44.5745460569 45.2891302249 0.0
146 1 51.3153460569 42.8923302249 0.0
147 1 56.3256460569 41.4934302249 0.0
148 1 62.0838460569 45.1087302249 0.0
149 1 66.9831460569 44.7746302249 0.0
150 1 71.5705460569 44.1167302249 0.0
151 1 1.86718605691 48.8344302249 0.0
152 1 6.88594605691 47.8827302249 0.0
153 1 12.0904460569 49.2608302249 0.0
154 1 16.5666460569 47.9971302249 0.0
155 1 21.2709460569 50.4250302249 0.0
156 1 26.7462460569 48.1982302249 0.0
157 1 31.8060460569 50.7825302249 0.0
158 1 39.3945460569 47.6333302249 0.0
159 1 42.3922460569 47.3790302249 0.0
160 1 46.4602460569 47.6151302249 0.0
161 1 53.6898460569 46.5562302249 0.0
162 1 58.2873460569 48.1321302249 0.0
163 1 62.7452460569 48.0338302249 0.0
164 1 68.2106460569 52.0772302249 0.0
165 1 73.2586460569 49.3866302249 0.0
166 1 75.9091460569 56.1281302249 0.0
167 1 5.75361605691 52.7765302249 0.0
168 1 8.75754605691 52.9065302249 0.0
169 1 14.7834460569 53.4477302249 0.0
170 1 19.9880460569 53.1889302249 0.0
171 1 24.7268460569 53.0134302249 0.0
172 1 29.9691460569 53.1918302249 0.0
173 1 34.9594460569 53.7249302249 0.0
174 1 39.6518460569 52.6553302249 0.0
175 1 44.6871460569 52.6652302249 0.0
176 1 49.4880460569 51.5508302249 0.0
177 1 54.7251460569 51.9064302249 0.0
178 1 60.0013460569 53.0460302249 0.0
179 1 67.5702460569 55.0681302249 0.0
180 1 71.6304460569 54.5469302249 0.0
181 1 1.18042605691 62.2350302249 0.0
182 1 7.69270605691 57.8702302249 0.0
183 1 9.86694605691 55.7406302249 0.0
184 1 15.9150460569 60.2041302249 0.0
185 1 23.0567460569 57.9015302249 0.0
186 1 26.8560460569 60.2074302249 0.0
187 1 32.8872460569 57.9793302249 0.0
188 1 38.3179460569 57.8484302249 0.0
189 1 42.9031460569 57.2635302249 0.0
190 1 47.7066460569 56.8331302249 0.0
191 1 52.3414460569 56.1884302249 0.0
192 1 57.0096460569 58.7375302249 0.0
193 1 61.7085460569 59.7619302249 0.0
194 1 64.8008460569 56.2939302249 0.0
195 1 74.0610460569 58.4895302249 0.0
196 1 74.5238460569 63.5969302249 0.0
197 1 3.37473605691 65.0329302249 0.0
198 1 8.22833605691 63.5991302249 0.0
199 1 14.8567460569 63.0211302249 0.0
200 1 18.7621460569 61.1591302249 0.0
201 1 25.4562460569 62.8514302249 0.0
202 1 29.1571460569 62.1087302249 0.0
203 1 35.5741460569 64.6778302249 0.0
204 1 40.7760460569 62.4577302249 0.0
205 1 45.5854460569 61.8914302249 0.0
206 1 50.1957460569 61.4329302249 0.0
207 1 55.5773460569 61.3987302249 0.0
208 1 60.3072460569 62.3974302249 0.0
209 1 65.3414460569 62.2471302249 0.0
210 1 71.5768460569 62.8383302249 0.0
211 1 0.635646056913 68.8276302249 0.0
212 1 6.32729605691 68.8351302249 0.0
213 1 10.3010460569 65.7925302249 0.0
214 1 17.8607460569 66.9402302249 0.0
215 1 22.7330460569 66.5720302249 0.0
216 1 27.7576460569 67.7297302249 0.0
217 1 35.1941460569 67.6372302249 0.0
218 1 38.1874460569 67.4519302249 0.0
219 1 43.2047460569 66.9657302249 0.0
220 1 47.7215460569 66.6334302249 0.0
221 1 52.6935460569 65.7733302249 0.0
222 1 57.6859460569 66.6250302249 0.0
223 1 62.4920460569 66.9124302249 0.0
224 1 66.6379460569 70.2071302249 0.0
225 1 71.0355460569 70.6534302249 0.0
226 1 75.0047460569 73.0662302249 0.0
227 1 5.64711605691 74.5414302249 0.0
228 1 10.5492460569 71.3987302249 0.0
229 1 15.4168460569 71.0510302249 0.0
230 1 20.2684460569 71.4918302249 0.0
231 1 25.1370460569 71.6872302249 0.0
232 1 29.6395460569 74.8008302249 0.0
233 1 34.3190460569 72.2532302249 0.0
234 1 40.0559460569 71.7096302249 0.0
235 1 44.8060460569 71.7545302249 0.0
236 1 51.5405460569 70.6324302249 0.0
237 1 54.5448460569 70.7588302249 0.0
238 1 59.7601460569 71.5438302249 0.0
239 1 65.0499460569 72.8679302249 0.0
240 1 69.8824460569 73.4441302249 0.0
241 1 1.21401605691 75.0320302249 0.0
242 1 8.84444605691 76.4844302249 0.0
243 1 13.9023460569 75.8764302249 0.0
244 1 18.0509460569 76.0368302249 0.0
245 1 22.3261460569 78.6540302249 0.0
246 1 28.1700460569 77.4264302249 0.0
247 1 34.9546460569 76.7219302249 0.0
248 1 37.8124460569 75.7740302249 0.0
249 1 41.5651460569 79.1276302249 0.0
250 1 46.5720460569 76.7389302249 0.0
251 1 51.7279460569 75.6673302249 0.0
252 1 57.2403460569 75.5923302249 0.0
253 1 61.6129460569 78.6244302249 0.0
254 1 65.7467460569 75.8363302249 0.0
255 1 73.1880460569 77.6532302249 0.0
256 1 74.4418460569 3.24168022488 0.0
257 1 5.73327605691 1.40867322488 0.0
258 1 11.5519460569 0.714246224878 0.0
259 1 13.8508460569 5.32108022488 0.0
260 1 19.3815460569 4.95150022488 0.0
261 1 23.7103460569 3.50569022488 0.0
262 1 28.4568460569 2.71921022488 0.0
263 1 32.1572460569 4.23940022488 0.0
264 1 42.2155460569 4.62420022488 0.0
265 1 46.6161460569 2.49350022488 0.0
266 1 51.7677460569 2.81903022488 0.0
267 1 56.8682460569 1.22117822488 0.0
268 1 60.7263460569 3.60178022488 0.0
269 1 65.9881460569 2.41657022488 0.0
270 1 71.4069460569 3.25209022488 0.0
271 1 3.22463605691 6.19295022488 0.0
272 1 8.61894605691 5.06404022488 0.0
273 1 12.1671460569 7.83767022488 0.0
274 1 19.1473460569 12.0423302249 0.0
275 1 21.4176460569 10.0935202249 0.0
276 1 27.2754460569 7.57350022488 0.0
277 1 35.1267460569 3.97780022488 0.0
278 1 37.7549460569 7.28905022488 0.0
279 1 44.2104460569 6.87152022488 0.0
280 1 49.2266460569 7.30615022488 0.0
281 1 53.6776460569 8.29930022488 0.0
282 1 58.5434460569 8.66321022488 0.0
283 1 63.6143460569 7.32519022488 0.0
284 1 68.2246460569 7.26911022488 0.0
285 1 75.4998460569 8.55361022488 0.0
286 1 1.07757605691 11.1058302249 0.0
287 1 6.48454605691 9.51184022488 0.0
288 1 9.27764605691 13.5027302249 0.0
289 1 14.7536460569 14.7106302249 0.0
290 1 20.9975460569 14.3937302249 0.0
291 1 25.9414460569 13.8230302249 0.0
292 1 28.5740460569 12.3828302249 0.0
293 1 34.6081460569 11.1881302249 0.0
294 1 40.0989460569 11.7174302249 0.0
295 1 43.0938460569 11.7086302249 0.0
296 1 50.2600460569 12.4203302249 0.0
297 1 57.2969460569 14.3564302249 0.0
298 1 61.6251460569 12.0656302249 0.0
299 1 66.9865460569 9.99457022488 0.0
300 1 71.4953460569 11.6895302249 0.0
301 1 3.05992605691 17.3998302249 0.0
302 1 7.94575605691 16.1680302249 0.0
303 1 12.7447460569 18.9791302249 0.0
304 1 18.3079460569 18.5796302249 0.0
305 1 23.8243460569 18.6431302249 0.0
306 1 29.2152460569 17.2632302249 0.0
307 1 33.5307460569 13.9949302249 0.0
308 1 37.9859460569 16.8252302249 0.0
309 1 43.0760460569 14.6968302249 0.0
310 1 47.4074460569 17.0368302249 0.0
311 1 52.7361460569 16.7312302249 0.0
312 1 59.4614460569 16.4681302249 0.0
313 1 64.7912460569 16.2852302249 0.0
314 1 70.4149460569 16.4716302249 0.0
315 1 75.6648460569 13.8306302249 0.0
316 1 0.620606056913 21.5171302249 0.0
317 1 5.76640605691 22.2752302249 0.0
318 1 11.5287460569 21.7163302249 0.0
319 1 16.4122460569 23.2591302249 0.0
320 1 21.4738460569 23.0174302249 0.0
321 1 26.9574460569 22.7666302249 0.0
322 1 29.8928460569 22.1330302249 0.0
323 1 36.5450460569 21.4874302249 0.0
324 1 41.9580460569 19.2105302249 0.0
325 1 45.8159460569 21.7780302249 0.0
326 1 50.8515460569 21.3046302249 0.0
327 1 55.6223460569 21.8569302249 0.0
328 1 58.6363460569 21.4953302249 0.0
329 1 66.4713460569 20.3047302249 0.0
330 1 71.8855460569 20.9377302249 0.0
331 1 2.47755605691 26.0764302249 0.0
332 1 9.82644605691 28.3502302249 0.0
333 1 15.0015460569 27.9723302249 0.0
334 1 20.3137460569 25.7928302249 0.0
335 1 23.9339460569 28.7399302249 0.0
336 1 26.8582460569 28.1448302249 0.0
337 1 33.7546460569 26.3755302249 0.0
338 1 38.9135460569 25.7178302249 0.0
339 1 44.3397460569 26.5492302249 0.0
340 1 49.6057460569 24.0534302249 0.0
341 1 53.4092460569 27.1295302249 0.0
342 1 58.0892460569 26.3956302249 0.0
343 1 63.0748460569 24.5845302249 0.0
344 1 68.2417460569 24.9539302249 0.0
345 1 73.3156460569 25.8642302249 0.0
346 1 75.7099460569 30.3776302249 0.0
347 1 5.11421605691 30.3232302249 0.0
348 1 11.2313460569 31.0025302249 0.0
349 1 16.7420460569 32.4837302249 0.0
350 1 21.6831460569 33.4738302249 0.0
351 1 26.8038460569 32.9413302249 0.0
352 1 31.4323460569 31.5667302249 0.0
353 1 36.4851460569 30.3288302249 0.0
354 1 41.6362460569 30.2320302249 0.0
355 1 46.9438460569 31.4399302249 0.0
356 1 52.5120460569 30.0021302249 0.0
357 1 57.1215460569 31.9838302249 0.0
358 1 61.6664460569 29.7065302249 0.0
359 1 66.7608460569 27.5790302249 0.0
360 1 70.7795460569 30.8191302249 0.0
361 1 2.74199605691 34.8596302249 0.0
362 1 7.65984605691 35.2419302249 0.0
363 1 12.8268460569 35.5449302249 0.0
364 1 18.3045460569 37.0953302249 0.0
365 1 21.1040460569 38.1851302249 0.0
366 1 28.9052460569 37.1017302249 0.0
367 1 33.1484460569 35.8160302249 0.0
368 1 36.0960460569 35.3483302249 0.0
369 1 43.2138460569 35.0836302249 0.0
370 1 50.4208460569 37.1158302249 0.0
371 1 55.6480460569 36.3119302249 0.0
372 1 61.2776460569 35.1702302249 0.0
373 1 65.7407460569 32.5921302249 0.0
374 1 69.1568460569 36.1686302249 0.0
375 1 73.7539460569 35.1067302249 0.0
376 1 0.111136056913 39.7221302249 0.0
377 1 4.63536605691 39.9317302249 0.0
378 1 9.27314605691 40.2843302249 0.0
379 1 13.9894460569 39.7570302249 0.0
380 1 19.7674460569 43.2896302249 0.0
381 1 26.6215460569 42.5044302249 0.0
382 1 31.3572460569 41.2704302249 0.0
383 1 36.0009460569 38.3258302249 0.0
384 1 40.4090460569 40.0268302249 0.0
385 1 45.3381460569 39.4539302249 0.0
386 1 51.6317460569 39.8820302249 0.0
387 1 59.2034460569 42.2573302249 0.0
388 1 62.1949460569 42.1126302249 0.0
389 1 66.8286460569 41.7735302249 0.0
390 1 69.8382460569 41.6350302249 0.0
391 1 75.3473460569 47.2183302249 0.0
392 1 6.37026605691 44.8758302249 0.0
393 1 13.7808460569 46.7909302249 0.0
394 1 11.6343460569 44.6749302249 0.0
395 1 21.6318460569 45.6145302249 0.0
396 1 27.6996460569 45.3212302249 0.0
397 1 30.6808460569 45.7426302249 0.0
398 1 38.8013460569 44.6896302249 0.0
399 1 44.2338460569 42.3018302249 0.0
400 1 50.7739460569 45.8696302249 0.0
401 1 54.2283460569 43.6259302249 0.0
402 1 59.0975460569 45.2456302249 0.0
403 1 65.6604460569 47.4511302249 0.0
404 1 69.5442460569 46.3564302249 0.0
405 1 74.5905460569 44.3127302249 0.0
406 1 75.8080460569 50.9494302249 0.0
407 1 4.67807605691 49.9370302249 0.0
408 1 9.15344605691 49.9039302249 0.0
409 1 14.8293460569 50.4589302249 0.0
410 1 19.6223460569 47.8940302249 0.0
411 1 24.2944460569 50.0310302249 0.0
412 1 29.7464460569 48.5951302249 0.0
413 1 34.8456460569 50.7330302249 0.0
414 1 37.8402460569 50.2206302249 0.0
415 1 44.3001460569 49.6866302249 0.0
416 1 49.3154460569 48.5180302249 0.0
417 1 55.4217460569 48.9949302249 0.0
418 1 60.5638460569 50.0908302249 0.0
419 1 68.1732460569 49.0590302249 0.0
420 1 71.1628460569 51.5738302249 0.0
421 1 2.73769605691 56.9579302249 0.0
422 1 5.49665605691 55.7866302249 0.0
423 1 12.8967460569 55.7811302249 0.0
424 1 17.4348460569 54.8406302249 0.0
425 1 22.4178460569 54.9560302249 0.0
426 1 27.2843460569 54.5829302249 0.0
427 1 32.2860460569 55.0679302249 0.0
428 1 37.6990460569 54.9228302249 0.0
429 1 42.1816460569 54.3180302249 0.0
430 1 47.4699460569 53.8089302249 0.0
431 1 52.0079460569 53.1936302249 0.0
432 1 57.0686460569 53.7812302249 0.0
433 1 61.9064460569 55.3712302249 0.0
434 1 69.9068460569 57.0296302249 0.0
435 1 74.4483460569 53.5819302249 0.0
436 1 0.902166056913 59.3070302249 0.0
437 1 4.19170605691 62.1492302249 0.0
438 1 6.94277605691 60.8466302249 0.0
439 1 15.5526460569 57.2130302249 0.0
440 1 21.7096460569 60.6284302249 0.0
441 1 26.0224460569 57.3306302249 0.0
442 1 31.7835460569 60.7369302249 0.0
443 1 35.6358460569 59.1499302249 0.0
444 1 40.8423460569 59.4498302249 0.0
445 1 45.4663460569 58.8558302249 0.0
446 1 50.2797460569 58.3977302249 0.0
447 1 55.3481460569 56.2520302249 0.0
448 1 59.7675460569 57.4998302249 0.0
449 1 64.6739460569 59.3110302249 0.0
450 1 71.3137460569 59.7598302249 0.0
451 1 0.467536056913 65.8466302249 0.0
452 1 6.22824605691 65.8484302249 0.0
453 1 13.3026460569 65.6045302249 0.0
454 1 17.7062460569 63.9541302249 0.0
455 1 22.5556460569 63.5426302249 0.0
456 1 27.7753460569 64.7419302249 0.0
457 1 34.5130460569 61.9075302249 0.0
458 1 38.5549460569 64.4795302249 0.0
459 1 43.3803460569 63.9489302249 0.0
460 1 48.0668460569 63.5989302249 0.0
461 1 52.8918460569 62.7622302249 0.0
462 1 57.5839460569 63.6264302249 0.0
463 1 62.8549460569 63.9400302249 0.0
464 1 66.8895460569 64.8219302249 0.0
465 1 69.8350460569 65.3789302249 0.0
466 1 74.0241460569 70.2486302249 0.0
467 1 3.47857605691 69.8418302249 0.0
468 1 9.32474605691 68.6580302249 0.0
469 1 15.0756460569 68.0531302249 0.0
470 1 20.4201460569 68.4895302249 0.0
471 1 24.9063460569 68.6763302249 0.0
472 1 29.9177460569 69.8031302249 0.0
473 1 32.9212460569 69.6009302249 0.0
474 1 40.8392460569 68.8205302249 0.0
475 1 45.5842460569 68.7994302249 0.0
476 1 50.4852460569 67.8106302249 0.0
477 1 54.9291460569 67.7794302249 0.0
478 1 59.9863460569 68.5505302249 0.0
479 1 65.4188460569 67.4688302249 0.0
480 1 69.1032460569 68.3680302249 0.0
481 1 3.22649605691 72.8248302249 0.0
482 1 8.45014605691 73.5283302249 0.0
483 1 13.1157460569 72.9643302249 0.0
484 1 17.6847460569 73.0341302249 0.0
485 1 22.6221460569 73.3516302249 0.0
486 1 28.1104460569 72.2117302249 0.0
487 1 32.6650460569 74.7591302249 0.0
488 1 37.2708460569 72.8230302249 0.0
489 1 42.3810460569 73.6027302249 0.0
490 1 47.0416460569 73.7652302249 0.0
491 1 50.0025460569 73.2077302249 0.0
492 1 56.9379460569 72.5990302249 0.0
493 1 62.0652460569 73.4811302249 0.0
494 1 68.7190460569 76.2268302249 0.0
495 1 72.5567460569 74.7456302249 0.0
496 1 0.138876056913 77.8280302249 0.0
497 1 6.03690605691 77.5002302249 0.0
498 1 11.5481460569 77.7074302249 0.0
499 1 15.8844460569 78.1471302249 0.0
500 1 21.0616460569 75.9352302249 0.0
501 1 25.3411460569 78.5352302249 0.0
502 1 30.6770460569 79.1120302249 0.0
503 1 33.6917460569 79.4346302249 0.0
504 1 40.8032460569 76.2033302249 0.0
505 1 44.5786460569 79.0031302249 0.0
506 1 49.4432460569 77.6239302249 0.0
507 1 54.4938460569 76.8717302249 0.0
508 1 60.2595460569 75.9254302249 0.0
509 1 64.6323460569 78.6597302249 0.0
510 1 70.4081460569 78.7480302249 0.0
511 1 5.87155605691 80.4856302249 0.0
512 1 11.4821460569 80.6870302249 0.0
513 1 14.3313460569 83.8846302249 0.0
514 1 21.5947460569 81.5992302249 0.0
515 1 24.6014460569 81.4413302249 0.0
516 1 29.8547460569 81.9826302249 0.0
517 1 35.2719460569 82.0090302249 0.0
518 1 40.4504460569 81.9483302249 0.0
519 1 45.5873460569 81.8386302249 0.0
520 1 50.5355460569 80.4091302249 0.0
521 1 54.9503460569 82.3051302249 0.0
522 1 60.5946460569 81.4605302249 0.0
523 1 65.7257460569 81.4987302249 0.0
524 1 71.1158460569 81.6825302249 0.0
525 1 0.368246056913 80.8058302249 0.0
526 1 3.18668605691 81.8312302249 0.0
527 1 8.63454605691 81.6850302249 0.0
528 1 14.4900460569 80.8680302249 0.0
529 1 16.9853460569 0.902640224878 0.0
530 1 19.7436460569 84.0380302249 0.0
531 1 27.0707460569 83.1134302249 0.0
532 1 32.5608460569 83.2791302249 0.0
533 1 37.8742460569 83.5563302249 0.0
534 1 43.0509460569 83.4734302249 0.0
535 1 48.5048460569 82.6300302249 0.0
536 1 53.4628460569 79.7060302249 0.0
537 1 57.9071460569 82.8397302249 0.0
538 1 63.1409460569 83.0751302249 0.0
539 1 68.3920460569 82.9815302249 0.0
540 1 74.0140460569 82.6404302249 0.0
541 2 3.08184605691 83.3194302249 0.0
542 2 4.29265605691 0.926681224878 0.0
543 2 1.37101605691 0.578723224878 0.0
544 2 8.53264605691 83.1764302249 0.0
545 2 10.0503460569 0.472011224878 0.0
546 2 7.15037605691 0.846874224878 0.0
547 2 11.4930460569 2.21925022488 0.0
548 2 12.6126460569 4.45733022488 0.0
549 2 9.93564605691 4.32260022488 0.0
550 2 16.7545460569 2.40795022488 0.0
551 2 17.9101460569 4.59403022488 0.0
552 2 15.2269460569 4.67569022488 0.0
553 2 20.4342460569 0.956966924878 0.0
554 2 22.3374460569 2.90513022488 0.0
555 2 20.1117460569 3.63406022488 0.0
556 2 26.3953460569 0.0147802248784 0.0
557 2 27.1064460569 2.12845022488 0.0
558 2 24.7012460569 2.37776022488 0.0
559 2 31.7152460569 2.81440022488 0.0
560 2 31.9564460569 0.213175224878 0.0
561 2 29.6988460569 1.87275322488 0.0
562 2 37.7323460569 0.641722224878 0.0
563 2 36.2447460569 2.97355022488 0.0
564 2 38.4705460569 3.33547022488 0.0
565 2 43.2520460569 0.532912224878 0.0
566 2 45.1542460569 2.16074022488 0.0
567 2 42.8779460569 3.26814022488 0.0
568 2 48.9691460569 84.0623302249 0.0
569 2 50.5045460569 1.97405222488 0.0
570 2 47.9274460569 1.77623922488 0.0
571 2 54.2315460569 83.6403302249 0.0
572 2 52.8616460569 1.76382822488 0.0
573 2 55.3743460569 1.08134792488 0.0
574 2 57.2566460569 2.66035022488 0.0
575 2 59.2208460569 3.75133022488 0.0
576 2 56.9274460569 5.35446022488 0.0
577 2 63.0394460569 0.143691224878 0.0
578 2 64.5360460569 2.00213022488 0.0
579 2 61.8665460569 2.59786022488 0.0
580 2 68.6578460569 0.0344602248784 0.0
581 2 70.1778460569 2.34521022488 0.0
582 2 67.4318460569 1.98521922488 0.0
583 2 75.1796460569 1.92946922488 0.0
584 2 74.8803460569 83.8911302249 0.0
585 2 75.3584460569 4.45706022488 0.0
586 2 1.77576605691 5.75780022488 0.0
587 2 75.8764460569 7.09442022488 0.0
588 2 4.45218605691 5.30043022488 0.0
589 2 7.14892605691 4.74940022488 0.0
590 2 5.66338605691 2.91258022488 0.0
591 2 8.83854605691 6.54555022488 0.0
592 2 10.6590460569 8.01973022488 0.0
593 2 7.82683605691 8.80086022488 0.0
594 2 12.9582460569 9.12346022488 0.0
595 2 15.0277460569 11.0674302249 0.0
596 2 12.8159460569 11.7010302249 0.0
597 2 20.3795460569 6.09885022488 0.0
598 2 21.4132460569 8.59936022488 0.0
599 2 23.0106460569 6.83874022488 0.0
600 2 24.1748460569 4.93267022488 0.0
601 2 25.8312460569 7.09679022488 0.0
602 2 30.9312460569 5.13317022488 0.0
603 2 28.8474460569 4.15572022488 0.0
604 2 28.3760460569 6.53772022488 0.0
605 2 34.9934460569 5.47939022488 0.0
606 2 36.2575460569 7.20819022488 0.0
607 2 33.5663460569 7.86095022488 0.0
608 2 40.7167460569 4.65741022488 0.0
609 2 38.5399460569 6.00339022488 0.0
610 2 46.7972460569 3.98407022488 0.0
611 2 48.0579460569 6.36181022488 0.0
612 2 45.5267460569 6.15235022488 0.0
613 2 51.8799460569 4.33743022488 0.0
614 2 50.5297460569 6.57280022488 0.0
615 2 52.7740460569 7.07521022488 0.0
616 2 57.3580460569 7.75424022488 0.0
617 2 54.9792460569 7.51396022488 0.0
618 2 60.8015460569 5.10799022488 0.0
619 2 62.1701460569 6.98890022488 0.0
620 2 59.6815460569 7.67088022488 0.0
621 2 65.9422460569 3.92042022488 0.0
622 2 67.1129460569 6.27053022488 0.0
623 2 64.7086460569 6.31231022488 0.0
624 2 71.2148460569 4.75732022488 0.0
625 2 69.6178460569 6.75123022488 0.0
626 2 71.8220460569 7.52864022488 0.0
627 2 4.98555605691 9.31848022488 0.0
628 2 3.31014605691 7.70067022488 0.0
629 2 2.39177605691 10.2879102249 0.0
630 2 6.44395605691 11.0183802249 0.0
631 2 7.92700605691 12.8571302249 0.0
632 2 5.57265605691 13.7476302249 0.0
633 2 13.3841460569 14.0654302249 0.0
634 2 10.7535460569 13.2668302249 0.0
635 2 17.6529460569 11.9715302249 0.0
636 2 15.5957460569 13.4627302249 0.0
637 2 22.5220460569 11.1372302249 0.0
638 2 24.6477460569 13.0553302249 0.0
639 2 22.2203460569 13.5211302249 0.0
640 2 29.0644460569 10.9687902249 0.0
641 2 28.3323460569 8.66268022488 0.0
642 2 31.0413460569 9.20041022488 0.0
643 2 33.5265460569 10.1430302249 0.0
644 2 37.7811460569 8.79339022488 0.0
645 2 38.7959460569 10.9905802249 0.0
646 2 36.0629460569 10.7802202249 0.0
647 2 44.2087460569 10.7190802249 0.0
648 2 44.6533460569 8.30997022488 0.0
649 2 46.7613460569 10.0041502249 0.0
650 2 48.8392460569 8.75859022488 0.0
651 2 49.1903460569 11.3452302249 0.0
652 2 53.4143460569 9.81406022488 0.0
653 2 53.7740460569 12.6782302249 0.0
654 2 51.6404460569 11.8098302249 0.0
655 2 58.4945460569 10.1637802249 0.0
656 2 60.1555460569 11.8187302249 0.0
657 2 57.9158460569 12.9702302249 0.0
658 2 62.8334460569 11.1817302249 0.0
659 2 65.5138460569 10.2507802249 0.0
660 2 63.7854460569 8.80237022488 0.0
661 2 67.7733460569 11.2537302249 0.0
662 2 70.0426460569 12.0584302249 0.0
663 2 68.0299460569 13.8551302249 0.0
664 2 74.0105460569 8.72588022488 0.0
665 2 71.9932460569 10.2715202249 0.0
666 2 75.9835460569 15.3231302249 0.0
667 2 1.58772605691 17.1100302249 0.0
668 2 75.2019460569 18.0358302249 0.0
669 2 6.48666605691 15.8464302249 0.0
670 2 4.03596605691 16.2443302249 0.0
671 2 8.84254605691 17.3538302249 0.0
672 2 11.2934460569 18.5223302249 0.0
673 2 9.04934605691 19.8102302249 0.0
674 2 15.1388460569 16.1564302249 0.0
675 2 16.8759460569 18.0975302249 0.0
676 2 14.1141460569 18.3622302249 0.0
677 2 21.0232460569 15.8877302249 0.0
678 2 22.4345460569 18.0476302249 0.0
679 2 19.6783460569 17.9545302249 0.0
680 2 26.0340460569 15.3259302249 0.0
681 2 27.7090460569 17.1642302249 0.0
682 2 25.0451460569 17.7513302249 0.0
683 2 29.6217460569 13.4536302249 0.0
684 2 32.0561460569 14.2828302249 0.0
685 2 29.9334460569 15.9404302249 0.0
686 2 34.2872460569 15.2940302249 0.0
687 2 36.5106460569 16.6124302249 0.0
688 2 34.5950460569 18.0434302249 0.0
689 2 39.9361460569 13.2115302249 0.0
690 2 41.5777460569 14.8578302249 0.0
691 2 39.0231460569 15.7443302249 0.0
692 2 43.1869460569 18.3121302249 0.0
693 2 43.8106460569 15.9880302249 0.0
694 2 45.8958460569 17.1802302249 0.0
695 2 50.0688460569 13.9210302249 0.0
696 2 51.3157460569 16.1702302249 0.0
697 2 48.6407460569 16.1519302249 0.0
698 2 55.7957460569 14.2845302249 0.0
699 2 53.5681460569 15.4510302249 0.0
700 2 61.9151460569 13.5283302249 0.0
701 2 63.4815460569 15.5470302249 0.0
702 2 60.7792460569 15.7369302249 0.0
703 2 69.0110460569 15.9091302249 0.0
704 2 66.2207460569 15.8106302249 0.0
705 2 72.1360460569 13.0434302249 0.0
706 2 74.1709460569 14.1302302249 0.0
707 2 71.6365460569 15.5558302249 0.0
708 2 3.35202605691 18.8822302249 0.0
709 2 4.61129605691 21.3088302249 0.0
710 2 2.03724605691 21.0059302249 0.0
711 2 10.0262460569 21.7069302249 0.0
712 2 7.18817605691 21.7733302249 0.0
713 2 12.4755460569 22.8542302249 0.0
714 2 14.9277460569 23.4785302249 0.0
715 2 12.8200460569 25.2617302249 0.0
716 2 18.5731460569 20.0575302249 0.0
717 2 20.1996460569 22.2029302249 0.0
718 2 17.5813460569 22.3267302249 0.0
719 2 24.0051460569 20.1395302249 0.0
720 2 25.5576460569 22.2152302249 0.0
721 2 22.8449460569 22.3921302249 0.0
722 2 32.7523460569 19.5351302249 0.0
723 2 30.5800460569 20.8109302249 0.0
724 2 30.2283460569 18.3741302249 0.0
725 2 35.3441460569 20.5567302249 0.0
726 2 38.4453460569 18.2434302249 0.0
727 2 40.4547460569 19.4148302249 0.0
728 2 37.8401460569 20.6828302249 0.0
729 2 42.3406460569 20.6640302249 0.0
730 2 44.3260460569 21.8562302249 0.0
731 2 42.2424460569 23.4431302249 0.0
732 2 47.8564460569 18.4737302249 0.0
733 2 49.5476460569 20.5415302249 0.0
734 2 46.9561460569 20.8074302249 0.0
735 2 53.1591460569 18.2098302249 0.0
736 2 54.5790460569 20.7415302249 0.0
737 2 52.1498460569 20.5463302249 0.0
738 2 59.6342460569 20.3567302249 0.0
739 2 59.9476460569 17.8989302249 0.0
740 2 62.1865460569 19.2638302249 0.0
741 2 64.2593460569 17.6830302249 0.0
742 2 65.0654460569 19.7433302249 0.0
743 2 67.8992460569 19.7682302249 0.0
744 2 70.5916460569 20.1639302249 0.0
745 2 69.9496460569 17.9120302249 0.0
746 2 75.5763460569 20.4749302249 0.0
747 2 73.1717460569 20.1212302249 0.0
748 2 0.249466056913 22.9775302249 0.0
749 2 1.21773605691 25.2649302249 0.0
750 2 74.6561460569 25.1630302249 0.0
751 2 5.62040605691 23.7743302249 0.0
752 2 3.90152605691 25.6033302249 0.0
753 2 6.20135605691 26.5162302249 0.0
754 2 13.6403460569 27.3493302249 0.0
755 2 10.9954460569 27.3972302249 0.0
756 2 16.8633460569 24.6849302249 0.0
757 2 18.8220460569 25.9721302249 0.0
758 2 16.2438460569 27.1292302249 0.0
759 2 20.6502460569 27.2505302249 0.0
760 2 22.4481460569 28.6319302249 0.0
761 2 20.1565460569 30.0036302249 0.0
762 2 27.5159460569 26.8087302249 0.0
763 2 27.4148460569 24.2078302249 0.0
764 2 29.7024460569 25.3613302249 0.0
765 2 32.4387460569 25.6114302249 0.0
766 2 30.6795460569 23.4211302249 0.0
767 2 36.3090460569 22.9827302249 0.0
768 2 37.5475460569 25.0894302249 0.0
769 2 34.9572460569 25.4352302249 0.0
770 2 43.0254460569 25.7980302249 0.0
771 2 40.3477460569 25.2372302249 0.0
772 2 46.2104460569 23.2159302249 0.0
773 2 48.1361460569 24.3835302249 0.0
774 2 45.5688460569 25.6703302249 0.0
775 2 50.0429460569 25.4866302249 0.0
776 2 51.9217460569 26.9137302249 0.0
777 2 49.7528460569 28.2871302249 0.0
778 2 55.4399460569 23.3808302249 0.0
779 2 56.7644460569 25.6745302249 0.0
780 2 54.4024460569 25.9960302249 0.0
781 2 59.3881460569 22.8066302249 0.0
782 2 59.1593460569 25.3260302249 0.0
783 2 61.5957460569 24.2839302249 0.0
784 2 66.1467460569 21.7773302249 0.0
785 2 67.0264460569 24.0639302249 0.0
786 2 64.3785460569 23.8168302249 0.0