ITEM: TIMESTEP
0
ITEM: NUMBER OF ATOMS
1350
ITEM: BOX BOUNDS xy xz yz pp pp pp
0.0 77.692715736 0
0.0 82.0306616228 0
-10.0 10.0 0
ITEM: ATOMS id type x y z vx vy vz
1 1 2.21751564484 2.34395081138 0.0 0.0 0.0 0.0
2 1 6.62514564484 3.04587081138 0.0 0.0 0.0 0.0
3 1 12.7044956448 2.05743081138 0.0 0.0 0.0 0.0
4 1 17.5106956448 0.542723811381 0.0 0.0 0.0 0.0
5 1 23.0940956448 81.9441308114 0.0 0.0 0.0 0.0
6 1 29.9136956448 81.4938308114 0.0 0.0 0.0 0.0
7 1 32.9484956448 81.7337308114 0.0 0.0 0.0 0.0
8 1 37.3164956448 80.3917308114 0.0 0.0 0.0 0.0
9 1 46.1671956448 0.778981811381 0.0 0.0 0.0 0.0
10 1 50.1565956448 1.54616081138 0.0 0.0 0.0 0.0
11 1 55.2156956448 1.68573081138 0.0 0.0 0.0 0.0
12 1 60.0980956448 2.00400081138 0.0 0.0 0.0 0.0
13 1 65.6299956448 2.25616081138 0.0 0.0 0.0 0.0
14 1 72.6875956448 3.84255081138 0.0 0.0 0.0 0.0
15 1 76.9356956448 2.31910081138 0.0 0.0 0.0 0.0
16 1 76.7562956448 7.62325081138 0.0 0.0 0.0 0.0
17 1 4.25060564484 7.69879081138 0.0 0.0 0.0 0.0
18 1 8.31311564484 5.52164081138 0.0 0.0 0.0 0.0
19 1 17.4465956448 5.20638081138 0.0 0.0 0.0 0.0
20 1 20.3138956448 4.35195081138 0.0 0.0 0.0 0.0
21 1 24.7190956448 4.54924081138 0.0 0.0 0.0 0.0
22 1 29.9921956448 4.80982081138 0.0 0.0 0.0 0.0
23 1 37.2270956448 3.67198081138 0.0 0.0 0.0 0.0
24 1 42.8942956448 4.14345081138 0.0 0.0 0.0 0.0
25 1 45.6252956448 5.49354081138 0.0 0.0 0.0 0.0
26 1 51.9717956448 6.12765081138 0.0 0.0 0.0 0.0
27 1 57.0006956448 6.53722081138 0.0 0.0 0.0 0.0
28 1 62.1067956448 6.19336081138 0.0 0.0 0.0 0.0
29 1 65.6996956448 9.92403081138 0.0 0.0 0.0 0.0
30 1 69.1147956448 7.11215081138 0.0 0.0 0.0 0.0
31 1 2.35841564484 14.2284308114 0.0 0.0 0.0 0.0
32 1 9.20375564484 10.6039308114 0.0 0.0 0.0 0.0
33 1 12.1938956448 10.1319308114 0.0 0.0 0.0 0.0
34 1 17.8731956448 11.9385308114 0.0 0.0 0.0 0.0
35 1 23.0436956448 9.44420081138 0.0 0.0 0.0 0.0
36 1 28.9175956448 9.74275081138 0.0 0.0 0.0 0.0
37 1 31.9322956448 9.41955081138 0.0 0.0 0.0 0.0
38 1 37.5486956448 8.55933081138 0.0 0.0 0.0 0.0
39 1 42.7037956448 10.1597308114 0.0 0.0 0.0 0.0
40 1 46.9670956448 8.21137081138 0.0 0.0 0.0 0.0
41 1 53.3595956448 13.0371308114 0.0 0.0 0.0 0.0
42 1 60.3978956448 10.8122308114 0.0 0.0 0.0 0.0
43 1 64.1032956448 14.5394308114 0.0 0.0 0.0 0.0
44 1 69.7628956448 12.8920308114 0.0 0.0 0.0 0.0
45 1 75.0307956448 11.8960308114 0.0 0.0 0.0 0.0
46 1 1.00399564484 16.9349308114 0.0 0.0 0.0 0.0
47 1 6.07418564484 17.3307308114 0.0 0.0 0.0 0.0
48 1 10.5711956448 15.4589308114 0.0 0.0 0.0 0.0
49 1 16.3591956448 14.5503308114 0.0 0.0 0.0 0.0
50 1 21.7482956448 14.5796308114 0.0 0.0 0.0 0.0
51 1 26.2827956448 14.8682308114 0.0 0.0 0.0 0.0
52 1 30.6324956448 14.4178308114 0.0 0.0 0.0 0.0
53 1 34.0129956448 11.6517308114 0.0 0.0 0.0 0.0
54 1 41.7668956448 13.0227308114 0.0 0.0 0.0 0.0
55 1 46.9721956448 13.7131308114 0.0 0.0 0.0 0.0
56 1 52.1144956448 15.7682308114 0.0 0.0 0.0 0.0
57 1 56.0679956448 14.3174308114 0.0 0.0 0.0 0.0
58 1 59.6405956448 17.9789308114 0.0 0.0 0.0 0.0
59 1 68.0990956448 17.2662308114 0.0 0.0 0.0 0.0
60 1 73.3565956448 16.7221308114 0.0 0.0 0.0 0.0
61 1 3.17446564484 21.7140308114 0.0 0.0 0.0 0.0
62 1 10.2414956448 20.7746308114 0.0 0.0 0.0 0.0
63 1 14.3534956448 18.7032308114 0.0 0.0 0.0 0.0
64 1 19.3237956448 18.8389308114 0.0 0.0 0.0 0.0
65 1 25.6130956448 19.2506308114 0.0 0.0 0.0 0.0
66 1 28.6226956448 19.6209308114 0.0 0.0 0.0 0.0
67 1 33.7092956448 17.6519308114 0.0 0.0 0.0 0.0
68 1 38.8709956448 16.9696308114 0.0 0.0 0.0 0.0
69 1 43.9999956448 17.8301308114 0.0 0.0 0.0 0.0
70 1 49.0471956448 19.0214308114 0.0 0.0 0.0 0.0
71 1 56.9066956448 19.2965308114 0.0 0.0 0.0 0.0
72 1 62.4412956448 19.0372308114 0.0 0.0 0.0 0.0
73 1 65.9393956448 21.5281308114 0.0 0.0 0.0 0.0
74 1 71.0725956448 21.4457308114 0.0 0.0 0.0 0.0
75 1 75.6686956448 21.2752308114 0.0 0.0 0.0 0.0
76 1 1.59874564484 25.7391308114 0.0 0.0 0.0 0.0
77 1 4.31403564484 24.4787308114 0.0 0.0 0.0 0.0
78 1 9.70429564484 23.7066308114 0.0 0.0 0.0 0.0
79 1 15.6351956448 23.1970308114 0.0 0.0 0.0 0.0
80 1 20.1413956448 23.8226308114 0.0 0.0 0.0 0.0
81 1 23.3565956448 27.6319308114 0.0 0.0 0.0 0.0
82 1 33.4287956448 22.2836308114 0.0 0.0 0.0 0.0
83 1 36.4296956448 21.8282308114 0.0 0.0 0.0 0.0
84 1 41.7402956448 21.8750308114 0.0 0.0 0.0 0.0
85 1 46.7095956448 24.8280308114 0.0 0.0 0.0 0.0
86 1 49.6490956448 24.1694308114 0.0 0.0 0.0 0.0
87 1 53.5033956448 23.0430308114 0.0 0.0 0.0 0.0
88 1 61.7353956448 24.6487308114 0.0 0.0 0.0 0.0
89 1 67.5978956448 25.8648308114 0.0 0.0 0.0 0.0
90 1 73.0159956448 26.3143308114 0.0 0.0 0.0 0.0
91 1 2.18105564484 31.0777308114 0.0 0.0 0.0 0.0
92 1 10.9565956448 29.9047308114 0.0 0.0 0.0 0.0
93 1 13.5186956448 28.3462308114 0.0 0.0 0.0 0.0
94 1 18.6763956448 28.3276308114 0.0 0.0 0.0 0.0
95 1 26.3560956448 27.5234308114 0.0 0.0 0.0 0.0
96 1 29.7351956448 28.9786308114 0.0 0.0 0.0 0.0
97 1 34.0606956448 26.7269308114 0.0 0.0 0.0 0.0
98 1 39.3321956448 26.3200308114 0.0 0.0 0.0 0.0
99 1 43.9662956448 29.2267308114 0.0 0.0 0.0 0.0
100 1 47.8874956448 30.5772308114 0.0 0.0 0.0 0.0
101 1 52.7825956448 28.7833308114 0.0 0.0 0.0 0.0
102 1 58.2242956448 27.3353308114 0.0 0.0 0.0 0.0
103 1 63.9742956448 28.7354308114 0.0 0.0 0.0 0.0
104 1 69.4041956448 30.3400308114 0.0 0.0 0.0 0.0
105 1 74.6932956448 31.3856308114 0.0 0.0 0.0 0.0
106 1 77.3998956448 35.7047308114 0.0 0.0 0.0 0.0
107 1 4.05278564484 33.4473308114 0.0 0.0 0.0 0.0
108 1 11.5289956448 34.9396308114 0.0 0.0 0.0 0.0
109 1 16.7858956448 32.8401308114 0.0 0.0 0.0 0.0
110 1 21.9924956448 32.8556308114 0.0 0.0 0.0 0.0
111 1 26.7549956448 33.4068308114 0.0 0.0 0.0 0.0
112 1 32.3554956448 32.3117308114 0.0 0.0 0.0 0.0
113 1 37.2802956448 30.9060308114 0.0 0.0 0.0 0.0
114 1 41.0737956448 34.6268308114 0.0 0.0 0.0 0.0
115 1 46.0034956448 34.8286308114 0.0 0.0 0.0 0.0
116 1 49.5104956448 33.1255308114 0.0 0.0 0.0 0.0
117 1 55.7222956448 32.1022308114 0.0 0.0 0.0 0.0
118 1 61.0199956448 31.5704308114 0.0 0.0 0.0 0.0
119 1 66.2409956448 33.5190308114 0.0 0.0 0.0 0.0
120 1 70.2762956448 33.2358308114 0.0 0.0 0.0 0.0
121 1 2.67389564484 39.1331308114 0.0 0.0 0.0 0.0
122 1 8.94788564484 39.2939308114 0.0 0.0 0.0 0.0
123 1 16.3256956448 37.2489308114 0.0 0.0 0.0 0.0
124 1 19.3288956448 37.4131308114 0.0 0.0 0.0 0.0
125 1 24.5956956448 38.0381308114 0.0 0.0 0.0 0.0
126 1 31.7367956448 36.0220308114 0.0 0.0 0.0 0.0
127 1 34.7312956448 36.0397308114 0.0 0.0 0.0 0.0
128 1 39.4922956448 37.1725308114 0.0 0.0 0.0 0.0
129 1 44.3248956448 39.3480308114 0.0 0.0 0.0 0.0
130 1 49.1715956448 39.0990308114 0.0 0.0 0.0 0.0
131 1 53.9816956448 37.4963308114 0.0 0.0 0.0 0.0
132 1 58.4574956448 36.1094308114 0.0 0.0 0.0 0.0
133 1 62.1739956448 38.7215308114 0.0 0.0 0.0 0.0
134 1 68.0788956448 38.5958308114 0.0 0.0 0.0 0.0
135 1 74.6513956448 39.6754308114 0.0 0.0 0.0 0.0
136 1 1.16039564484 43.0731308114 0.0 0.0 0.0 0.0
137 1 4.58389564484 41.4660308114 0.0 0.0 0.0 0.0
138 1 11.1794956448 43.1380308114 0.0 0.0 0.0 0.0
139 1 16.4210956448 42.2546308114 0.0 0.0 0.0 0.0
140 1 20.7301956448 40.1163308114 0.0 0.0 0.0 0.0
141 1 28.4607956448 41.9688308114 0.0 0.0 0.0 0.0
142 1 31.3876956448 41.3784308114 0.0 0.0 0.0 0.0
143 1 36.1490956448 41.2367308114 0.0 0.0 0.0 0.0
144 1 39.8672956448 44.4156308114 0.0 0.0 0.0 0.0
145 1 46.4228956448 44.1258308114 0.0 0.0 0.0 0.0
146 1 52.8491956448 42.8950308114 0.0 0.0 0.0 0.0
147 1 61.3098956448 42.4450308114 0.0 0.0 0.0 0.0
148 1 59.4710956448 40.0752308114 0.0 0.0 0.0 0.0
149 1 67.1126956448 43.1704308114 0.0 0.0 0.0 0.0
150 1 74.0904956448 44.3536308114 0.0 0.0 0.0 0.0
151 1 5.10620564484 47.1393308114 0.0 0.0 0.0 0.0
152 1 8.07687564484 47.6903308114 0.0 0.0 0.0 0.0
153 1 14.0794956448 46.9790308114 0.0 0.0 0.0 0.0
154 1 19.7972956448 45.7891308114 0.0 0.0 0.0 0.0
155 1 24.2577956448 46.8916308114 0.0 0.0 0.0 0.0
156 1 29.7425956448 46.8481308114 0.0 0.0 0.0 0.0
157 1 32.5982956448 45.8948308114 0.0 0.0 0.0 0.0
158 1 37.4193956448 46.0997308114 0.0 0.0 0.0 0.0
159 1 41.7715956448 46.7086308114 0.0 0.0 0.0 0.0
160 1 48.4699956448 46.3324308114 0.0 0.0 0.0 0.0
161 1 54.8222956448 45.1930308114 0.0 0.0 0.0 0.0
162 1 61.2540956448 47.8980308114 0.0 0.0 0.0 0.0
163 1 66.1412956448 46.0114308114 0.0 0.0 0.0 0.0
164 1 74.1669956448 47.3498308114 0.0 0.0 0.0 0.0
165 1 76.9973956448 48.3333308114 0.0 0.0 0.0 0.0
166 1 0.715525644843 53.7580308114 0.0 0.0 0.0 0.0
167 1 6.37665564484 51.7888308114 0.0 0.0 0.0 0.0
168 1 9.11562564484 50.5533308114 0.0 0.0 0.0 0.0
169 1 16.2476956448 49.8971308114 0.0 0.0 0.0 0.0
170 1 20.8656956448 51.1857308114 0.0 0.0 0.0 0.0
171 1 25.7320956448 52.2075308114 0.0 0.0 0.0 0.0
172 1 32.4606956448 54.7560308114 0.0 0.0 0.0 0.0
173 1 36.8454956448 50.0649308114 0.0 0.0 0.0 0.0
174 1 40.9815956448 53.0468308114 0.0 0.0 0.0 0.0
175 1 45.2689956448 49.6725308114 0.0 0.0 0.0 0.0
176 1 53.2997956448 50.8488308114 0.0 0.0 0.0 0.0
177 1 58.6989956448 52.3588308114 0.0 0.0 0.0 0.0
178 1 63.7761956448 51.2967308114 0.0 0.0 0.0 0.0
179 1 68.0931956448 50.7994308114 0.0 0.0 0.0 0.0
180 1 72.6510956448 53.7802308114 0.0 0.0 0.0 0.0
181 1 1.29137564484 56.7346308114 0.0 0.0 0.0 0.0
182 1 8.44730564484 57.0457308114 0.0 0.0 0.0 0.0
183 1 13.5061956448 54.7314308114 0.0 0.0 0.0 0.0
184 1 16.5242956448 54.7904308114 0.0 0.0 0.0 0.0
185 1 21.1354956448 54.1851308114 0.0 0.0 0.0 0.0
186 1 27.8724956448 54.3191308114 0.0 0.0 0.0 0.0
187 1 35.5875956448 57.4710308114 0.0 0.0 0.0 0.0
188 1 40.8168956448 56.0355308114 0.0 0.0 0.0 0.0
189 1 45.3534956448 55.1159308114 0.0 0.0 0.0 0.0
190 1 50.2329956448 54.5135308114 0.0 0.0 0.0 0.0
191 1 54.5107956448 53.6615308114 0.0 0.0 0.0 0.0
192 1 61.5778956448 56.2871308114 0.0 0.0 0.0 0.0
193 1 67.8963956448 55.4956308114 0.0 0.0 0.0 0.0
194 1 70.8036956448 56.1240308114 0.0 0.0 0.0 0.0
195 1 74.8472956448 57.4087308114 0.0 0.0 0.0 0.0
196 1 76.3777956448 64.5926308114 0.0 0.0 0.0 0.0
197 1 6.82669564484 61.9954308114 0.0 0.0 0.0 0.0
198 1 9.78899564484 61.3905308114 0.0 0.0 0.0 0.0
199 1 16.3230956448 59.5629308114 0.0 0.0 0.0 0.0
200 1 19.3672956448 59.3778308114 0.0 0.0 0.0 0.0
201 1 24.9462956448 59.5486308114 0.0 0.0 0.0 0.0
202 1 31.7921956448 60.6978308114 0.0 0.0 0.0 0.0
203 1 40.0138956448 60.5785308114 0.0 0.0 0.0 0.0
204 1 43.0300956448 60.4151308114 0.0 0.0 0.0 0.0
205 1 49.5803956448 59.1411308114 0.0 0.0 0.0 0.0
206 1 52.6153956448 59.1574308114 0.0 0.0 0.0 0.0
207 1 59.5057956448 60.5411308114 0.0 0.0 0.0 0.0
208 1 64.4552956448 61.0769308114 0.0 0.0 0.0 0.0
209 1 67.4480956448 61.2526308114 0.0 0.0 0.0 0.0
210 1 72.5109956448 61.7354308114 0.0 0.0 0.0 0.0
211 1 1.61227564484 67.8120308114 0.0 0.0 0.0 0.0
212 1 6.23567564484 66.6290308114 0.0 0.0 0.0 0.0
213 1 11.7340956448 65.8980308114 0.0 0.0 0.0 0.0
214 1 16.9996956448 64.9065308114 0.0 0.0 0.0 0.0
215 1 23.7212956448 63.2737308114 0.0 0.0 0.0 0.0
216 1 26.5109956448 62.1188308114 0.0 0.0 0.0 0.0
217 1 33.5158956448 64.9158308114 0.0 0.0 0.0 0.0
218 1 38.7061956448 65.0046308114 0.0 0.0 0.0 0.0
219 1 44.1280956448 65.0412308114 0.0 0.0 0.0 0.0
220 1 50.5100956448 64.0733308114 0.0 0.0 0.0 0.0
221 1 53.5023956448 64.5010308114 0.0 0.0 0.0 0.0
222 1 58.2195956448 65.4689308114 0.0 0.0 0.0 0.0
223 1 63.3022956448 65.1433308114 0.0 0.0 0.0 0.0
224 1 69.0637956448 66.0256308114 0.0 0.0 0.0 0.0
225 1 74.3600956448 66.8659308114 0.0 0.0 0.0 0.0
226 1 76.3693956448 71.9447308114 0.0 0.0 0.0 0.0
227 1 4.36441564484 71.9751308114 0.0 0.0 0.0 0.0
228 1 9.28199564484 70.4259308114 0.0 0.0 0.0 0.0
229 1 14.2891956448 69.7358308114 0.0 0.0 0.0 0.0
230 1 19.3028956448 68.9948308114 0.0 0.0 0.0 0.0
231 1 24.2608956448 68.8696308114 0.0 0.0 0.0 0.0
232 1 30.5111956448 68.5709308114 0.0 0.0 0.0 0.0
233 1 35.9770956448 69.4377308114 0.0 0.0 0.0 0.0
234 1 41.0709956448 69.3321308114 0.0 0.0 0.0 0.0
235 1 45.7715956448 70.0050308114 0.0 0.0 0.0 0.0
236 1 50.6908956448 69.4974308114 0.0 0.0 0.0 0.0
237 1 55.8299956448 69.8282308114 0.0 0.0 0.0 0.0
238 1 62.5430956448 69.4629308114 0.0 0.0 0.0 0.0
239 1 65.5792956448 69.4340308114 0.0 0.0 0.0 0.0
240 1 70.9325956448 70.8595308114 0.0 0.0 0.0 0.0
241 1 1.91146564484 75.9935308114 0.0 0.0 0.0 0.0
242 1 9.19956564484 75.0179308114 0.0 0.0 0.0 0.0
243 1 12.1921956448 74.6811308114 0.0 0.0 0.0 0.0
244 1 17.1855956448 73.9060308114 0.0 0.0 0.0 0.0
245 1 22.3939956448 73.5411308114 0.0 0.0 0.0 0.0
246 1 25.9853956448 71.3852308114 0.0 0.0 0.0 0.0
247 1 33.2341956448 73.1509308114 0.0 0.0 0.0 0.0
248 1 38.5131956448 73.9597308114 0.0 0.0 0.0 0.0
249 1 43.3058956448 74.4802308114 0.0 0.0 0.0 0.0
250 1 48.8487956448 74.3892308114 0.0 0.0 0.0 0.0
251 1 54.0683956448 75.9696308114 0.0 0.0 0.0 0.0
252 1 59.0972956448 76.5683308114 0.0 0.0 0.0 0.0
253 1 63.4693956448 74.0190308114 0.0 0.0 0.0 0.0
254 1 68.3914956448 76.4485308114 0.0 0.0 0.0 0.0
255 1 73.8768956448 75.6421308114 0.0 0.0 0.0 0.0
256 1 75.4946956448 4.90952081138 0.0 0.0 0.0 0.0
257 1 4.10248564484 4.67821081138 0.0 0.0 0.0 0.0
258 1 11.1665956448 4.62714081138 0.0 0.0 0.0 0.0
259 1 15.6055956448 2.84997081138 0.0 0.0 0.0 0.0
260 1 20.4263956448 1.33758081138 0.0 0.0 0.0 0.0
261 1 25.5473956448 1.67390081138 0.0 0.0 0.0 0.0
262 1 28.5431956448 2.13867081138 0.0 0.0 0.0 0.0
263 1 35.7523956448 0.965210811381 0.0 0.0 0.0 0.0
264 1 43.2032956448 1.14983081138 0.0 0.0 0.0 0.0
265 1 47.7235956448 3.32370081138 0.0 0.0 0.0 0.0
266 1 52.6346956448 3.20695081138 0.0 0.0 0.0 0.0
267 1 57.5402956448 3.57788081138 0.0 0.0 0.0 0.0
268 1 62.8018956448 3.28173081138 0.0 0.0 0.0 0.0
269 1 67.0809956448 4.89537081138 0.0 0.0 0.0 0.0
270 1 72.0803956448 6.78566081138 0.0 0.0 0.0 0.0
271 1 1.62468564484 9.19279081138 0.0 0.0 0.0 0.0
272 1 7.20605564484 8.32565081138 0.0 0.0 0.0 0.0
273 1 12.7224956448 7.18065081138 0.0 0.0 0.0 0.0
274 1 15.6745956448 7.59865081138 0.0 0.0 0.0 0.0
275 1 22.4239956448 6.48811081138 0.0 0.0 0.0 0.0
276 1 27.2701956448 6.10311081138 0.0 0.0 0.0 0.0
277 1 32.5598956448 6.45868081138 0.0 0.0 0.0 0.0
278 1 35.5922956448 6.22382081138 0.0 0.0 0.0 0.0
279 1 39.9945956448 5.01239081138 0.0 0.0 0.0 0.0
280 1 49.9809956448 8.36840081138 0.0 0.0 0.0 0.0
281 1 54.3484956448 7.94358081138 0.0 0.0 0.0 0.0
282 1 59.6567956448 7.91558081138 0.0 0.0 0.0 0.0
283 1 64.9705956448 7.02523081138 0.0 0.0 0.0 0.0
284 1 68.6833956448 10.0895308114 0.0 0.0 0.0 0.0
285 1 74.1088956448 9.02951081138 0.0 0.0 0.0 0.0
286 1 0.377655644843 11.9429308114 0.0 0.0 0.0 0.0
287 1 5.39417564484 14.4038308114 0.0 0.0 0.0 0.0
288 1 8.27933564484 13.4713308114 0.0 0.0 0.0 0.0
289 1 15.1941956448 10.5448308114 0.0 0.0 0.0 0.0
290 1 20.9276956448 11.6599308114 0.0 0.0 0.0 0.0
291 1 26.0352956448 8.84142081138 0.0 0.0 0.0 0.0
292 1 28.2445956448 12.6377308114 0.0 0.0 0.0 0.0
293 1 37.0222956448 11.5334308114 0.0 0.0 0.0 0.0
294 1 40.5192956448 8.00679081138 0.0 0.0 0.0 0.0
295 1 45.6629956448 10.9331308114 0.0 0.0 0.0 0.0
296 1 52.3736956448 10.1990308114 0.0 0.0 0.0 0.0
297 1 58.9329956448 13.4137308114 0.0 0.0 0.0 0.0
298 1 63.2714956448 11.6652308114 0.0 0.0 0.0 0.0
299 1 67.1476956448 14.4296308114 0.0 0.0 0.0 0.0
300 1 72.6671956448 13.7826308114 0.0 0.0 0.0 0.0
301 1 3.42101564484 18.7290308114 0.0 0.0 0.0 0.0
302 1 9.00122564484 18.0315308114 0.0 0.0 0.0 0.0
303 1 13.5903956448 15.7860308114 0.0 0.0 0.0 0.0
304 1 19.0440956448 15.8737308114 0.0 0.0 0.0 0.0
305 1 23.9290956448 16.6959308114 0.0 0.0 0.0 0.0
306 1 28.6819956448 16.6485308114 0.0 0.0 0.0 0.0
307 1 33.5987956448 14.6377308114 0.0 0.0 0.0 0.0
308 1 38.8912956448 13.9321308114 0.0 0.0 0.0 0.0
309 1 44.1804956448 14.8355308114 0.0 0.0 0.0 0.0
310 1 49.0893956448 15.9648308114 0.0 0.0 0.0 0.0
311 1 54.8510956448 17.0686308114 0.0 0.0 0.0 0.0
312 1 61.1920956448 15.3943308114 0.0 0.0 0.0 0.0
313 1 65.4071956448 18.5912308114 0.0 0.0 0.0 0.0
314 1 70.8779956448 18.4379308114 0.0 0.0 0.0 0.0
315 1 75.9645956448 18.2536308114 0.0 0.0 0.0 0.0
316 1 0.455735644843 22.9674308114 0.0 0.0 0.0 0.0
317 1 7.18218564484 25.3225308114 0.0 0.0 0.0 0.0
318 1 13.1652956448 21.4575308114 0.0 0.0 0.0 0.0
319 1 16.7974956448 20.4252308114 0.0 0.0 0.0 0.0
320 1 21.2799956448 21.0666308114 0.0 0.0 0.0 0.0
321 1 24.1533956448 21.8725308114 0.0 0.0 0.0 0.0
322 1 31.6384956448 19.8593308114 0.0 0.0 0.0 0.0
323 1 36.4853956448 18.8122308114 0.0 0.0 0.0 0.0
324 1 41.1979956448 18.9043308114 0.0 0.0 0.0 0.0
325 1 46.1630956448 19.9227308114 0.0 0.0 0.0 0.0
326 1 50.9180956448 21.4381308114 0.0 0.0 0.0 0.0
327 1 56.4590956448 22.3037308114 0.0 0.0 0.0 0.0
328 1 62.9943956448 21.9607308114 0.0 0.0 0.0 0.0
329 1 68.5243956448 23.0198308114 0.0 0.0 0.0 0.0
330 1 73.4325956448 23.3075308114 0.0 0.0 0.0 0.0
331 1 0.531625644843 28.5443308114 0.0 0.0 0.0 0.0
332 1 9.14221564484 27.5562308114 0.0 0.0 0.0 0.0
333 1 11.6843956448 25.9572308114 0.0 0.0 0.0 0.0
334 1 17.6374956448 25.4713308114 0.0 0.0 0.0 0.0
335 1 23.0181956448 24.6505308114 0.0 0.0 0.0 0.0
336 1 29.0066956448 26.0774308114 0.0 0.0 0.0 0.0
337 1 31.7542956448 24.7904308114 0.0 0.0 0.0 0.0
338 1 39.0811956448 23.3115308114 0.0 0.0 0.0 0.0
339 1 44.6987956448 22.5620308114 0.0 0.0 0.0 0.0
340 1 46.6262956448 27.8436308114 0.0 0.0 0.0 0.0
341 1 52.1904956448 25.7874308114 0.0 0.0 0.0 0.0
342 1 58.7052956448 24.3692308114 0.0 0.0 0.0 0.0
343 1 64.5559956448 25.8118308114 0.0 0.0 0.0 0.0
344 1 70.1924956448 27.4338308114 0.0 0.0 0.0 0.0
345 1 75.1958956448 28.4222308114 0.0 0.0 0.0 0.0
346 1 77.3721956448 32.7146308114 0.0 0.0 0.0 0.0
347 1 7.01670564484 33.9540308114 0.0 0.0 0.0 0.0
348 1 9.67709564484 32.5927308114 0.0 0.0 0.0 0.0
349 1 16.1142956448 29.8975308114 0.0 0.0 0.0 0.0
350 1 21.3125956448 29.8672308114 0.0 0.0 0.0 0.0
351 1 27.1324956448 30.4261308114 0.0 0.0 0.0 0.0
352 1 32.6792956448 29.3635308114 0.0 0.0 0.0 0.0
353 1 36.8035956448 27.9265308114 0.0 0.0 0.0 0.0
354 1 41.0096956448 28.8242308114 0.0 0.0 0.0 0.0
355 1 45.2246956448 31.9319308114 0.0 0.0 0.0 0.0
356 1 52.1867956448 31.7982308114 0.0 0.0 0.0 0.0
357 1 55.7661956448 29.0909308114 0.0 0.0 0.0 0.0
358 1 60.9642956448 28.5995308114 0.0 0.0 0.0 0.0
359 1 66.4072956448 30.5220308114 0.0 0.0 0.0 0.0
360 1 73.1747956448 33.9825308114 0.0 0.0 0.0 0.0
361 1 2.67446564484 36.1346308114 0.0 0.0 0.0 0.0
362 1 8.86160564484 36.3163308114 0.0 0.0 0.0 0.0
363 1 14.5412956448 34.8351308114 0.0 0.0 0.0 0.0
364 1 19.3964956448 34.3868308114 0.0 0.0 0.0 0.0
365 1 24.1801956448 34.9964308114 0.0 0.0 0.0 0.0
366 1 29.7457956448 33.7899308114 0.0 0.0 0.0 0.0
367 1 35.2414956448 33.1062308114 0.0 0.0 0.0 0.0
368 1 40.1677956448 31.7282308114 0.0 0.0 0.0 0.0
369 1 43.5004956448 36.4377308114 0.0 0.0 0.0 0.0
370 1 48.7432956448 36.0661308114 0.0 0.0 0.0 0.0
371 1 53.7817956448 34.4026308114 0.0 0.0 0.0 0.0
372 1 58.4910956448 33.1409308114 0.0 0.0 0.0 0.0
373 1 63.2669956448 33.5193308114 0.0 0.0 0.0 0.0
374 1 68.4050956448 35.5934308114 0.0 0.0 0.0 0.0
375 1 74.5567956448 36.6661308114 0.0 0.0 0.0 0.0
376 1 77.6075956448 40.3374308114 0.0 0.0 0.0 0.0
377 1 7.52171564484 41.9321308114 0.0 0.0 0.0 0.0
378 1 11.7801956448 40.2091308114 0.0 0.0 0.0 0.0
379 1 14.7430956448 39.7768308114 0.0 0.0 0.0 0.0
380 1 23.6348956448 40.9449308114 0.0 0.0 0.0 0.0
381 1 27.3658956448 39.1795308114 0.0 0.0 0.0 0.0
382 1 30.2937956448 38.6122308114 0.0 0.0 0.0 0.0
383 1 36.6966956448 38.2866308114 0.0 0.0 0.0 0.0
384 1 41.3389956448 39.5441308114 0.0 0.0 0.0 0.0
385 1 46.8255956448 41.0756308114 0.0 0.0 0.0 0.0
386 1 52.1062956448 39.9169308114 0.0 0.0 0.0 0.0
387 1 56.8142956448 38.6061308114 0.0 0.0 0.0 0.0
388 1 61.4298956448 35.8593308114 0.0 0.0 0.0 0.0
389 1 65.1309956448 39.2229308114 0.0 0.0 0.0 0.0
390 1 69.4847956448 41.2786308114 0.0 0.0 0.0 0.0
391 1 3.85619564484 44.3796308114 0.0 0.0 0.0 0.0
392 1 8.65070564484 44.7267308114 0.0 0.0 0.0 0.0
393 1 14.0147956448 44.0207308114 0.0 0.0 0.0 0.0
394 1 19.3690956448 42.8049308114 0.0 0.0 0.0 0.0
395 1 24.6408956448 43.8764308114 0.0 0.0 0.0 0.0
396 1 27.5206956448 44.7962308114 0.0 0.0 0.0 0.0
397 1 33.8071956448 43.1329308114 0.0 0.0 0.0 0.0
398 1 39.1285956448 41.5467308114 0.0 0.0 0.0 0.0
399 1 44.7568956448 46.6730308114 0.0 0.0 0.0 0.0
400 1 51.3288956448 45.5009308114 0.0 0.0 0.0 0.0
401 1 57.4599956448 46.5870308114 0.0 0.0 0.0 0.0
402 1 60.0791956448 45.1618308114 0.0 0.0 0.0 0.0
403 1 64.3103956448 42.0968308114 0.0 0.0 0.0 0.0
404 1 72.4833956448 41.7869308114 0.0 0.0 0.0 0.0
405 1 76.9311956448 45.3279308114 0.0 0.0 0.0 0.0
406 1 1.11555564484 50.7606308114 0.0 0.0 0.0 0.0
407 1 4.00521564484 49.9347308114 0.0 0.0 0.0 0.0
408 1 13.2668956448 49.8424308114 0.0 0.0 0.0 0.0
409 1 17.0765956448 47.0436308114 0.0 0.0 0.0 0.0
410 1 21.5687956448 48.2351308114 0.0 0.0 0.0 0.0
411 1 26.1897956448 49.2391308114 0.0 0.0 0.0 0.0
412 1 29.1620956448 49.8012308114 0.0 0.0 0.0 0.0
413 1 34.9380956448 47.7573308114 0.0 0.0 0.0 0.0
414 1 39.3244956448 48.4081308114 0.0 0.0 0.0 0.0
415 1 48.2494956448 49.3454308114 0.0 0.0 0.0 0.0
416 1 53.2814956448 47.7923308114 0.0 0.0 0.0 0.0
417 1 58.6333956448 49.3528308114 0.0 0.0 0.0 0.0
418 1 64.2083956448 48.3202308114 0.0 0.0 0.0 0.0
419 1 68.4751956448 47.8440308114 0.0 0.0 0.0 0.0
420 1 71.3902956448 48.3616308114 0.0 0.0 0.0 0.0
421 1 4.27691564484 56.8152308114 0.0 0.0 0.0 0.0
422 1 6.48146564484 54.7871308114 0.0 0.0 0.0 0.0
423 1 11.5957956448 52.3309308114 0.0 0.0 0.0 0.0
424 1 18.0638956448 52.2280308114 0.0 0.0 0.0 0.0
425 1 24.0595956448 54.6757308114 0.0 0.0 0.0 0.0
426 1 30.3344956448 52.6077308114 0.0 0.0 0.0 0.0
427 1 35.4521956448 54.4843308114 0.0 0.0 0.0 0.0
428 1 37.9646956448 52.8288308114 0.0 0.0 0.0 0.0
429 1 43.9464956448 52.4131308114 0.0 0.0 0.0 0.0
430 1 50.3586956448 51.5035308114 0.0 0.0 0.0 0.0
431 1 57.2281956448 54.9866308114 0.0 0.0 0.0 0.0
432 1 61.5411956448 53.2863308114 0.0 0.0 0.0 0.0
433 1 66.1687956448 53.0674308114 0.0 0.0 0.0 0.0
434 1 71.0205956448 51.3052308114 0.0 0.0 0.0 0.0
435 1 75.5242956448 54.4935308114 0.0 0.0 0.0 0.0
436 1 77.2293956448 59.2030308114 0.0 0.0 0.0 0.0
437 1 6.22799564484 59.0660308114 0.0 0.0 0.0 0.0
438 1 10.9870956448 58.6281308114 0.0 0.0 0.0 0.0
439 1 13.8659956448 57.7436308114 0.0 0.0 0.0 0.0
440 1 19.0730956448 56.3817308114 0.0 0.0 0.0 0.0
441 1 26.1662956448 56.7938308114 0.0 0.0 0.0 0.0
442 1 32.6022956448 57.7854308114 0.0 0.0 0.0 0.0
443 1 38.5396956448 57.9723308114 0.0 0.0 0.0 0.0
444 1 43.4558956448 57.4436308114 0.0 0.0 0.0 0.0
445 1 48.0241956448 56.5349308114 0.0 0.0 0.0 0.0
446 1 52.7710956448 56.1280308114 0.0 0.0 0.0 0.0
447 1 58.8572956448 57.5628308114 0.0 0.0 0.0 0.0
448 1 63.9417956448 58.1337308114 0.0 0.0 0.0 0.0
449 1 66.9215956448 58.3041308114 0.0 0.0 0.0 0.0
450 1 72.1798956448 58.7646308114 0.0 0.0 0.0 0.0
451 1 1.70269564484 64.8167308114 0.0 0.0 0.0 0.0
452 1 4.63844564484 64.0782308114 0.0 0.0 0.0 0.0
453 1 12.3449956448 62.9667308114 0.0 0.0 0.0 0.0
454 1 15.3136956448 62.4025308114 0.0 0.0 0.0 0.0
455 1 22.1390956448 60.6838308114 0.0 0.0 0.0 0.0
456 1 29.4938956448 62.7018308114 0.0 0.0 0.0 0.0
457 1 34.4853956448 62.0745308114 0.0 0.0 0.0 0.0
458 1 37.5125956448 62.2496308114 0.0 0.0 0.0 0.0
459 1 45.3796956448 62.3044308114 0.0 0.0 0.0 0.0
460 1 48.3859956448 61.9120308114 0.0 0.0 0.0 0.0
461 1 54.4271956448 61.6227308114 0.0 0.0 0.0 0.0
462 1 57.2980956448 62.5753308114 0.0 0.0 0.0 0.0
463 1 61.8357956448 62.4962308114 0.0 0.0 0.0 0.0
464 1 69.8248956448 63.1087308114 0.0 0.0 0.0 0.0
465 1 75.5361956448 61.7122308114 0.0 0.0 0.0 0.0
466 1 76.5274956448 68.9499308114 0.0 0.0 0.0 0.0
467 1 4.36847564484 68.9775308114 0.0 0.0 0.0 0.0
468 1 9.13492564484 67.4220308114 0.0 0.0 0.0 0.0
469 1 14.6135956448 66.7592308114 0.0 0.0 0.0 0.0
470 1 19.8081956448 66.0418308114 0.0 0.0 0.0 0.0
471 1 22.8437956448 66.1665308114 0.0 0.0 0.0 0.0
472 1 30.5728956448 65.5395308114 0.0 0.0 0.0 0.0
473 1 36.0886956448 66.4564308114 0.0 0.0 0.0 0.0
474 1 41.4062956448 66.3359308114 0.0 0.0 0.0 0.0
475 1 46.3392956448 67.0663308114 0.0 0.0 0.0 0.0
476 1 49.3303956448 66.8261308114 0.0 0.0 0.0 0.0
477 1 55.5128956448 66.8004308114 0.0 0.0 0.0 0.0
478 1 60.8891956448 66.9340308114 0.0 0.0 0.0 0.0
479 1 66.0552956448 66.4564308114 0.0 0.0 0.0 0.0
480 1 71.4826956448 67.8677308114 0.0 0.0 0.0 0.0
481 1 1.52350564484 73.0130308114 0.0 0.0 0.0 0.0
482 1 7.29608564484 72.6804308114 0.0 0.0 0.0 0.0
483 1 12.0107956448 71.6802308114 0.0 0.0 0.0 0.0
484 1 17.0229956448 70.9242308114 0.0 0.0 0.0 0.0
485 1 21.8238956448 70.6000308114 0.0 0.0 0.0 0.0
486 1 28.9782956448 71.1748308114 0.0 0.0 0.0 0.0
487 1 33.0738956448 70.1523308114 0.0 0.0 0.0 0.0
488 1 38.5542956448 70.9618308114 0.0 0.0 0.0 0.0
489 1 43.1683956448 71.4778308114 0.0 0.0 0.0 0.0
490 1 48.3982956448 71.4291308114 0.0 0.0 0.0 0.0
491 1 53.1453956448 71.2166308114 0.0 0.0 0.0 0.0
492 1 58.0612956448 71.8950308114 0.0 0.0 0.0 0.0
493 1 61.1056956448 72.1024308114 0.0 0.0 0.0 0.0
494 1 67.9178956448 71.3813308114 0.0 0.0 0.0 0.0
495 1 73.4169956448 72.6523308114 0.0 0.0 0.0 0.0
496 1 76.6848956448 76.8124308114 0.0 0.0 0.0 0.0
497 1 4.66531564484 77.2990308114 0.0 0.0 0.0 0.0
498 1 7.68113564484 77.5990308114 0.0 0.0 0.0 0.0
499 1 14.9548956448 75.8984308114 0.0 0.0 0.0 0.0
500 1 19.8972956448 75.1766308114 0.0 0.0 0.0 0.0
501 1 25.2765956448 74.3561308114 0.0 0.0 0.0 0.0
502 1 30.3300956448 73.8824308114 0.0 0.0 0.0 0.0
503 1 35.6730956448 74.9143308114 0.0 0.0 0.0 0.0
504 1 40.7049956448 76.0151308114 0.0 0.0 0.0 0.0
505 1 46.0878956448 75.6379308114 0.0 0.0 0.0 0.0
506 1 51.8430956448 73.9500308114 0.0 0.0 0.0 0.0
507 1 56.7937956448 74.6386308114 0.0 0.0 0.0 0.0
508 1 62.1079956448 76.6983308114 0.0 0.0 0.0 0.0
509 1 66.5139956448 74.0626308114 0.0 0.0 0.0 0.0
510 1 71.3106956448 77.2393308114 0.0 0.0 0.0 0.0
511 1 4.71881564484 80.2954308114 0.0 0.0 0.0 0.0
512 1 9.38009564484 80.1108308114 0.0 0.0 0.0 0.0
513 1 16.9479956448 78.1679308114 0.0 0.0 0.0 0.0
514 1 19.9833956448 78.1642308114 0.0 0.0 0.0 0.0
515 1 25.5571956448 77.4006308114 0.0 0.0 0.0 0.0
516 1 30.3382956448 76.8986308114 0.0 0.0 0.0 0.0
517 1 35.6082956448 77.9134308114 0.0 0.0 0.0 0.0
518 1 42.6796956448 80.2256308114 0.0 0.0 0.0 0.0
519 1 47.6210956448 80.1917308114 0.0 0.0 0.0 0.0
520 1 53.0318956448 78.8117308114 0.0 0.0 0.0 0.0
521 1 58.0275956448 79.3652308114 0.0 0.0 0.0 0.0
522 1 63.0729956448 79.5503308114 0.0 0.0 0.0 0.0
523 1 67.9041956448 79.4151308114 0.0 0.0 0.0 0.0
524 1 72.2077956448 0.851710811381 0.0 0.0 0.0 0.0
525 1 77.0786956448 79.7900308114 0.0 0.0 0.0 0.0
526 1 1.94293564484 81.3856308114 0.0 0.0 0.0 0.0
527 1 7.12503564484 0.0711408113815 0.0 0.0 0.0 0.0
528 1 12.2387956448 81.1180308114 0.0 0.0 0.0 0.0
529 1 15.2224956448 80.6126308114 0.0 0.0 0.0 0.0
530 1 22.9233956448 78.9337308114 0.0 0.0 0.0 0.0
531 1 28.1706956448 78.9772308114 0.0 0.0 0.0 0.0
532 1 32.7370956448 78.7272308114 0.0 0.0 0.0 0.0
533 1 39.9681956448 78.9452308114 0.0 0.0 0.0 0.0
534 1 45.1582956448 78.4965308114 0.0 0.0 0.0 0.0
535 1 50.5858956448 80.5851308114 0.0 0.0 0.0 0.0
536 1 55.3509956448 80.7154308114 0.0 0.0 0.0 0.0
537 1 60.4862956448 81.0679308114 0.0 0.0 0.0 0.0
538 1 65.5464956448 81.2698308114 0.0 0.0 0.0 0.0
539 1 70.7936956448 80.2117308114 0.0 0.0 0.0 0.0
540 1 75.0753956448 82.0060308114 0.0 0.0 0.0 0.0
541 2 2.17733564484 0.838852811381 0.0 0.0 0.0 0.0
542 2 0.722795644843 2.41631081138 0.0 0.0 0.0 0.0
543 2 3.08480564484 3.56065081138 0.0 0.0 0.0 0.0
544 2 6.91927564484 1.56699081138 0.0 0.0 0.0 0.0
545 2 7.52598564484 4.24538081138 0.0 0.0 0.0 0.0
546 2 5.33598564484 3.81577081138 0.0 0.0 0.0 0.0
547 2 12.3659956448 0.598425811381 0.0 0.0 0.0 0.0
548 2 14.1529956448 2.47890081138 0.0 0.0 0.0 0.0
549 2 11.8422956448 3.29052081138 0.0 0.0 0.0 0.0
550 2 16.3981956448 81.5607308114 0.0 0.0 0.0 0.0
551 2 19.0021956448 0.805061811381 0.0 0.0 0.0 0.0
552 2 16.5971956448 1.73109081138 0.0 0.0 0.0 0.0
553 2 23.0517956448 80.4424308114 0.0 0.0 0.0 0.0
554 2 21.7447956448 0.608754811381 0.0 0.0 0.0 0.0
555 2 24.3827956448 0.705795811381 0.0 0.0 0.0 0.0
556 2 29.2368956448 0.806661811381 0.0 0.0 0.0 0.0
557 2 28.9815956448 80.2744308114 0.0 0.0 0.0 0.0
558 2 31.4138956448 81.7449308114 0.0 0.0 0.0 0.0
559 2 32.8812956448 80.2220308114 0.0 0.0 0.0 0.0
560 2 34.2845956448 0.466466811381 0.0 0.0 0.0 0.0
561 2 36.4790956448 79.1320308114 0.0 0.0 0.0 0.0
562 2 38.6957956448 79.7509308114 0.0 0.0 0.0 0.0
563 2 36.6277956448 81.7388308114 0.0 0.0 0.0 0.0
564 2 46.9369956448 81.5316308114 0.0 0.0 0.0 0.0
565 2 46.9011956448 2.06887081138 0.0 0.0 0.0 0.0
566 2 44.6897956448 0.942980811381 0.0 0.0 0.0 0.0
567 2 50.4177956448 0.0593678113815 0.0 0.0 0.0 0.0
568 2 49.0176956448 2.54021081138 0.0 0.0 0.0 0.0
569 2 51.4196956448 2.34650081138 0.0 0.0 0.0 0.0
570 2 55.2772956448 0.185512811381 0.0 0.0 0.0 0.0
571 2 56.3868956448 2.61849081138 0.0 0.0 0.0 0.0
572 2 53.9293956448 2.45842081138 0.0 0.0 0.0 0.0
573 2 60.2617956448 0.515524811381 0.0 0.0 0.0 0.0
574 2 58.8427956448 2.82520081138 0.0 0.0 0.0 0.0
575 2 61.4696956448 2.59864081138 0.0 0.0 0.0 0.0
576 2 65.6647956448 0.745831811381 0.0 0.0 0.0 0.0
577 2 64.1983956448 2.74145081138 0.0 0.0 0.0 0.0
578 2 66.5319956448 3.48243081138 0.0 0.0 0.0 0.0
579 2 72.2488956448 5.28843081138 0.0 0.0 0.0 0.0
580 2 72.2802956448 2.37517081138 0.0 0.0 0.0 0.0
581 2 74.1074956448 4.35272081138 0.0 0.0 0.0 0.0
582 2 76.2892956448 3.65389081138 0.0 0.0 0.0 0.0
583 2 76.0233956448 1.14087081138 0.0 0.0 0.0 0.0
584 2 76.2040956448 6.22419081138 0.0 0.0 0.0 0.0
585 2 75.4565956448 8.36908081138 0.0 0.0 0.0 0.0
586 2 0.392235644843 8.31315081138 0.0 0.0 0.0 0.0
587 2 4.11746564484 6.18437081138 0.0 0.0 0.0 0.0
588 2 5.69652564484 8.14886081138 0.0 0.0 0.0 0.0
589 2 2.97583564484 8.51576081138 0.0 0.0 0.0 0.0
590 2 7.80054564484 6.93299081138 0.0 0.0 0.0 0.0
591 2 9.74039564484 5.06427081138 0.0 0.0 0.0 0.0
592 2 16.6833956448 6.49736081138 0.0 0.0 0.0 0.0
593 2 16.4548956448 4.08173081138 0.0 0.0 0.0 0.0
594 2 18.8916956448 4.84236081138 0.0 0.0 0.0 0.0
595 2 20.4446956448 2.85171081138 0.0 0.0 0.0 0.0
596 2 21.3058956448 5.47667081138 0.0 0.0 0.0 0.0
597 2 25.0010956448 3.08010081138 0.0 0.0 0.0 0.0
598 2 26.0457956448 5.24420081138 0.0 0.0 0.0 0.0