# input file

1350 atoms
2 atom types

0.0 78.807262088 xlo xhi
0.0 81.6648111782 ylo yhi
-10.0 10.0 zlo zhi
0.0 0.0 0.0 xy xz yz

Masses

1 28.0855 #Si
2 15.9994 #O

Atoms

1 1 1.41932882083 81.0011055891 0.0
2 1 8.11072882083 2.77674558909 0.0
3 1 13.8387688208 0.803895589086 0.0
4 1 19.4998688208 1.77288558909 0.0
5 1 26.9137688208 1.40065558909 0.0
6 1 31.8685688208 1.11416558909 0.0
7 1 34.8464688208 1.44694558909 0.0
8 1 40.8483688208 1.36682558909 0.0
9 1 43.8880688208 1.17000558909 0.0
10 1 49.7225688208 1.10235558909 0.0
11 1 54.9371688208 1.32285558909 0.0
12 1 60.5187688208 2.26826558909 0.0
13 1 68.1099688208 1.72898558909 0.0
14 1 71.1337688208 1.76499558909 0.0
15 1 77.6229688208 0.826955589086 0.0
16 1 78.6144688208 5.57150558909 0.0
17 1 5.73847882083 4.69919558909 0.0
18 1 12.5656688208 4.74348558909 0.0
19 1 15.5410688208 5.02215558909 0.0
20 1 20.6744688208 6.61169558909 0.0
21 1 25.9702688208 6.45790558909 0.0
22 1 31.1795688208 5.53536558909 0.0
23 1 35.6122688208 8.94262558909 0.0
24 1 40.4915688208 6.81207558909 0.0
25 1 45.7560688208 4.79217558909 0.0
26 1 51.1611688208 5.61113558909 0.0
27 1 57.4969688208 5.88105558909 0.0
28 1 62.9033688208 6.77286558909 0.0
29 1 67.4309688208 6.75147558909 0.0
30 1 72.7650688208 6.79648558909 0.0
31 1 2.71086882083 8.61390558909 0.0
32 1 6.48112882083 7.61070558909 0.0
33 1 12.8261688208 10.1653055891 0.0
34 1 16.6011688208 12.0669055891 0.0
35 1 21.4570688208 9.53682558909 0.0
36 1 29.0955688208 10.4352055891 0.0
37 1 34.1393688208 11.6008055891 0.0
38 1 39.4513688208 12.1915055891 0.0
39 1 47.9842688208 10.7507055891 0.0
40 1 46.0567688208 8.47523558909 0.0
41 1 52.3447688208 8.38620558909 0.0
42 1 59.9003688208 10.5184055891 0.0
43 1 65.8177688208 11.6733055891 0.0
44 1 70.8761688208 11.0716055891 0.0
45 1 74.5256688208 9.24739558909 0.0
46 1 1.15793882083 13.5518055891 0.0
47 1 5.99218882083 13.2022055891 0.0
48 1 9.99516882083 17.1124055891 0.0
49 1 15.5048688208 14.8621055891 0.0
50 1 19.5539688208 17.5616055891 0.0
51 1 26.2312688208 14.4596055891 0.0
52 1 28.6471688208 17.8258055891 0.0
53 1 36.4049688208 16.3062055891 0.0
54 1 42.0840688208 17.2324055891 0.0
55 1 44.7480688208 14.5751055891 0.0
56 1 52.1161688208 16.7035055891 0.0
57 1 56.5994688208 13.4045055891 0.0
58 1 61.3972688208 13.1217055891 0.0
59 1 68.4096688208 15.9314055891 0.0
60 1 74.7634688208 14.9920055891 0.0
61 1 3.75828882083 18.1742055891 0.0
62 1 8.39128882083 19.7153055891 0.0
63 1 12.9917688208 19.6499055891 0.0
64 1 18.0466688208 20.1184055891 0.0
65 1 22.2654688208 18.7898055891 0.0
66 1 31.2459688208 19.2776055891 0.0
67 1 35.5663688208 20.5551055891 0.0
68 1 38.0094688208 18.8529055891 0.0
69 1 46.9896688208 19.8835055891 0.0
70 1 52.3700688208 22.3447055891 0.0
71 1 57.4973688208 17.5288055891 0.0
72 1 57.2886688208 23.0110055891 0.0
73 1 65.3423688208 19.8678055891 0.0
74 1 70.4735688208 18.1057055891 0.0
75 1 0.753459820828 17.9458055891 0.0
76 1 1.14371882083 23.1006055891 0.0
77 1 4.92787882083 26.4249055891 0.0
78 1 11.8390688208 24.4449055891 0.0
79 1 14.8515688208 24.3866055891 0.0
80 1 20.2399688208 24.3329055891 0.0
81 1 25.1948688208 22.5567055891 0.0
82 1 28.4895688208 26.4514055891 0.0
83 1 34.2186688208 25.8203055891 0.0
84 1 42.0747688208 25.6539055891 0.0
85 1 47.5627688208 23.9964055891 0.0
86 1 49.4305688208 21.6634055891 0.0
87 1 60.3206688208 23.1295055891 0.0
88 1 64.3029688208 24.6453055891 0.0
89 1 69.3846688208 23.0641055891 0.0
90 1 74.9069688208 23.1697055891 0.0
91 1 3.53201882083 29.1518055891 0.0
92 1 7.82678882083 30.5431055891 0.0
93 1 12.2974688208 29.8733055891 0.0
94 1 17.3355688208 28.7232055891 0.0
95 1 22.5359688208 27.8632055891 0.0
96 1 27.4372688208 29.2484055891 0.0
97 1 32.3916688208 29.7390055891 0.0
98 1 37.9208688208 29.7409055891 0.0
99 1 44.6007688208 30.4074055891 0.0
100 1 49.1668688208 29.4563055891 0.0
101 1 54.4662688208 27.4344055891 0.0
102 1 60.2308688208 28.5556055891 0.0
103 1 68.9869688208 27.6403055891 0.0
104 1 71.9729688208 27.2997055891 0.0
105 1 77.2120688208 27.7912055891 0.0
106 1 0.00871182082768 35.2092055891 0.0
107 1 5.45646882083 34.7780055891 0.0
108 1 10.2549688208 35.1918055891 0.0
109 1 16.5094688208 33.5313055891 0.0
110 1 19.4029688208 32.6776055891 0.0
111 1 24.0613688208 33.0197055891 0.0
112 1 29.5460688208 34.1040055891 0.0
113 1 38.1070688208 35.2864055891 0.0
114 1 39.1225688208 32.4722055891 0.0
115 1 47.2714688208 34.8009055891 0.0
116 1 52.0347688208 32.4409055891 0.0
117 1 57.2080688208 31.6924055891 0.0
118 1 61.8940688208 31.0820055891 0.0
119 1 69.3704688208 32.7151055891 0.0
120 1 74.7428688208 31.9989055891 0.0
121 1 3.32127882083 39.2242055891 0.0
122 1 8.16797882083 39.8528055891 0.0
123 1 13.1306688208 39.9141055891 0.0
124 1 18.4554688208 41.3985055891 0.0
125 1 22.2446688208 37.6706055891 0.0
126 1 27.7771688208 38.8679055891 0.0
127 1 32.3966688208 40.4586055891 0.0
128 1 38.0614688208 39.2971055891 0.0
129 1 43.0859688208 38.6013055891 0.0
130 1 50.6998688208 37.8657055891 0.0
131 1 55.5399688208 36.4094055891 0.0
132 1 59.2068688208 38.8584055891 0.0
133 1 66.8771688208 36.9543055891 0.0
134 1 72.2386688208 36.6910055891 0.0
135 1 77.1754688208 37.7292055891 0.0
136 1 78.3334688208 42.7892055891 0.0
137 1 4.54859882083 44.1785055891 0.0
138 1 10.9864688208 44.6749055891 0.0
139 1 17.8573688208 44.3801055891 0.0
140 1 24.1609688208 41.8698055891 0.0
141 1 27.2085688208 41.8038055891 0.0
142 1 32.1914688208 44.7141055891 0.0
143 1 39.9543688208 41.5969055891 0.0
144 1 42.9471688208 41.6273055891 0.0
145 1 48.4009688208 42.4931055891 0.0
146 1 54.4782688208 41.5613055891 0.0
147 1 58.7835688208 43.9816055891 0.0
148 1 61.9444688208 40.0334055891 0.0
149 1 69.1093688208 41.1192055891 0.0
150 1 73.5664688208 41.7310055891 0.0
151 1 2.92412882083 49.3639055891 0.0
152 1 7.19559882083 49.1687055891 0.0
153 1 13.2136688208 46.7152055891 0.0
154 1 20.5502688208 48.5035055891 0.0
155 1 25.3954688208 47.1513055891 0.0
156 1 30.8852688208 47.4076055891 0.0
157 1 36.8317688208 47.1973055891 0.0
158 1 39.7142688208 46.4526055891 0.0
159 1 43.8305688208 44.5315055891 0.0
160 1 50.5617688208 44.5653055891 0.0
161 1 57.4381688208 46.6651055891 0.0
162 1 65.1557688208 46.9851055891 0.0
163 1 64.4041688208 44.0958055891 0.0
164 1 70.1386688208 46.2601055891 0.0
165 1 74.9592688208 46.8948055891 0.0
166 1 76.7569688208 49.2951055891 0.0
167 1 6.26772882083 52.0439055891 0.0
168 1 11.7497688208 52.4061055891 0.0
169 1 16.0534688208 49.9930055891 0.0
170 1 23.0640688208 52.3511055891 0.0
171 1 28.3368688208 51.4523055891 0.0
172 1 32.9189688208 52.7643055891 0.0
173 1 37.8983688208 51.8806055891 0.0
174 1 43.4856688208 50.2059055891 0.0
175 1 50.0200688208 49.9492055891 0.0
176 1 53.0312688208 49.9306055891 0.0
177 1 59.7341688208 51.6167055891 0.0
178 1 62.7228688208 51.6424055891 0.0
179 1 68.0692688208 51.2380055891 0.0
180 1 72.6485688208 51.2897055891 0.0
181 1 2.41493882083 55.2276055891 0.0
182 1 7.01964882083 54.9546055891 0.0
183 1 15.3900688208 55.7154055891 0.0
184 1 20.0075688208 56.5733055891 0.0
185 1 26.7128688208 56.0586055891 0.0
186 1 29.5988688208 56.7837055891 0.0
187 1 35.4722688208 56.8708055891 0.0
188 1 40.4783688208 54.7368055891 0.0
189 1 45.4563688208 55.0851055891 0.0
190 1 49.7770688208 55.6750055891 0.0
191 1 53.9419688208 55.7871055891 0.0
192 1 59.6929688208 57.1284055891 0.0
193 1 65.5205688208 55.7619055891 0.0
194 1 70.5650688208 56.2223055891 0.0
195 1 75.8429688208 55.0431055891 0.0
196 1 78.0028688208 59.4576055891 0.0
197 1 4.41349882083 60.0567055891 0.0
198 1 9.62377882083 60.8373055891 0.0
199 1 14.3146688208 60.8383055891 0.0
200 1 17.3826688208 57.9965055891 0.0
201 1 25.7321688208 61.2325055891 0.0
202 1 30.7820688208 59.5307055891 0.0
203 1 39.4379688208 59.7487055891 0.0
204 1 42.4046688208 59.4763055891 0.0
205 1 46.9554688208 60.4255055891 0.0
206 1 51.7392688208 61.0333055891 0.0
207 1 60.2301688208 60.0727055891 0.0
208 1 63.1788688208 59.5640055891 0.0
209 1 65.7591688208 63.0639055891 0.0
210 1 74.9754688208 59.5760055891 0.0
211 1 1.27229882083 64.2885055891 0.0
212 1 6.73206882083 64.9499055891 0.0
213 1 13.2773688208 65.4657055891 0.0
214 1 18.2074688208 63.9305055891 0.0
215 1 23.1882688208 64.6709055891 0.0
216 1 27.5850688208 63.5785055891 0.0
217 1 33.0572688208 67.3243055891 0.0
218 1 39.3931688208 64.6397055891 0.0
219 1 43.5243688208 66.8444055891 0.0
220 1 48.8911688208 65.5380055891 0.0
221 1 52.9139688208 63.8601055891 0.0
222 1 60.2233688208 64.7451055891 0.0
223 1 63.8130688208 67.6156055891 0.0
224 1 68.0525688208 64.9904055891 0.0
225 1 74.9641688208 64.4823055891 0.0
226 1 77.5169688208 71.1308055891 0.0
227 1 3.97208882083 68.8575055891 0.0
228 1 8.62896882083 67.3228055891 0.0
229 1 17.9359688208 68.6940055891 0.0
230 1 20.9446688208 68.9057055891 0.0
231 1 26.0515688208 69.0082055891 0.0
232 1 31.4584688208 69.8440055891 0.0
233 1 35.5348688208 69.0151055891 0.0
234 1 40.6476688208 71.2131055891 0.0
235 1 46.4088688208 70.3882055891 0.0
236 1 51.9842688208 69.7302055891 0.0
237 1 58.3273688208 69.4013055891 0.0
238 1 62.1109688208 72.2230055891 0.0
239 1 67.6595688208 70.6254055891 0.0
240 1 73.0124688208 69.2180055891 0.0
241 1 2.48296882083 73.7270055891 0.0
242 1 7.52467882083 72.6958055891 0.0
243 1 12.7364688208 73.1363055891 0.0
244 1 17.8660688208 73.9402055891 0.0
245 1 25.1330688208 73.1627055891 0.0
246 1 28.1465688208 73.6155055891 0.0
247 1 33.5848688208 74.5850055891 0.0
248 1 39.1725688208 73.8468055891 0.0
249 1 44.3368688208 76.2814055891 0.0
250 1 49.7780688208 74.1727055891 0.0
251 1 53.8148688208 72.1938055891 0.0
252 1 60.0141688208 76.5709055891 0.0
253 1 65.5436688208 75.2868055891 0.0
254 1 70.9072688208 74.1212055891 0.0
255 1 76.2506688208 73.8640055891 0.0
256 1 76.3673688208 3.55457558909 0.0
257 1 7.03812882083 81.6472055891 0.0
258 1 11.0963688208 2.13896558909 0.0
259 1 16.5135688208 2.21701558909 0.0
260 1 21.7914688208 3.78518558909 0.0
261 1 24.8338688208 3.63474558909 0.0
262 1 29.5257688208 2.97829558909 0.0
263 1 36.2780688208 4.09690558909 0.0
264 1 39.3127688208 4.00803558909 0.0
265 1 46.7986688208 1.99242558909 0.0
266 1 52.2460688208 2.77354558909 0.0
267 1 57.5484688208 2.87572558909 0.0
268 1 63.1516688208 3.78189558909 0.0
269 1 66.1633688208 4.01220558909 0.0
270 1 73.3533688208 3.83630558909 0.0
271 1 2.83477882083 5.59555558909 0.0
272 1 9.01427882083 9.15803558909 0.0
273 1 11.4746688208 7.50870558909 0.0
274 1 17.7070688208 7.07043558909 0.0
275 1 24.4364688208 9.07106558909 0.0
276 1 28.8386688208 7.43365558909 0.0
277 1 34.1542688208 6.26818558909 0.0
278 1 38.6547688208 9.25032558909 0.0
279 1 43.5332688208 6.82583558909 0.0
280 1 48.2540688208 6.42388558909 0.0
281 1 55.3069688208 7.92849558909 0.0
282 1 60.0153688208 7.52866558909 0.0
283 1 65.1793688208 8.73278558909 0.0
284 1 70.0954688208 8.15576558909 0.0
285 1 77.3746688208 8.32602558909 0.0
286 1 0.490581820828 10.6162055891 0.0
287 1 5.16651882083 10.3049055891 0.0
288 1 10.3488688208 11.8378055891 0.0
289 1 15.6688688208 9.25875558909 0.0
290 1 19.6106688208 11.9673055891 0.0
291 1 26.2647688208 11.4587055891 0.0
292 1 31.2370688208 12.5597055891 0.0
293 1 36.6391688208 13.3063055891 0.0
294 1 41.7453688208 14.2200055891 0.0
295 1 47.6157688208 13.7066055891 0.0
296 1 50.9667688208 11.0809055891 0.0
297 1 56.9058688208 10.4544055891 0.0
298 1 64.1874688208 14.1927055891 0.0
299 1 68.5367688208 12.9351055891 0.0
300 1 73.6863688208 12.1490055891 0.0
301 1 3.71868882083 15.1565055891 0.0
302 1 8.75674882083 14.3752055891 0.0
303 1 13.0070688208 16.6440055891 0.0
304 1 18.5393688208 14.7794055891 0.0
305 1 24.7295688208 17.0897055891 0.0
306 1 29.2219688208 14.8526055891 0.0
307 1 33.9600688208 18.0294055891 0.0
308 1 40.7957688208 19.9507055891 0.0
309 1 45.0702688208 17.5564055891 0.0
310 1 50.5938688208 14.0894055891 0.0
311 1 54.9866688208 15.8873055891 0.0
312 1 59.1136688208 15.0359055891 0.0
313 1 65.5508688208 16.8688055891 0.0
314 1 73.4726688208 17.7318055891 0.0
315 1 77.7313688208 15.5478055891 0.0
316 1 78.2297688208 20.6201055891 0.0
317 1 5.49295882083 20.6771055891 0.0
318 1 10.7213688208 21.6289055891 0.0
319 1 15.3760688208 21.4427055891 0.0
320 1 20.7530688208 21.3806055891 0.0
321 1 26.2503688208 19.6821055891 0.0
322 1 30.7799688208 22.2372055891 0.0
323 1 33.7111688208 22.8947055891 0.0
324 1 42.1609688208 22.6431055891 0.0
325 1 45.1388688208 22.2470055891 0.0
326 1 53.2886688208 19.4869055891 0.0
327 1 56.2148688208 20.2084055891 0.0
328 1 63.0864688208 21.8946055891 0.0
329 1 68.3488688208 20.2492055891 0.0
330 1 75.2474688208 20.1862055891 0.0
331 1 4.16187882083 23.4494055891 0.0
332 1 7.74671882083 27.5360055891 0.0
333 1 10.7516688208 27.2585055891 0.0
334 1 17.5487688208 25.7265055891 0.0
335 1 23.1979688208 24.8992055891 0.0
336 1 28.0445688208 23.5016055891 0.0
337 1 31.4401688208 26.9065055891 0.0
338 1 40.4508688208 28.1695055891 0.0
339 1 44.5212688208 27.4073055891 0.0
340 1 47.4829688208 26.9763055891 0.0
341 1 54.5985688208 24.4096055891 0.0
342 1 61.5687688208 25.8648055891 0.0
343 1 67.2619688208 25.1858055891 0.0
344 1 72.1267688208 24.3010055891 0.0
345 1 77.4579688208 24.7919055891 0.0
346 1 0.588893820828 29.8630055891 0.0
347 1 5.09231882083 31.7610055891 0.0
348 1 10.3514688208 32.1726055891 0.0
349 1 15.1675688208 30.8182055891 0.0
350 1 20.1561688208 29.7473055891 0.0
351 1 24.5622688208 30.0665055891 0.0
352 1 29.7632688208 31.1341055891 0.0
353 1 35.1577688208 28.6478055891 0.0
354 1 41.6713688208 30.9170055891 0.0
355 1 47.2549688208 31.7925055891 0.0
356 1 52.1724688208 29.4258055891 0.0
357 1 57.2146688208 28.6951055891 0.0
358 1 64.8788688208 31.5557055891 0.0
359 1 67.6049688208 30.2904055891 0.0
360 1 74.4555688208 29.0052055891 0.0
361 1 2.84035882083 36.2506055891 0.0
362 1 7.71634882083 36.8250055891 0.0
363 1 12.7048688208 36.9396055891 0.0
364 1 15.6660688208 36.4449055891 0.0
365 1 21.5893688208 34.7348055891 0.0
366 1 26.5844688208 34.6330055891 0.0
367 1 32.2162688208 35.4729055891 0.0
368 1 35.1723688208 36.0445055891 0.0
369 1 45.8963688208 37.4908055891 0.0
370 1 50.2717688208 34.8920055891 0.0
371 1 54.8246688208 33.5060055891 0.0
372 1 59.7860688208 33.2280055891 0.0
373 1 66.6469688208 33.9791055891 0.0
374 1 72.2327688208 33.6796055891 0.0
375 1 77.7394688208 32.3934055891 0.0
376 1 0.407073820828 39.9306055891 0.0
377 1 5.51330882083 41.3029055891 0.0
378 1 10.6420688208 41.6429055891 0.0
379 1 16.1220688208 39.4418055891 0.0
380 1 21.3999688208 40.5648055891 0.0
381 1 25.2297688208 37.3035055891 0.0
382 1 30.6575688208 38.0313055891 0.0
383 1 35.0658688208 39.0546055891 0.0
384 1 40.3255688208 37.3238055891 0.0
385 1 48.1616688208 39.4850055891 0.0
386 1 53.5810688208 38.6977055891 0.0
387 1 58.5140688208 35.9535055891 0.0
388 1 64.7620688208 39.0613055891 0.0
389 1 69.6225688208 38.1643055891 0.0
390 1 74.3664688208 38.8143055891 0.0
391 1 1.63017882083 44.9068055891 0.0
392 1 9.56604882083 47.3363055891 0.0
393 1 16.1973688208 46.9404055891 0.0
394 1 20.6276688208 45.5170055891 0.0
395 1 23.5407688208 44.7960055891 0.0
396 1 30.1660688208 42.4989055891 0.0
397 1 35.2071688208 44.6816055891 0.0
398 1 38.1019688208 43.9177055891 0.0
399 1 46.7863688208 45.0271055891 0.0
400 1 53.5458688208 44.4228055891 0.0
401 1 57.4567688208 41.2951055891 0.0
402 1 61.6180688208 43.0165055891 0.0
403 1 66.1807688208 41.6944055891 0.0
404 1 71.0517688208 43.3878055891 0.0
405 1 75.5778688208 43.9524055891 0.0
406 1 0.470266820828 47.6821055891 0.0
407 1 4.97816882083 47.1632055891 0.0
408 1 11.7749688208 49.3660055891 0.0
409 1 18.8720688208 50.9826055891 0.0
410 1 23.4010688208 49.3809055891 0.0
411 1 28.0892688208 48.4570055891 0.0
412 1 32.6810688208 49.7973055891 0.0
413 1 35.6588688208 49.9110055891 0.0
414 1 42.6038688208 47.2974055891 0.0
415 1 48.9583688208 47.1098055891 0.0
416 1 54.5004688208 47.2822055891 0.0
417 1 59.6937688208 48.6257055891 0.0
418 1 62.6753688208 48.6499055891 0.0
419 1 67.8770688208 48.2321055891 0.0
420 1 72.3238688208 48.3035055891 0.0
421 1 3.28100882083 52.3419055891 0.0
422 1 10.0247688208 54.9195055891 0.0
423 1 14.7421688208 52.7422055891 0.0
424 1 20.3435688208 53.5928055891 0.0
425 1 25.9155688208 53.1904055891 0.0
426 1 30.1568688208 53.8457055891 0.0
427 1 35.6857688208 53.8970055891 0.0
428 1 40.8968688208 51.7689055891 0.0
429 1 45.8678688208 52.1086055891 0.0
430 1 48.8373688208 52.7420055891 0.0
431 1 54.0887688208 52.7611055891 0.0
432 1 57.0732688208 52.9822055891 0.0
433 1 65.4963688208 52.7741055891 0.0
434 1 70.3431688208 53.2103055891 0.0
435 1 75.5500688208 52.0496055891 0.0
436 1 78.4856688208 56.4837055891 0.0
437 1 4.82533882083 57.0439055891 0.0
438 1 10.4308688208 57.9179055891 0.0
439 1 13.4185688208 57.9741055891 0.0
440 1 21.9388688208 58.8556055891 0.0
441 1 24.8827688208 58.3888055891 0.0
442 1 33.7593688208 59.3202055891 0.0
443 1 38.4505688208 56.9331055891 0.0
444 1 42.8554688208 56.5282055891 0.0
445 1 47.3391688208 57.4257055891 0.0
446 1 51.8246688208 57.9414055891 0.0
447 1 56.9327688208 55.9645055891 0.0
448 1 62.6436688208 56.6199055891 0.0
449 1 67.8845688208 57.6300055891 0.0
450 1 73.5034688208 56.9461055891 0.0
451 1 1.62480882083 61.2743055891 0.0
452 1 6.80757882083 61.9223055891 0.0
453 1 11.9873688208 62.7306055891 0.0
454 1 17.3039688208 61.0327055891 0.0
455 1 22.7782688208 61.7175055891 0.0
456 1 30.3617688208 62.4984055891 0.0
457 1 34.7347688208 62.1498055891 0.0
458 1 37.7133688208 62.1815055891 0.0
459 1 44.2815688208 61.7901055891 0.0
460 1 49.1119688208 62.5135055891 0.0
461 1 55.9066688208 64.1184055891 0.0
462 1 58.3613688208 62.4058055891 0.0
463 1 66.1393688208 60.0899055891 0.0
464 1 70.8246688208 63.8278055891 0.0
465 1 73.2414688208 62.0350055891 0.0
466 1 77.5570688208 65.9712055891 0.0
467 1 3.85233882083 65.8526055891 0.0
468 1 11.5953688208 67.9550055891 0.0
469 1 16.2188688208 66.1861055891 0.0
470 1 20.4888688208 65.9200055891 0.0
471 1 25.8663688208 66.0195055891 0.0
472 1 32.7112688208 64.3493055891 0.0
473 1 38.0257688208 67.3085055891 0.0
474 1 42.3576688208 64.0957055891 0.0
475 1 46.4846688208 67.3746055891 0.0
476 1 51.6915688208 66.6692055891 0.0
477 1 57.7686688208 66.4673055891 0.0
478 1 63.2231688208 64.6788055891 0.0
479 1 66.8186688208 67.7416055891 0.0
480 1 72.5591688208 66.2638055891 0.0
481 1 1.70375882083 70.8357055891 0.0
482 1 6.84879882083 69.7554055891 0.0
483 1 13.5597688208 70.2671055891 0.0
484 1 16.4235688208 71.2696055891 0.0
485 1 23.4971688208 70.5907055891 0.0
486 1 28.5733688208 70.6444055891 0.0
487 1 33.9189688208 71.5685055891 0.0
488 1 40.8652688208 68.2537055891 0.0
489 1 43.6331688208 71.6468055891 0.0
490 1 49.3284688208 71.1934055891 0.0
491 1 56.8481688208 72.0218055891 0.0
492 1 61.3384688208 69.3339055891 0.0
493 1 65.1378688208 72.3169055891 0.0
494 1 70.6473688208 71.1205055891 0.0
495 1 75.9758688208 68.5639055891 0.0
496 1 0.0104418208277 75.4194055891 0.0
497 1 5.30594882083 74.7196055891 0.0
498 1 10.0174688208 74.3820055891 0.0
499 1 15.0712688208 75.0316055891 0.0
500 1 20.3810688208 75.6591055891 0.0
501 1 23.3928688208 75.6105055891 0.0
502 1 30.5940688208 75.4485055891 0.0
503 1 36.5521688208 75.4396055891 0.0
504 1 42.1638688208 74.2625055891 0.0
505 1 47.3245688208 75.9217055891 0.0
506 1 52.6731688208 75.0274055891 0.0
507 1 59.4213688208 73.6217055891 0.0
508 1 63.0183688208 76.9437055891 0.0
509 1 68.4879688208 75.9279055891 0.0
510 1 73.6408688208 75.3833055891 0.0
511 1 5.71948882083 77.6917055891 0.0
512 1 10.8680688208 77.2709055891 0.0
513 1 15.7086688208 80.1068055891 0.0
514 1 21.0587688208 78.6022055891 0.0
515 1 26.8072688208 79.9824055891 0.0
516 1 31.9540688208 79.7873055891 0.0
517 1 37.4039688208 78.3622055891 0.0
518 1 42.4980688208 78.6470055891 0.0
519 1 47.8421688208 78.8697055891 0.0
520 1 53.0940688208 78.0599055891 0.0
521 1 58.3624688208 79.1031055891 0.0
522 1 63.5879688208 79.8947055891 0.0
523 1 68.7219688208 78.9235055891 0.0
524 1 73.5421688208 78.3983055891 0.0
525 1 78.7334688208 78.4084055891 0.0
526 1 4.34171882083 80.3554055891 0.0
527 1 8.41868882083 78.9939055891 0.0
528 1 13.8390688208 77.7570055891 0.0
529 1 18.7289688208 80.5218055891 0.0
530 1 24.0957688208 78.5459055891 0.0
531 1 29.3573688208 78.2485055891 0.0
532 1 34.9495688208 80.1060055891 0.0
533 1 39.8767688208 80.1385055891 0.0
534 1 45.0996688208 80.1102055891 0.0
535 1 50.6658688208 79.8903055891 0.0
536 1 55.4505688208 79.9835055891 0.0
537 1 60.7612688208 80.9398055891 0.0
538 1 66.4442688208 80.8772055891 0.0
539 1 71.3243688208 80.4239055891 0.0
540 1 76.1394688208 79.8899055891 0.0
541 2 2.91212882083 80.8109055891 0.0
542 2 0.235347820828 0.276226589086 0.0
543 2 0.808118820828 79.6194055891 0.0
544 2 7.53343882083 1.38310558909 0.0
545 2 9.60764882083 2.45883558909 0.0
546 2 6.92805882083 3.74903558909 0.0
547 2 14.6673688208 81.1992055891 0.0
548 2 15.1654688208 1.54664558909 0.0
549 2 12.3941688208 1.29849558909 0.0
550 2 19.2455688208 0.276384589086 0.0
551 2 20.6878688208 2.72314558909 0.0
552 2 18.0075688208 2.05336558909 0.0
553 2 25.7928688208 2.45340558909 0.0
554 2 26.8428688208 81.5275055891 0.0
555 2 28.2067688208 2.22135558909 0.0
556 2 30.6820688208 2.01090558909 0.0
557 2 31.7748688208 81.2824055891 0.0
558 2 33.3354688208 1.45186558909 0.0
559 2 35.0848688208 81.6168055891 0.0
560 2 35.6201688208 2.73116558909 0.0
561 2 40.0783688208 2.68640558909 0.0
562 2 40.2473688208 81.6220055891 0.0
563 2 42.3810688208 1.37429558909 0.0
564 2 44.4858688208 81.4609055891 0.0
565 2 45.3305688208 1.62116558909 0.0
566 2 50.2578688208 81.3501055891 0.0
567 2 50.9671688208 1.96486558909 0.0
568 2 48.2475688208 1.51047558909 0.0
569 2 55.1566688208 81.4796055891 0.0
570 2 56.2524688208 2.09392558909 0.0
571 2 53.6028688208 2.07077558909 0.0
572 2 60.6479688208 0.770125589086 0.0
573 2 61.8485688208 3.00801558909 0.0
574 2 59.0347688208 2.57511558909 0.0
575 2 67.1636688208 2.89515558909 0.0
576 2 67.2379688208 0.494149589086 0.0
577 2 69.6159688208 1.84679558909 0.0
578 2 71.3431688208 0.263561589086 0.0
579 2 72.2446688208 2.79623558909 0.0
580 2 76.7206688208 81.2799055891 0.0
581 2 77.0015688208 2.18566558909 0.0
582 2 77.4933688208 4.55964558909 0.0
583 2 1.31704882083 5.40320558909 0.0
584 2 77.9909688208 6.95286558909 0.0
585 2 6.15818882083 6.15396558909 0.0
586 2 4.21417882083 4.94656558909 0.0
587 2 11.9449688208 6.10344558909 0.0
588 2 11.7962688208 3.47475558909 0.0
589 2 14.0491688208 4.93543558909 0.0
590 2 16.0990688208 3.64749558909 0.0
591 2 16.6271688208 6.03216558909 0.0
592 2 21.2706688208 5.22057558909 0.0
593 2 21.0780688208 8.06963558909 0.0
594 2 19.1705688208 6.79892558909 0.0
595 2 25.4214688208 5.04598558909 0.0
596 2 27.4296688208 6.87363558909 0.0
597 2 25.1264688208 7.72352558909 0.0
598 2 30.3289688208 4.27080558909 0.0
599 2 30.0591688208 6.55631558909 0.0
600 2 32.6645688208 5.90582558909 0.0
601 2 34.8459688208 7.62760558909 0.0
602 2 37.1381688208 9.06044558909 0.0
603 2 34.7902688208 10.2236055891 0.0
604 2 39.9240688208 5.40142558909 0.0
605 2 42.0225688208 6.86367558909 0.0
606 2 39.5934688208 8.04274558909 0.0
607 2 46.3075688208 3.41120558909 0.0
608 2 47.0663688208 5.51500558909 0.0
609 2 44.5026688208 5.64488558909 0.0
610 2 51.7897688208 4.23319558909 0.0
611 2 49.6884688208 5.98286558909 0.0
612 2 51.7720688208 6.99209558909 0.0
613 2 58.7878688208 6.66553558909 0.0
614 2 57.4611688208 4.38645558909 0.0
615 2 56.3065688208 6.80715558909 0.0
616 2 63.0125688208 5.28171558909 0.0
617 2 63.9786688208 7.82335558909 0.0
618 2 61.4518688208 7.12395558909 0.0
619 2 66.8400688208 5.36599558909 0.0
620 2 66.3488688208 7.79304558909 0.0
621 2 68.7874688208 7.41125558909 0.0
622 2 73.0414688208 5.31681558909 0.0
623 2 71.3755688208 7.37011558909 0.0
624 2 73.6583688208 8.01245558909 0.0
625 2 2.81911882083 7.11607558909 0.0
626 2 3.86728882083 9.56383558909 0.0
627 2 1.59517882083 9.60400558909 0.0
628 2 7.80115882083 8.31134558909 0.0
629 2 5.84066882083 8.96663558909 0.0
630 2 14.2424688208 9.70660558909 0.0
631 2 12.2397688208 8.78604558909 0.0
632 2 11.7298688208 11.2092055891 0.0
633 2 15.8265688208 13.3621055891 0.0
634 2 16.1419688208 10.6697055891 0.0
635 2 18.1020688208 11.9084055891 0.0
636 2 22.9612688208 9.37745558909 0.0
637 2 20.5822688208 10.7929055891 0.0
638 2 29.0437688208 8.92852558909 0.0
639 2 30.2304688208 11.4242055891 0.0
640 2 27.6929688208 10.9834055891 0.0
641 2 35.3547688208 12.5135055891 0.0
642 2 32.7009688208 12.1183055891 0.0
643 2 38.0540688208 12.7835055891 0.0
644 2 40.6398688208 13.1664055891 0.0
645 2 39.1791688208 10.6878055891 0.0
646 2 46.8935688208 9.72700558909 0.0
647 2 47.6778688208 12.2105055891 0.0
648 2 49.4909688208 10.7575055891 0.0
649 2 47.2678688208 7.56596558909 0.0
650 2 44.6779688208 7.84889558909 0.0
651 2 53.8329688208 8.15480558909 0.0
652 2 51.7313688208 9.76820558909 0.0
653 2 60.0525688208 9.02879558909 0.0
654 2 58.3996688208 10.5144055891 0.0
655 2 60.7549688208 11.7562055891 0.0
656 2 67.2112688208 12.2331055891 0.0
657 2 65.4351688208 10.2168055891 0.0
658 2 64.9706688208 12.9108055891 0.0
659 2 70.4551688208 9.62331558909 0.0
660 2 72.2411688208 11.6981055891 0.0
661 2 69.7303688208 12.0389055891 0.0
662 2 75.9428688208 8.75844558909 0.0
663 2 74.2239688208 10.7264055891 0.0
664 2 2.44172882083 14.3418055891 0.0
665 2 0.807748820828 12.0842055891 0.0
666 2 78.7751688208 14.4660055891 0.0
667 2 4.87850882083 14.2038055891 0.0
668 2 7.35891882083 13.8223055891 0.0
669 2 5.60985882083 11.7405055891 0.0
670 2 9.30042882083 15.7661055891 0.0
671 2 11.4818688208 16.7737055891 0.0
672 2 9.14197882083 18.3750055891 0.0
673 2 14.2309688208 15.7126055891 0.0
674 2 17.0282688208 14.9787055891 0.0
675 2 19.1301688208 16.1432055891 0.0
676 2 20.9579688208 18.0550055891 0.0
677 2 18.6076688208 18.7261055891 0.0
678 2 26.0612688208 12.9560055891 0.0
679 2 27.7289688208 14.5948055891 0.0
680 2 25.3911688208 15.7284055891 0.0
681 2 29.0048688208 16.3555055891 0.0
682 2 29.9642688208 18.5311055891 0.0
683 2 27.5287688208 18.8435055891 0.0
684 2 36.5402688208 14.8156055891 0.0
685 2 35.0460688208 16.9877055891 0.0
686 2 37.3733688208 17.4761055891 0.0
687 2 41.7129688208 15.7545055891 0.0
688 2 43.5595688208 17.5455055891 0.0
689 2 41.4357688208 18.5877055891 0.0
690 2 46.1728688208 14.0953055891 0.0
691 2 45.0529688208 16.0543055891 0.0
692 2 43.2825688208 14.1780055891 0.0
693 2 52.5217688208 18.1754055891 0.0
694 2 51.2780688208 15.4443055891 0.0
695 2 53.5449688208 16.2268055891 0.0
696 2 56.5681688208 11.9172055891 0.0
697 2 57.9097688208 14.1366055891 0.0
698 2 55.5970688208 14.5134055891 0.0
699 2 62.7729688208 13.6934055891 0.0
700 2 60.3404688208 14.1912055891 0.0
701 2 69.5257688208 16.9300055891 0.0
702 2 68.5451688208 14.4357055891 0.0
703 2 66.9949688208 16.4392055891 0.0
704 2 76.2560688208 15.2540055891 0.0
705 2 74.2218688208 13.5691055891 0.0
706 2 74.0613688208 16.3371055891 0.0
707 2 3.89119882083 16.6535055891 0.0
708 2 4.61885882083 19.4181055891 0.0
709 2 2.24706882083 18.1102055891 0.0
710 2 9.46528882083 20.7891055891 0.0
711 2 6.95024882083 20.2075055891 0.0
712 2 11.8303688208 20.6036055891 0.0
713 2 14.2180688208 20.5054055891 0.0
714 2 13.1164688208 18.1576055891 0.0
715 2 19.3549688208 20.8370055891 0.0
716 2 16.7127688208 20.7714055891 0.0
717 2 23.4199688208 17.8413055891 0.0
718 2 21.7351688208 20.2227055891 0.0
719 2 32.5428688208 18.5215055891 0.0
720 2 30.9825688208 20.7505055891 0.0
721 2 34.7363688208 21.8004055891 0.0
722 2 34.7071688208 19.3309055891 0.0
723 2 36.9052688208 19.8833055891 0.0
724 2 39.3711688208 19.4660055891 0.0
725 2 45.9630688208 20.9902055891 0.0
726 2 46.1393688208 18.6241055891 0.0
727 2 48.3545688208 20.5661055891 0.0
728 2 52.7898688208 20.8997055891 0.0
729 2 50.8819688208 22.0547055891 0.0
730 2 53.4199688208 23.4413055891 0.0
731 2 57.0624688208 18.9586055891 0.0
732 2 56.1835688208 16.7841055891 0.0
733 2 58.5355688208 16.4343055891 0.0
734 2 58.8036688208 23.0706055891 0.0
735 2 56.7911688208 21.5858055891 0.0
736 2 55.9994688208 23.8154055891 0.0
737 2 66.8427688208 20.1130055891 0.0
738 2 65.2911688208 18.3491055891 0.0
739 2 64.1464688208 20.7984055891 0.0
740 2 71.9723688208 17.9443055891 0.0
741 2 69.4642688208 19.2308055891 0.0
742 2 0.0984908208277 19.2874055891 0.0
743 2 78.6026688208 16.7823055891 0.0
744 2 0.327584820828 21.8228055891 0.0
745 2 78.7779688208 24.0646055891 0.0
746 2 2.64239882083 23.2887055891 0.0
747 2 4.57050882083 24.9332055891 0.0
748 2 6.39264882083 26.8619055891 0.0
749 2 4.14453882083 27.7500055891 0.0
750 2 11.2776688208 25.8430055891 0.0
751 2 11.1743688208 23.0780055891 0.0
752 2 13.3516688208 24.5064055891 0.0
753 2 15.1505688208 22.9122055891 0.0
754 2 16.1754688208 25.1010055891 0.0
755 2 20.5076688208 22.8512055891 0.0
756 2 21.7073688208 24.6662055891 0.0
757 2 18.9032688208 25.0414055891 0.0
758 2 25.6112688208 21.0679055891 0.0
759 2 26.6245688208 23.0462055891 0.0
760 2 24.1739688208 23.7079055891 0.0
761 2 28.1661688208 24.9980055891 0.0
762 2 29.9838688208 26.6074055891 0.0
763 2 27.8480688208 27.8026055891 0.0
764 2 34.1508688208 24.3287055891 0.0
765 2 34.8955688208 27.1599055891 0.0
766 2 32.7636688208 26.2203055891 0.0
767 2 41.9780688208 24.1510055891 0.0
768 2 43.3581688208 26.4596055891 0.0
769 2 41.1076688208 26.8203055891 0.0
770 2 47.6659688208 25.4863055891 0.0
771 2 46.2403688208 23.2740055891 0.0
772 2 48.6000688208 22.9203055891 0.0
773 2 61.6049688208 22.2861055891 0.0
774 2 60.8277688208 24.5529055891 0.0
775 2 63.8035688208 23.2244055891 0.0
776 2 65.7714688208 24.9745055891 0.0
777 2 63.0236688208 25.4505055891 0.0
778 2 68.9011688208 21.6490055891 0.0
779 2 70.7907688208 23.6050055891 0.0
780 2 68.2779688208 24.0800055891 0.0
781 2 73.5083688208 23.7194055891 0.0
782 2 76.1724688208 23.9923055891 0.0
783 2 74.9511688208 21.6677055891 0.0
784 2 4.24160882083 30.5015055891 0.0
785 2 2.04564882083 29.4808055891 0.0
786 2 7.76406882083 29.0452055891 0.0
787 2 9.05938882083 31.3975055891 0.0