ITEM: TIMESTEP
0
ITEM: NUMBER OF ATOMS
1350
ITEM: BOX BOUNDS xy xz yz pp pp pp
0.0 78.0512888364 0
0.0 81.4172297074 0
-10.0 10.0 0
ITEM: ATOMS id type x y z vx vy vz
1 1 2.26770219506 1.87226485368 0.0 0.0 0.0 0.0
2 1 7.38583219506 1.55749485368 0.0 0.0 0.0 0.0
3 1 12.3783821951 1.78786485368 0.0 0.0 0.0 0.0
4 1 17.5937821951 1.65550485368 0.0 0.0 0.0 0.0
5 1 22.8505821951 0.55908485368 0.0 0.0 0.0 0.0
6 1 28.4279821951 0.49685385368 0.0 0.0 0.0 0.0
7 1 35.3919821951 81.2035148537 0.0 0.0 0.0 0.0
8 1 38.3920821951 0.27461685368 0.0 0.0 0.0 0.0
9 1 43.1685821951 1.28357485368 0.0 0.0 0.0 0.0
10 1 48.8118821951 1.10602485368 0.0 0.0 0.0 0.0
11 1 53.5920821951 2.38960485368 0.0 0.0 0.0 0.0
12 1 58.5810821951 1.64203485368 0.0 0.0 0.0 0.0
13 1 63.9056821951 2.03661485368 0.0 0.0 0.0 0.0
14 1 69.5071821951 2.51521485368 0.0 0.0 0.0 0.0
15 1 75.0021821951 2.82671485368 0.0 0.0 0.0 0.0
16 1 1.88325219506 5.89737485368 0.0 0.0 0.0 0.0
17 1 4.88872219506 6.24044485368 0.0 0.0 0.0 0.0
18 1 10.1720821951 6.29822485368 0.0 0.0 0.0 0.0
19 1 15.1519821951 7.91013485368 0.0 0.0 0.0 0.0
20 1 20.6249821951 5.55858485368 0.0 0.0 0.0 0.0
21 1 25.7398821951 4.78837485368 0.0 0.0 0.0 0.0
22 1 30.7675821951 5.26191485368 0.0 0.0 0.0 0.0
23 1 35.3069821951 5.25002485368 0.0 0.0 0.0 0.0
24 1 40.5665821951 5.54744485368 0.0 0.0 0.0 0.0
25 1 45.6323821951 5.22622485368 0.0 0.0 0.0 0.0
26 1 50.8217821951 7.43544485368 0.0 0.0 0.0 0.0
27 1 56.6685821951 6.58442485368 0.0 0.0 0.0 0.0
28 1 61.5834821951 8.30306485368 0.0 0.0 0.0 0.0
29 1 67.0952821951 6.40420485368 0.0 0.0 0.0 0.0
30 1 72.3107821951 6.96450485368 0.0 0.0 0.0 0.0
31 1 0.97113219506 10.8609148537 0.0 0.0 0.0 0.0
32 1 6.52030219506 10.6521148537 0.0 0.0 0.0 0.0
33 1 13.4851821951 10.4385148537 0.0 0.0 0.0 0.0
34 1 18.7085821951 10.2427148537 0.0 0.0 0.0 0.0
35 1 25.0661821951 9.28299485368 0.0 0.0 0.0 0.0
36 1 28.0689821951 9.67491485368 0.0 0.0 0.0 0.0
37 1 32.9093821951 10.2779148537 0.0 0.0 0.0 0.0
38 1 38.3368821951 9.92831485368 0.0 0.0 0.0 0.0
39 1 43.8493821951 9.99961485368 0.0 0.0 0.0 0.0
40 1 49.4011821951 10.0929148537 0.0 0.0 0.0 0.0
41 1 53.5062821951 13.0916148537 0.0 0.0 0.0 0.0
42 1 60.9787821951 11.2531148537 0.0 0.0 0.0 0.0
43 1 66.0755821951 10.6512148537 0.0 0.0 0.0 0.0
44 1 69.0358821951 11.1606148537 0.0 0.0 0.0 0.0
45 1 76.0477821951 11.2509148537 0.0 0.0 0.0 0.0
46 1 76.9119821951 16.3663148537 0.0 0.0 0.0 0.0
47 1 4.11734219506 14.9465148537 0.0 0.0 0.0 0.0
48 1 8.32216219506 13.0714148537 0.0 0.0 0.0 0.0
49 1 15.2455821951 14.6420148537 0.0 0.0 0.0 0.0
50 1 19.8529821951 15.0823148537 0.0 0.0 0.0 0.0
51 1 25.2201821951 14.7331148537 0.0 0.0 0.0 0.0
52 1 30.1994821951 14.8798148537 0.0 0.0 0.0 0.0
53 1 35.7225821951 14.4922148537 0.0 0.0 0.0 0.0
54 1 41.4388821951 14.2999148537 0.0 0.0 0.0 0.0
55 1 46.7265821951 14.3664148537 0.0 0.0 0.0 0.0
56 1 51.5037821951 15.2957148537 0.0 0.0 0.0 0.0
57 1 54.6520821951 19.5357148537 0.0 0.0 0.0 0.0
58 1 59.6939821951 16.5164148537 0.0 0.0 0.0 0.0
59 1 64.8310821951 15.2511148537 0.0 0.0 0.0 0.0
60 1 69.8185821951 14.0875148537 0.0 0.0 0.0 0.0
61 1 2.19642219506 19.8853148537 0.0 0.0 0.0 0.0
62 1 7.62278219506 18.7866148537 0.0 0.0 0.0 0.0
63 1 12.3976821951 18.3736148537 0.0 0.0 0.0 0.0
64 1 17.1806821951 21.3355148537 0.0 0.0 0.0 0.0
65 1 22.7918821951 19.1876148537 0.0 0.0 0.0 0.0
66 1 29.9633821951 23.6705148537 0.0 0.0 0.0 0.0
67 1 33.6906821951 18.9584148537 0.0 0.0 0.0 0.0
68 1 39.1048821951 18.4069148537 0.0 0.0 0.0 0.0
69 1 44.8831821951 18.7722148537 0.0 0.0 0.0 0.0
70 1 49.5440821951 19.5435148537 0.0 0.0 0.0 0.0
71 1 53.4318821951 23.9085148537 0.0 0.0 0.0 0.0
72 1 58.6286821951 21.3489148537 0.0 0.0 0.0 0.0
73 1 64.1624821951 19.8078148537 0.0 0.0 0.0 0.0
74 1 69.2092821951 21.3349148537 0.0 0.0 0.0 0.0
75 1 74.8338821951 20.8523148537 0.0 0.0 0.0 0.0
76 1 0.41774219506 24.5423148537 0.0 0.0 0.0 0.0
77 1 5.58522219506 23.5140148537 0.0 0.0 0.0 0.0
78 1 10.8261821951 23.4057148537 0.0 0.0 0.0 0.0
79 1 15.7076821951 23.9738148537 0.0 0.0 0.0 0.0
80 1 20.7620821951 23.5816148537 0.0 0.0 0.0 0.0
81 1 25.5432821951 22.0937148537 0.0 0.0 0.0 0.0
82 1 33.3456821951 24.1729148537 0.0 0.0 0.0 0.0
83 1 37.4277821951 22.8845148537 0.0 0.0 0.0 0.0
84 1 42.7364821951 22.3215148537 0.0 0.0 0.0 0.0
85 1 47.4521821951 24.1188148537 0.0 0.0 0.0 0.0
86 1 52.3947821951 26.7687148537 0.0 0.0 0.0 0.0
87 1 58.6632821951 25.4129148537 0.0 0.0 0.0 0.0
88 1 61.5049821951 24.4296148537 0.0 0.0 0.0 0.0
89 1 67.2895821951 23.6448148537 0.0 0.0 0.0 0.0
90 1 72.6251821951 25.1096148537 0.0 0.0 0.0 0.0
91 1 2.68290219506 28.3894148537 0.0 0.0 0.0 0.0
92 1 7.63144219506 27.8823148537 0.0 0.0 0.0 0.0
93 1 13.2171821951 28.5069148537 0.0 0.0 0.0 0.0
94 1 19.7059821951 28.0073148537 0.0 0.0 0.0 0.0
95 1 25.2776821951 26.9450148537 0.0 0.0 0.0 0.0
96 1 27.1540821951 24.6124148537 0.0 0.0 0.0 0.0
97 1 34.6918821951 28.2326148537 0.0 0.0 0.0 0.0
98 1 41.9577821951 26.3555148537 0.0 0.0 0.0 0.0
99 1 42.4844821951 30.7153148537 0.0 0.0 0.0 0.0
100 1 48.3757821951 29.4725148537 0.0 0.0 0.0 0.0
101 1 55.7820821951 31.7623148537 0.0 0.0 0.0 0.0
102 1 59.8300821951 29.9454148537 0.0 0.0 0.0 0.0
103 1 64.6735821951 27.6593148537 0.0 0.0 0.0 0.0
104 1 68.2940821951 26.4651148537 0.0 0.0 0.0 0.0
105 1 74.4710821951 27.4391148537 0.0 0.0 0.0 0.0
106 1 77.8516821951 33.2207148537 0.0 0.0 0.0 0.0
107 1 6.28148219506 32.5661148537 0.0 0.0 0.0 0.0
108 1 8.59985219506 30.7059148537 0.0 0.0 0.0 0.0
109 1 14.8756821951 31.0378148537 0.0 0.0 0.0 0.0
110 1 19.9906821951 35.1117148537 0.0 0.0 0.0 0.0
111 1 25.5112821951 32.9492148537 0.0 0.0 0.0 0.0
112 1 30.5513821951 32.1335148537 0.0 0.0 0.0 0.0
113 1 35.7427821951 32.2380148537 0.0 0.0 0.0 0.0
114 1 40.9693821951 33.3181148537 0.0 0.0 0.0 0.0
115 1 45.2703821951 33.2581148537 0.0 0.0 0.0 0.0
116 1 51.3743821951 34.6943148537 0.0 0.0 0.0 0.0
117 1 57.9695821951 33.8951148537 0.0 0.0 0.0 0.0
118 1 63.6827821951 32.8202148537 0.0 0.0 0.0 0.0
119 1 68.1684821951 32.0642148537 0.0 0.0 0.0 0.0
120 1 73.2473821951 32.9623148537 0.0 0.0 0.0 0.0
121 1 1.66040219506 38.0112148537 0.0 0.0 0.0 0.0
122 1 6.81219219506 37.8813148537 0.0 0.0 0.0 0.0
123 1 12.3694821951 36.4549148537 0.0 0.0 0.0 0.0
124 1 17.8049821951 37.2285148537 0.0 0.0 0.0 0.0
125 1 23.0512821951 37.6701148537 0.0 0.0 0.0 0.0
126 1 28.1228821951 37.2875148537 0.0 0.0 0.0 0.0
127 1 34.1281821951 36.5282148537 0.0 0.0 0.0 0.0
128 1 37.0966821951 36.8951148537 0.0 0.0 0.0 0.0
129 1 41.2239821951 36.3077148537 0.0 0.0 0.0 0.0
130 1 47.8408821951 34.7523148537 0.0 0.0 0.0 0.0
131 1 54.0539821951 39.1663148537 0.0 0.0 0.0 0.0
132 1 60.4934821951 39.3674148537 0.0 0.0 0.0 0.0
133 1 69.2006821951 39.2422148537 0.0 0.0 0.0 0.0
134 1 68.5323821951 36.3098148537 0.0 0.0 0.0 0.0
135 1 74.5901821951 37.9815148537 0.0 0.0 0.0 0.0
136 1 78.0071821951 42.4800148537 0.0 0.0 0.0 0.0
137 1 5.36813219506 44.1166148537 0.0 0.0 0.0 0.0
138 1 10.4442821951 41.1542148537 0.0 0.0 0.0 0.0
139 1 15.3111821951 43.2539148537 0.0 0.0 0.0 0.0
140 1 20.9123821951 41.8307148537 0.0 0.0 0.0 0.0
141 1 24.9964821951 44.4438148537 0.0 0.0 0.0 0.0
142 1 30.1366821951 42.2142148537 0.0 0.0 0.0 0.0
143 1 35.5484821951 41.7175148537 0.0 0.0 0.0 0.0
144 1 40.4689821951 41.5349148537 0.0 0.0 0.0 0.0
145 1 45.6150821951 40.2955148537 0.0 0.0 0.0 0.0
146 1 50.7076821951 40.6297148537 0.0 0.0 0.0 0.0
147 1 55.4113821951 41.8408148537 0.0 0.0 0.0 0.0
148 1 62.5294821951 43.0525148537 0.0 0.0 0.0 0.0
149 1 67.3814821951 43.4585148537 0.0 0.0 0.0 0.0
150 1 72.9302821951 42.8172148537 0.0 0.0 0.0 0.0
151 1 4.20188219506 46.9190148537 0.0 0.0 0.0 0.0
152 1 9.33041219506 46.2520148537 0.0 0.0 0.0 0.0
153 1 14.1779821951 46.0556148537 0.0 0.0 0.0 0.0
154 1 18.8198821951 46.3801148537 0.0 0.0 0.0 0.0
155 1 23.9918821951 47.2865148537 0.0 0.0 0.0 0.0
156 1 28.5851821951 47.2551148537 0.0 0.0 0.0 0.0
157 1 33.7917821951 46.0993148537 0.0 0.0 0.0 0.0
158 1 39.9593821951 45.8703148537 0.0 0.0 0.0 0.0
159 1 44.8171821951 44.9280148537 0.0 0.0 0.0 0.0
160 1 50.7914821951 45.3636148537 0.0 0.0 0.0 0.0
161 1 54.7849821951 48.7687148537 0.0 0.0 0.0 0.0
162 1 59.8675821951 47.3349148537 0.0 0.0 0.0 0.0
163 1 65.1061821951 49.3407148537 0.0 0.0 0.0 0.0
164 1 70.4732821951 47.3167148537 0.0 0.0 0.0 0.0
165 1 75.7605821951 47.3732148537 0.0 0.0 0.0 0.0
166 1 77.4095821951 49.9371148537 0.0 0.0 0.0 0.0
167 1 6.70666219506 51.0730148537 0.0 0.0 0.0 0.0
168 1 12.0789821951 50.9689148537 0.0 0.0 0.0 0.0
169 1 16.5038821951 51.1096148537 0.0 0.0 0.0 0.0
170 1 21.0433821951 53.3255148537 0.0 0.0 0.0 0.0
171 1 26.7632821951 52.1670148537 0.0 0.0 0.0 0.0
172 1 33.7079821951 49.9427148537 0.0 0.0 0.0 0.0
173 1 36.0291821951 48.0764148537 0.0 0.0 0.0 0.0
174 1 43.7737821951 49.9590148537 0.0 0.0 0.0 0.0
175 1 50.8598821951 50.9884148537 0.0 0.0 0.0 0.0
176 1 53.7899821951 51.5972148537 0.0 0.0 0.0 0.0
177 1 57.0370821951 55.3275148537 0.0 0.0 0.0 0.0
178 1 65.1546821951 52.3258148537 0.0 0.0 0.0 0.0
179 1 68.1605821951 52.1658148537 0.0 0.0 0.0 0.0
180 1 73.4128821951 51.7815148537 0.0 0.0 0.0 0.0
181 1 3.41345219506 54.9201148537 0.0 0.0 0.0 0.0
182 1 8.52958219506 55.2223148537 0.0 0.0 0.0 0.0
183 1 14.0516821951 56.1660148537 0.0 0.0 0.0 0.0
184 1 19.7746821951 56.0326148537 0.0 0.0 0.0 0.0
185 1 24.8578821951 56.2582148537 0.0 0.0 0.0 0.0
186 1 28.5641821951 54.5896148537 0.0 0.0 0.0 0.0
187 1 35.8799821951 55.1440148537 0.0 0.0 0.0 0.0
188 1 41.6156821951 53.8766148537 0.0 0.0 0.0 0.0
189 1 44.2480821951 55.3424148537 0.0 0.0 0.0 0.0
190 1 49.4480821951 55.6045148537 0.0 0.0 0.0 0.0
191 1 54.9161821951 57.5381148537 0.0 0.0 0.0 0.0
192 1 60.3269821951 58.3140148537 0.0 0.0 0.0 0.0
193 1 65.1436821951 56.3549148537 0.0 0.0 0.0 0.0
194 1 70.8130821951 56.4243148537 0.0 0.0 0.0 0.0
195 1 76.6710821951 55.8240148537 0.0 0.0 0.0 0.0
196 1 1.41238219506 60.1374148537 0.0 0.0 0.0 0.0
197 1 6.95515219506 59.4334148537 0.0 0.0 0.0 0.0
198 1 9.56978219506 58.0110148537 0.0 0.0 0.0 0.0
199 1 15.7849821951 58.6137148537 0.0 0.0 0.0 0.0
200 1 22.6356821951 60.6267148537 0.0 0.0 0.0 0.0
201 1 26.1688821951 58.9405148537 0.0 0.0 0.0 0.0
202 1 32.5798821951 59.7556148537 0.0 0.0 0.0 0.0
203 1 36.7015821951 59.9128148537 0.0 0.0 0.0 0.0
204 1 41.1359821951 59.9314148537 0.0 0.0 0.0 0.0
205 1 44.9110821951 58.3466148537 0.0 0.0 0.0 0.0
206 1 51.8663821951 62.4814148537 0.0 0.0 0.0 0.0
207 1 56.3890821951 62.4848148537 0.0 0.0 0.0 0.0
208 1 63.8722821951 61.5975148537 0.0 0.0 0.0 0.0
209 1 68.6356821951 60.3036148537 0.0 0.0 0.0 0.0
210 1 72.6468821951 58.8107148537 0.0 0.0 0.0 0.0
211 1 3.08686219506 65.0007148537 0.0 0.0 0.0 0.0
212 1 8.19263219506 65.0773148537 0.0 0.0 0.0 0.0
213 1 14.9866821951 64.1168148537 0.0 0.0 0.0 0.0
214 1 20.2569821951 64.5683148537 0.0 0.0 0.0 0.0
215 1 24.9373821951 64.7854148537 0.0 0.0 0.0 0.0
216 1 29.6640821951 63.4870148537 0.0 0.0 0.0 0.0
217 1 34.4503821951 64.9528148537 0.0 0.0 0.0 0.0
218 1 39.7890821951 64.7234148537 0.0 0.0 0.0 0.0
219 1 45.7195821951 67.5935148537 0.0 0.0 0.0 0.0
220 1 51.4086821951 65.5132148537 0.0 0.0 0.0 0.0
221 1 55.9170821951 65.4467148537 0.0 0.0 0.0 0.0
222 1 61.3983821951 65.9188148537 0.0 0.0 0.0 0.0
223 1 66.4447821951 65.5279148537 0.0 0.0 0.0 0.0
224 1 71.5146821951 64.5406148537 0.0 0.0 0.0 0.0
225 1 76.2343821951 64.5839148537 0.0 0.0 0.0 0.0
226 1 1.93041219506 69.2086148537 0.0 0.0 0.0 0.0
227 1 4.94787219506 69.5340148537 0.0 0.0 0.0 0.0
228 1 10.4464821951 70.1982148537 0.0 0.0 0.0 0.0
229 1 14.8586821951 69.3057148537 0.0 0.0 0.0 0.0
230 1 19.1775821951 68.3014148537 0.0 0.0 0.0 0.0
231 1 22.5289821951 66.5533148537 0.0 0.0 0.0 0.0
232 1 29.4776821951 71.0595148537 0.0 0.0 0.0 0.0
233 1 37.2821821951 69.1527148537 0.0 0.0 0.0 0.0
234 1 42.7355821951 67.1218148537 0.0 0.0 0.0 0.0
235 1 48.8408821951 69.7768148537 0.0 0.0 0.0 0.0
236 1 55.3860821951 70.1043148537 0.0 0.0 0.0 0.0
237 1 58.3853821951 69.8043148537 0.0 0.0 0.0 0.0
238 1 64.0443821951 70.2927148537 0.0 0.0 0.0 0.0
239 1 69.2847821951 69.5172148537 0.0 0.0 0.0 0.0
240 1 72.5611821951 72.1280148537 0.0 0.0 0.0 0.0
241 1 2.01393219506 74.3543148537 0.0 0.0 0.0 0.0
242 1 7.60250219506 74.0948148537 0.0 0.0 0.0 0.0
243 1 15.1740821951 73.9779148537 0.0 0.0 0.0 0.0
244 1 19.6317821951 72.9046148537 0.0 0.0 0.0 0.0
245 1 22.6333821951 72.4752148537 0.0 0.0 0.0 0.0
246 1 27.8236821951 73.5665148537 0.0 0.0 0.0 0.0
247 1 32.2035821951 72.3189148537 0.0 0.0 0.0 0.0
248 1 39.5749821951 72.0076148537 0.0 0.0 0.0 0.0
249 1 44.1057821951 73.0001148537 0.0 0.0 0.0 0.0
250 1 48.7358821951 74.0660148537 0.0 0.0 0.0 0.0
251 1 53.0268821951 74.0186148537 0.0 0.0 0.0 0.0
252 1 60.8052821951 74.0325148537 0.0 0.0 0.0 0.0
253 1 65.9878821951 74.2624148537 0.0 0.0 0.0 0.0
254 1 70.7588821951 74.5889148537 0.0 0.0 0.0 0.0
255 1 75.3875821951 75.4950148537 0.0 0.0 0.0 0.0
256 1 77.9151821951 3.65170485368 0.0 0.0 0.0 0.0
257 1 4.92792219506 3.25106485368 0.0 0.0 0.0 0.0
258 1 9.80238219506 3.32376485368 0.0 0.0 0.0 0.0
259 1 14.9889821951 3.24527485368 0.0 0.0 0.0 0.0
260 1 20.5063821951 2.52241485368 0.0 0.0 0.0 0.0
261 1 25.6565821951 1.75995485368 0.0 0.0 0.0 0.0
262 1 30.9488821951 2.24962485368 0.0 0.0 0.0 0.0
263 1 33.9883821951 2.47741485368 0.0 0.0 0.0 0.0
264 1 40.4178821951 2.52530485368 0.0 0.0 0.0 0.0
265 1 46.0108821951 2.24251485368 0.0 0.0 0.0 0.0
266 1 50.7532821951 3.36425485368 0.0 0.0 0.0 0.0
267 1 56.3139821951 3.61445485368 0.0 0.0 0.0 0.0
268 1 61.1102821951 3.29165485368 0.0 0.0 0.0 0.0
269 1 66.6186821951 3.42785485368 0.0 0.0 0.0 0.0
270 1 72.1887821951 3.95058485368 0.0 0.0 0.0 0.0
271 1 77.9085821951 8.08203485368 0.0 0.0 0.0 0.0
272 1 7.50067219506 7.78259485368 0.0 0.0 0.0 0.0
273 1 13.1621821951 5.67907485368 0.0 0.0 0.0 0.0
274 1 18.1343821951 7.30430485368 0.0 0.0 0.0 0.0
275 1 23.4315821951 6.72371485368 0.0 0.0 0.0 0.0
276 1 28.1170821951 6.65619485368 0.0 0.0 0.0 0.0
277 1 33.0393821951 7.24408485368 0.0 0.0 0.0 0.0
278 1 37.8695821951 6.91342485368 0.0 0.0 0.0 0.0
279 1 43.2152821951 7.03198485368 0.0 0.0 0.0 0.0
280 1 48.6156821951 5.45416485368 0.0 0.0 0.0 0.0
281 1 53.8345821951 7.73258485368 0.0 0.0 0.0 0.0
282 1 59.6614821951 5.98533485368 0.0 0.0 0.0 0.0
283 1 64.5872821951 8.04778485368 0.0 0.0 0.0 0.0
284 1 69.5536821951 8.18379485368 0.0 0.0 0.0 0.0
285 1 74.9323821951 8.46750485368 0.0 0.0 0.0 0.0
286 1 75.0312821951 14.0473148537 0.0 0.0 0.0 0.0
287 1 3.78856219506 11.9465148537 0.0 0.0 0.0 0.0
288 1 11.2893821951 12.5383148537 0.0 0.0 0.0 0.0
289 1 16.1462821951 11.8030148537 0.0 0.0 0.0 0.0
290 1 20.8992821951 12.2730148537 0.0 0.0 0.0 0.0
291 1 23.8951821951 12.0408148537 0.0 0.0 0.0 0.0
292 1 30.2664821951 11.8052148537 0.0 0.0 0.0 0.0
293 1 35.7064821951 11.4643148537 0.0 0.0 0.0 0.0
294 1 41.0897821951 11.2822148537 0.0 0.0 0.0 0.0
295 1 46.6113821951 11.3276148537 0.0 0.0 0.0 0.0
296 1 52.3915821951 10.3659148537 0.0 0.0 0.0 0.0
297 1 56.1844821951 14.3762148537 0.0 0.0 0.0 0.0
298 1 59.0694821951 13.5779148537 0.0 0.0 0.0 0.0
299 1 63.7164821951 12.4815148537 0.0 0.0 0.0 0.0
300 1 72.4497821951 15.5541148537 0.0 0.0 0.0 0.0
301 1 1.81923219506 16.8992148537 0.0 0.0 0.0 0.0
302 1 7.01177219506 15.8059148537 0.0 0.0 0.0 0.0
303 1 12.3418821951 15.3622148537 0.0 0.0 0.0 0.0
304 1 17.3549821951 16.7423148537 0.0 0.0 0.0 0.0
305 1 22.6133821951 16.2158148537 0.0 0.0 0.0 0.0
306 1 27.6140821951 16.5625148537 0.0 0.0 0.0 0.0
307 1 33.0565821951 15.9874148537 0.0 0.0 0.0 0.0
308 1 38.6204821951 15.4355148537 0.0 0.0 0.0 0.0
309 1 44.0956821951 15.8286148537 0.0 0.0 0.0 0.0
310 1 48.8040821951 16.5869148537 0.0 0.0 0.0 0.0
311 1 54.1815821951 16.6075148537 0.0 0.0 0.0 0.0
312 1 57.5113821951 18.5941148537 0.0 0.0 0.0 0.0
313 1 62.6066821951 17.2482148537 0.0 0.0 0.0 0.0
314 1 67.6725821951 16.2046148537 0.0 0.0 0.0 0.0
315 1 74.3291821951 17.8979148537 0.0 0.0 0.0 0.0
316 1 77.7606821951 21.6174148537 0.0 0.0 0.0 0.0
317 1 5.14966219506 20.5322148537 0.0 0.0 0.0 0.0
318 1 10.1863821951 20.4252148537 0.0 0.0 0.0 0.0
319 1 15.3510821951 18.9729148537 0.0 0.0 0.0 0.0
320 1 20.1391821951 20.6633148537 0.0 0.0 0.0 0.0
321 1 25.8327821951 19.0833148537 0.0 0.0 0.0 0.0
322 1 32.0268821951 21.4845148537 0.0 0.0 0.0 0.0
323 1 36.5387821951 20.0003148537 0.0 0.0 0.0 0.0
324 1 41.9508821951 19.4364148537 0.0 0.0 0.0 0.0
325 1 46.9468821951 21.0745148537 0.0 0.0 0.0 0.0
326 1 52.1235821951 21.1749148537 0.0 0.0 0.0 0.0
327 1 56.4271821951 23.4145148537 0.0 0.0 0.0 0.0
328 1 61.6343821951 21.4473148537 0.0 0.0 0.0 0.0
329 1 67.1227821951 19.1673148537 0.0 0.0 0.0 0.0
330 1 72.1159821951 22.1513148537 0.0 0.0 0.0 0.0
331 1 3.26770219506 25.4339148537 0.0 0.0 0.0 0.0
332 1 8.23261219506 24.9340148537 0.0 0.0 0.0 0.0
333 1 13.0742821951 25.4546148537 0.0 0.0 0.0 0.0
334 1 18.3576821951 25.3506148537 0.0 0.0 0.0 0.0
335 1 23.6242821951 24.4176148537 0.0 0.0 0.0 0.0
336 1 31.2960821951 26.3642148537 0.0 0.0 0.0 0.0
337 1 35.9838821951 25.5094148537 0.0 0.0 0.0 0.0
338 1 40.2285821951 23.9198148537 0.0 0.0 0.0 0.0
339 1 44.5051821951 24.7448148537 0.0 0.0 0.0 0.0
340 1 49.3389821951 26.5699148537 0.0 0.0 0.0 0.0
341 1 54.5508821951 28.9640148537 0.0 0.0 0.0 0.0
342 1 57.4383821951 28.1368148537 0.0 0.0 0.0 0.0
343 1 64.4850821951 24.6819148537 0.0 0.0 0.0 0.0
344 1 71.0151821951 27.6332148537 0.0 0.0 0.0 0.0
345 1 77.4196821951 27.3633148537 0.0 0.0 0.0 0.0
346 1 0.30946519506 30.2215148537 0.0 0.0 0.0 0.0
347 1 5.29681219506 29.7532148537 0.0 0.0 0.0 0.0
348 1 11.5283821951 30.9829148537 0.0 0.0 0.0 0.0
349 1 17.7296821951 30.2309148537 0.0 0.0 0.0 0.0
350 1 21.9990821951 29.9237148537 0.0 0.0 0.0 0.0
351 1 24.9938821951 29.9598148537 0.0 0.0 0.0 0.0
352 1 31.8489821951 29.3399148537 0.0 0.0 0.0 0.0
353 1 37.3086821951 29.6849148537 0.0 0.0 0.0 0.0
354 1 40.1952821951 28.7906148537 0.0 0.0 0.0 0.0
355 1 45.4569821951 30.2732148537 0.0 0.0 0.0 0.0
356 1 54.3258821951 34.3553148537 0.0 0.0 0.0 0.0
357 1 60.7137821951 32.8031148537 0.0 0.0 0.0 0.0
358 1 62.8020821951 29.9458148537 0.0 0.0 0.0 0.0
359 1 67.1898821951 29.2364148537 0.0 0.0 0.0 0.0
360 1 72.8772821951 29.9726148537 0.0 0.0 0.0 0.0
361 1 2.18374219506 35.0624148537 0.0 0.0 0.0 0.0
362 1 5.18217219506 35.3442148537 0.0 0.0 0.0 0.0
363 1 13.1379821951 33.5072148537 0.0 0.0 0.0 0.0
364 1 19.9963821951 32.1434148537 0.0 0.0 0.0 0.0
365 1 23.0075821951 34.6878148537 0.0 0.0 0.0 0.0
366 1 28.2796821951 34.2090148537 0.0 0.0 0.0 0.0
367 1 33.1195821951 33.6967148537 0.0 0.0 0.0 0.0
368 1 38.0854821951 34.0734148537 0.0 0.0 0.0 0.0
369 1 44.1619821951 36.0103148537 0.0 0.0 0.0 0.0
370 1 49.5656821951 32.2911148537 0.0 0.0 0.0 0.0
371 1 55.9400821951 36.8822148537 0.0 0.0 0.0 0.0
372 1 58.9047821951 36.7852148537 0.0 0.0 0.0 0.0
373 1 66.2493821951 34.3632148537 0.0 0.0 0.0 0.0
374 1 70.4419821951 33.9996148537 0.0 0.0 0.0 0.0
375 1 75.4195821951 35.0440148537 0.0 0.0 0.0 0.0
376 1 77.1491821951 39.5869148537 0.0 0.0 0.0 0.0
377 1 4.26410219506 39.5195148537 0.0 0.0 0.0 0.0
378 1 9.84258219506 38.1840148537 0.0 0.0 0.0 0.0
379 1 14.8809821951 38.1514148537 0.0 0.0 0.0 0.0
380 1 20.2977821951 38.9070148537 0.0 0.0 0.0 0.0
381 1 25.6718821951 39.1270148537 0.0 0.0 0.0 0.0
382 1 30.4608821951 39.2331148537 0.0 0.0 0.0 0.0
383 1 33.4923821951 39.4544148537 0.0 0.0 0.0 0.0
384 1 39.4553821951 38.7180148537 0.0 0.0 0.0 0.0
385 1 46.7315821951 37.5213148537 0.0 0.0 0.0 0.0
386 1 51.4146821951 37.7215148537 0.0 0.0 0.0 0.0
387 1 58.4363821951 41.6292148537 0.0 0.0 0.0 0.0
388 1 63.4296821951 40.1909148537 0.0 0.0 0.0 0.0
389 1 66.4659821951 40.5769148537 0.0 0.0 0.0 0.0
390 1 72.1914821951 39.8649148537 0.0 0.0 0.0 0.0
391 1 2.99168219506 42.2554148537 0.0 0.0 0.0 0.0
392 1 8.34780219506 43.3960148537 0.0 0.0 0.0 0.0
393 1 13.4777821951 40.8518148537 0.0 0.0 0.0 0.0
394 1 18.3357821951 43.4178148537 0.0 0.0 0.0 0.0
395 1 23.9406821951 41.6331148537 0.0 0.0 0.0 0.0
396 1 27.9926821951 44.3188148537 0.0 0.0 0.0 0.0
397 1 32.9662821951 43.2375148537 0.0 0.0 0.0 0.0
398 1 38.1267821951 43.4065148537 0.0 0.0 0.0 0.0
399 1 43.3786821951 42.2826148537 0.0 0.0 0.0 0.0
400 1 48.0594821951 41.9967148537 0.0 0.0 0.0 0.0
401 1 52.6226821951 42.9647148537 0.0 0.0 0.0 0.0
402 1 59.7998821951 44.3140148537 0.0 0.0 0.0 0.0
403 1 64.7937821951 45.0021148537 0.0 0.0 0.0 0.0
404 1 70.2892821951 44.3088148537 0.0 0.0 0.0 0.0
405 1 75.5914821951 44.3253148537 0.0 0.0 0.0 0.0
406 1 2.31644219506 49.3014148537 0.0 0.0 0.0 0.0
407 1 6.95698219506 48.0911148537 0.0 0.0 0.0 0.0
408 1 11.8299821951 47.9380148537 0.0 0.0 0.0 0.0
409 1 16.3620821951 48.1049148537 0.0 0.0 0.0 0.0
410 1 21.1462821951 48.2568148537 0.0 0.0 0.0 0.0
411 1 26.3109821951 49.1985148537 0.0 0.0 0.0 0.0
412 1 31.4752821951 47.9906148537 0.0 0.0 0.0 0.0
413 1 38.9518821951 48.6980148537 0.0 0.0 0.0 0.0
414 1 42.7547821951 47.0955148537 0.0 0.0 0.0 0.0
415 1 47.8163821951 44.9717148537 0.0 0.0 0.0 0.0
416 1 51.8634821951 48.1554148537 0.0 0.0 0.0 0.0
417 1 57.7023821951 49.4681148537 0.0 0.0 0.0 0.0
418 1 62.8905821951 47.3389148537 0.0 0.0 0.0 0.0
419 1 68.0964821951 49.1616148537 0.0 0.0 0.0 0.0
420 1 73.1026821951 48.7830148537 0.0 0.0 0.0 0.0
421 1 3.82168219506 51.9239148537 0.0 0.0 0.0 0.0
422 1 9.41298219506 52.3628148537 0.0 0.0 0.0 0.0
423 1 14.2324821951 53.1105148537 0.0 0.0 0.0 0.0
424 1 19.4956821951 50.7741148537 0.0 0.0 0.0 0.0
425 1 24.0423821951 53.3887148537 0.0 0.0 0.0 0.0
426 1 31.5381821951 54.6229148537 0.0 0.0 0.0 0.0
427 1 33.9474821951 52.8917148537 0.0 0.0 0.0 0.0
428 1 40.9502821951 50.9502148537 0.0 0.0 0.0 0.0
429 1 45.4301821951 52.5255148537 0.0 0.0 0.0 0.0
430 1 48.4356821951 52.7707148537 0.0 0.0 0.0 0.0
431 1 56.6855821951 52.3302148537 0.0 0.0 0.0 0.0
432 1 60.0589821951 55.3360148537 0.0 0.0 0.0 0.0
433 1 62.9185821951 54.3269148537 0.0 0.0 0.0 0.0
434 1 70.8942821951 53.4271148537 0.0 0.0 0.0 0.0
435 1 76.2581821951 52.7782148537 0.0 0.0 0.0 0.0
436 1 1.34079219506 57.1013148537 0.0 0.0 0.0 0.0
437 1 5.88116219506 56.6267148537 0.0 0.0 0.0 0.0
438 1 12.4414821951 58.7332148537 0.0 0.0 0.0 0.0
439 1 18.7289821951 58.8272148537 0.0 0.0 0.0 0.0
440 1 22.2597821951 57.6684148537 0.0 0.0 0.0 0.0
441 1 28.8156821951 57.6038148537 0.0 0.0 0.0 0.0
442 1 33.4674821951 56.9052148537 0.0 0.0 0.0 0.0
443 1 38.8482821951 54.9740148537 0.0 0.0 0.0 0.0
444 1 38.9304821951 57.9411148537 0.0 0.0 0.0 0.0
445 1 47.9029821951 58.1763148537 0.0 0.0 0.0 0.0
446 1 51.9233821951 57.2934148537 0.0 0.0 0.0 0.0
447 1 58.9733821951 60.9812148537 0.0 0.0 0.0 0.0
448 1 63.2902821951 58.6859148537 0.0 0.0 0.0 0.0
449 1 67.9700821951 57.3749148537 0.0 0.0 0.0 0.0
450 1 75.6368821951 58.6960148537 0.0 0.0 0.0 0.0
451 1 3.71639219506 62.0808148537 0.0 0.0 0.0 0.0
452 1 6.71506219506 62.4249148537 0.0 0.0 0.0 0.0
453 1 14.2064821951 61.1709148537 0.0 0.0 0.0 0.0
454 1 19.8361821951 61.6103148537 0.0 0.0 0.0 0.0
455 1 25.3619821951 61.8210148537 0.0 0.0 0.0 0.0
456 1 29.7042821951 60.4753148537 0.0 0.0 0.0 0.0
457 1 34.5463821951 61.9681148537 0.0 0.0 0.0 0.0
458 1 38.9083821951 61.9002148537 0.0 0.0 0.0 0.0
459 1 43.8276821951 61.2085148537 0.0 0.0 0.0 0.0
460 1 50.3630821951 59.8811148537 0.0 0.0 0.0 0.0
461 1 54.1694821951 60.4921148537 0.0 0.0 0.0 0.0
462 1 61.2215821951 62.9467148537 0.0 0.0 0.0 0.0
463 1 66.6831821951 62.5574148537 0.0 0.0 0.0 0.0
464 1 71.3712821951 61.5274148537 0.0 0.0 0.0 0.0
465 1 76.7783821951 61.5351148537 0.0 0.0 0.0 0.0
466 1 0.51441219506 66.5282148537 0.0 0.0 0.0 0.0
467 1 5.61685219506 66.6135148537 0.0 0.0 0.0 0.0
468 1 10.4142821951 67.1556148537 0.0 0.0 0.0 0.0
469 1 13.3843821951 66.6644148537 0.0 0.0 0.0 0.0
470 1 17.5288821951 65.7665148537 0.0 0.0 0.0 0.0
471 1 27.7347821951 65.7728148537 0.0 0.0 0.0 0.0
472 1 31.5860821951 65.7963148537 0.0 0.0 0.0 0.0
473 1 37.1734821951 66.1824148537 0.0 0.0 0.0 0.0
474 1 42.7333821951 64.0832148537 0.0 0.0 0.0 0.0
475 1 48.6458821951 66.7869148537 0.0 0.0 0.0 0.0
476 1 53.7308821951 67.5112148537 0.0 0.0 0.0 0.0
477 1 58.5631821951 66.8320148537 0.0 0.0 0.0 0.0
478 1 64.0435821951 67.3052148537 0.0 0.0 0.0 0.0
479 1 69.2500821951 66.5208148537 0.0 0.0 0.0 0.0
480 1 73.8212821951 66.4626148537 0.0 0.0 0.0 0.0
481 1 0.41469219506 71.8030148537 0.0 0.0 0.0 0.0
482 1 7.55095219506 71.0889148537 0.0 0.0 0.0 0.0
483 1 13.0982821951 71.7197148537 0.0 0.0 0.0 0.0
484 1 17.5044821951 70.7547148537 0.0 0.0 0.0 0.0
485 1 21.9639821951 69.4988148537 0.0 0.0 0.0 0.0
486 1 29.6339821951 68.0685148537 0.0 0.0 0.0 0.0
487 1 35.0025821951 71.1586148537 0.0 0.0 0.0 0.0
488 1 40.3296821951 69.0834148537 0.0 0.0 0.0 0.0
489 1 45.9452821951 70.5904148537 0.0 0.0 0.0 0.0
490 1 50.8524821951 71.9617148537 0.0 0.0 0.0 0.0
491 1 55.8689821951 73.1086148537 0.0 0.0 0.0 0.0
492 1 61.1271821951 71.0607148537 0.0 0.0 0.0 0.0
493 1 66.8616821951 71.3685148537 0.0 0.0 0.0 0.0
494 1 72.2894821951 69.1251148537 0.0 0.0 0.0 0.0
495 1 75.5433821951 72.5118148537 0.0 0.0 0.0 0.0
496 1 0.0806431950604 76.6533148537 0.0 0.0 0.0 0.0
497 1 4.85389219506 75.3341148537 0.0 0.0 0.0 0.0
498 1 10.1803821951 75.6655148537 0.0 0.0 0.0 0.0
499 1 13.1550821951 76.1732148537 0.0 0.0 0.0 0.0
500 1 17.9223821951 75.3660148537 0.0 0.0 0.0 0.0
501 1 24.9426821951 74.5141148537 0.0 0.0 0.0 0.0
502 1 30.5597821951 74.8509148537 0.0 0.0 0.0 0.0
503 1 36.9117821951 73.4610148537 0.0 0.0 0.0 0.0
504 1 41.4107821951 74.3578148537 0.0 0.0 0.0 0.0
505 1 46.0118821951 75.2989148537 0.0 0.0 0.0 0.0
506 1 50.9054821951 76.1118148537 0.0 0.0 0.0 0.0
507 1 58.0526821951 75.2252148537 0.0 0.0 0.0 0.0
508 1 63.3156821951 75.6733148537 0.0 0.0 0.0 0.0
509 1 68.2207821951 76.2614148537 0.0 0.0 0.0 0.0
510 1 72.7252821951 76.8522148537 0.0 0.0 0.0 0.0
511 1 4.56285219506 78.3259148537 0.0 0.0 0.0 0.0
512 1 9.69108219506 78.6151148537 0.0 0.0 0.0 0.0
513 1 14.7843821951 78.7087148537 0.0 0.0 0.0 0.0
514 1 19.6469821951 77.9073148537 0.0 0.0 0.0 0.0
515 1 25.3083821951 77.5598148537 0.0 0.0 0.0 0.0
516 1 31.0221821951 77.8338148537 0.0 0.0 0.0 0.0
517 1 36.3347821951 76.4282148537 0.0 0.0 0.0 0.0
518 1 40.3607821951 79.4054148537 0.0 0.0 0.0 0.0
519 1 46.0128821951 78.2950148537 0.0 0.0 0.0 0.0
520 1 51.1067821951 80.5717148537 0.0 0.0 0.0 0.0
521 1 59.0603821951 78.0849148537 0.0 0.0 0.0 0.0
522 1 62.0876821951 78.4293148537 0.0 0.0 0.0 0.0
523 1 67.0982821951 79.0936148537 0.0 0.0 0.0 0.0
524 1 72.2985821951 79.8202148537 0.0 0.0 0.0 0.0
525 1 77.4656821951 79.5744148537 0.0 0.0 0.0 0.0
526 1 2.31002219506 80.3059148537 0.0 0.0 0.0 0.0
527 1 7.04560219506 80.0000148537 0.0 0.0 0.0 0.0
528 1 12.2134821951 80.2295148537 0.0 0.0 0.0 0.0
529 1 17.4973821951 80.0393148537 0.0 0.0 0.0 0.0
530 1 22.5540821951 78.9349148537 0.0 0.0 0.0 0.0
531 1 28.1268821951 78.8790148537 0.0 0.0 0.0 0.0
532 1 34.0403821951 78.4624148537 0.0 0.0 0.0 0.0
533 1 39.3606821951 76.5856148537 0.0 0.0 0.0 0.0
534 1 43.3504821951 79.7133148537 0.0 0.0 0.0 0.0
535 1 49.0268821951 78.4342148537 0.0 0.0 0.0 0.0
536 1 54.1185821951 80.8504148537 0.0 0.0 0.0 0.0
537 1 57.1262821951 80.4103148537 0.0 0.0 0.0 0.0
538 1 64.3580821951 80.4392148537 0.0 0.0 0.0 0.0
539 1 69.5002821951 80.9225148537 0.0 0.0 0.0 0.0
540 1 74.9535821951 81.2339148537 0.0 0.0 0.0 0.0
541 2 0.98095219506 2.63157485368 0.0 0.0 0.0 0.0
542 2 3.58726219506 2.58522485368 0.0 0.0 0.0 0.0
543 2 2.36225219506 0.38304685368 0.0 0.0 0.0 0.0
544 2 7.20602219506 0.0731848536802 0.0 0.0 0.0 0.0
545 2 8.60534219506 2.42508485368 0.0 0.0 0.0 0.0
546 2 6.14673219506 2.39337485368 0.0 0.0 0.0 0.0
547 2 12.2611821951 0.30116785368 0.0 0.0 0.0 0.0
548 2 13.7343821951 2.40363485368 0.0 0.0 0.0 0.0
549 2 11.1074821951 2.58061485368 0.0 0.0 0.0 0.0
550 2 17.5338821951 0.13416785368 0.0 0.0 0.0 0.0
551 2 16.3362821951 2.53015485368 0.0 0.0 0.0 0.0
552 2 19.0427821951 2.10287485368 0.0 0.0 0.0 0.0
553 2 22.6765821951 80.4624148537 0.0 0.0 0.0 0.0
554 2 21.6712821951 1.53871485368 0.0 0.0 0.0 0.0
555 2 24.2674821951 1.13303485368 0.0 0.0 0.0 0.0
556 2 28.2792821951 80.4009148537 0.0 0.0 0.0 0.0
557 2 27.0392821951 1.12908485368 0.0 0.0 0.0 0.0
558 2 29.7302821951 1.32141485368 0.0 0.0 0.0 0.0
559 2 36.9001821951 0.0240118536802 0.0 0.0 0.0 0.0
560 2 34.6924821951 1.13130485368 0.0 0.0 0.0 0.0
561 2 34.6859821951 79.8530148537 0.0 0.0 0.0 0.0
562 2 39.2992821951 1.50062485368 0.0 0.0 0.0 0.0
563 2 39.3561821951 80.5250148537 0.0 0.0 0.0 0.0
564 2 43.3021821951 81.2091148537 0.0 0.0 0.0 0.0
565 2 44.5942821951 1.75030485368 0.0 0.0 0.0 0.0
566 2 41.8138821951 1.93168485368 0.0 0.0 0.0 0.0
567 2 49.9368821951 0.11500185368 0.0 0.0 0.0 0.0
568 2 49.7780821951 2.24112485368 0.0 0.0 0.0 0.0
569 2 47.3599821951 1.55418485368 0.0 0.0 0.0 0.0
570 2 53.8693821951 0.91935485368 0.0 0.0 0.0 0.0
571 2 54.9157821951 3.07994485368 0.0 0.0 0.0 0.0
572 2 52.2083821951 2.97588485368 0.0 0.0 0.0 0.0
573 2 57.9275821951 0.28134285368 0.0 0.0 0.0 0.0
574 2 59.9195821951 2.33957485368 0.0 0.0 0.0 0.0
575 2 57.4654821951 2.66077485368 0.0 0.0 0.0 0.0
576 2 64.1124821951 0.52404885368 0.0 0.0 0.0 0.0
577 2 65.2557821951 2.75490485368 0.0 0.0 0.0 0.0
578 2 62.5273821951 2.70957485368 0.0 0.0 0.0 0.0
579 2 69.5104821951 1.00682485368 0.0 0.0 0.0 0.0
580 2 70.8432821951 3.24569485368 0.0 0.0 0.0 0.0
581 2 68.0589821951 2.94801485368 0.0 0.0 0.0 0.0
582 2 73.6047821951 3.40139485368 0.0 0.0 0.0 0.0
583 2 76.4342821951 3.34111485368 0.0 0.0 0.0 0.0
584 2 74.9861821951 1.31668485368 0.0 0.0 0.0 0.0
585 2 0.85267219506 4.79043485368 0.0 0.0 0.0 0.0
586 2 0.88326219506 7.01173485368 0.0 0.0 0.0 0.0
587 2 3.36331219506 6.19364485368 0.0 0.0 0.0 0.0
588 2 5.00924219506 4.73802485368 0.0 0.0 0.0 0.0
589 2 6.17738219506 7.02170485368 0.0 0.0 0.0 0.0
590 2 9.87238219506 4.81558485368 0.0 0.0 0.0 0.0
591 2 11.6912821951 6.09864485368 0.0 0.0 0.0 0.0
592 2 8.89009219506 7.14001485368 0.0 0.0 0.0 0.0
593 2 14.1540821951 6.79848485368 0.0 0.0 0.0 0.0
594 2 16.6250821951 7.51323485368 0.0 0.0 0.0 0.0
595 2 14.2290821951 9.11639485368 0.0 0.0 0.0 0.0
596 2 20.5915821951 4.04293485368 0.0 0.0 0.0 0.0
597 2 22.0019821951 6.21250485368 0.0 0.0 0.0 0.0
598 2 19.3323821951 6.37203485368 0.0 0.0 0.0 0.0