# input file

1350 atoms
2 atom types

0.0 77.5322251355 xlo xhi
0.0 82.9033756939 ylo yhi
-10.0 10.0 zlo zhi
0.0 0.0 0.0 xy xz yz

Masses

1 28.0855 #Si
2 15.9994 #O

Atoms

1 1 3.81101034462 0.731345846966 0.0
2 1 9.19735034462 2.41828784697 0.0
3 1 13.8981503446 2.64912784697 0.0
4 1 18.9865503446 1.22025984697 0.0
5 1 24.2353503446 0.481831846966 0.0
6 1 29.1328503446 0.594969846966 0.0
7 1 34.0087503446 1.41640784697 0.0
8 1 38.8523503446 2.21526784697 0.0
9 1 43.3837503446 5.11310784697 0.0
10 1 48.6527503446 2.47399784697 0.0
11 1 54.3491503446 2.08873784697 0.0
12 1 59.4678503446 2.58571784697 0.0
13 1 64.4400503446 2.66429784697 0.0
14 1 70.8896503446 1.73457784697 0.0
15 1 73.7961503446 0.980107846966 0.0
16 1 75.9931503446 3.01073784697 0.0
17 1 5.43146034462 5.53860784697 0.0
18 1 12.0649503446 7.38326784697 0.0
19 1 18.6970503446 5.67327784697 0.0
20 1 21.6747503446 5.24600784697 0.0
21 1 26.7790503446 5.31563784697 0.0
22 1 31.7081503446 5.73602784697 0.0
23 1 36.0688503446 9.01539784697 0.0
24 1 41.5958503446 7.53839784697 0.0
25 1 48.5897503446 6.22229784697 0.0
26 1 51.5668503446 6.20978784697 0.0
27 1 55.9510503446 6.79828784697 0.0
28 1 60.7329503446 7.20459784697 0.0
29 1 65.4588503446 7.78524784697 0.0
30 1 70.7720503446 6.92103784697 0.0
31 1 2.56391034462 10.299487847 0.0
32 1 10.3531503446 9.86004784697 0.0
33 1 14.3274503446 11.986487847 0.0
34 1 19.4669503446 10.787887847 0.0
35 1 24.5760503446 9.87193784697 0.0
36 1 28.3809503446 12.899287847 0.0
37 1 33.9936503446 11.285687847 0.0
38 1 40.9313503446 11.800787847 0.0
39 1 45.3554503446 11.808587847 0.0
40 1 48.3258503446 11.528287847 0.0
41 1 53.3379503446 11.523987847 0.0
42 1 57.6416503446 14.036787847 0.0
43 1 63.1173503446 12.319487847 0.0
44 1 67.2632503446 10.172167847 0.0
45 1 73.6282503446 7.75101784697 0.0
46 1 1.79089034462 13.229787847 0.0
47 1 6.40137034462 13.157087847 0.0
48 1 7.90652034462 17.381887847 0.0
49 1 18.9972503446 15.228887847 0.0
50 1 22.0029503446 14.893787847 0.0
51 1 26.6701503446 15.455187847 0.0
52 1 31.6873503446 15.947487847 0.0
53 1 36.0660503446 16.850487847 0.0
54 1 41.4298503446 17.932487847 0.0
55 1 45.7217503446 15.617487847 0.0
56 1 50.0591503446 18.297887847 0.0
57 1 55.8773503446 16.502187847 0.0
58 1 61.2794503446 17.035387847 0.0
59 1 68.7541503446 14.327987847 0.0
60 1 74.4247503446 13.366587847 0.0
61 1 3.84592034462 18.138987847 0.0
62 1 10.8130503446 17.952587847 0.0
63 1 13.5514503446 19.838287847 0.0
64 1 17.3886503446 19.982987847 0.0
65 1 23.6152503446 20.169087847 0.0
66 1 30.0968503446 20.131687847 0.0
67 1 32.7549503446 18.767687847 0.0
68 1 40.4891503446 20.760487847 0.0
69 1 44.2075503446 24.027787847 0.0
70 1 48.5773503446 21.003087847 0.0
71 1 53.6307503446 20.662087847 0.0
72 1 58.9980503446 21.032687847 0.0
73 1 63.8611503446 18.607987847 0.0
74 1 72.0944503446 17.684087847 0.0
75 1 76.7046503446 18.076287847 0.0
76 1 1.69038034462 23.029287847 0.0
77 1 6.03430034462 22.986987847 0.0
78 1 11.3538503446 23.908887847 0.0
79 1 16.5008503446 24.864487847 0.0
80 1 20.5841503446 25.438187847 0.0
81 1 25.4637503446 24.724387847 0.0
82 1 29.6465503446 25.882887847 0.0
83 1 38.6672503446 24.784587847 0.0
84 1 41.6071503446 25.563787847 0.0
85 1 47.9275503446 26.720387847 0.0
86 1 52.4339503446 25.115787847 0.0
87 1 58.9802503446 26.465487847 0.0
88 1 61.5614503446 22.558387847 0.0
89 1 69.3427503446 24.275987847 0.0
90 1 74.2500503446 22.818687847 0.0
91 1 3.39170034462 28.192187847 0.0
92 1 8.69271034462 27.738587847 0.0
93 1 12.1735503446 31.215887847 0.0
94 1 19.6905503446 28.340687847 0.0
95 1 22.4444503446 29.547087847 0.0
96 1 27.1032503446 32.287487847 0.0
97 1 30.9459503446 28.606687847 0.0
98 1 37.5775503446 29.632087847 0.0
99 1 42.4553503446 28.453087847 0.0
100 1 51.2135503446 30.545687847 0.0
101 1 60.1074503446 29.206887847 0.0
102 1 62.9351503446 28.275687847 0.0
103 1 68.3188503446 27.089187847 0.0
104 1 73.5408503446 27.806687847 0.0
105 1 76.5371503446 27.620587847 0.0
106 1 77.2148503446 32.886187847 0.0
107 1 7.28059034462 32.229187847 0.0
108 1 10.0733503446 33.429987847 0.0
109 1 15.0470503446 34.659487847 0.0
110 1 20.0279503446 33.227087847 0.0
111 1 25.5193503446 34.844487847 0.0
112 1 30.6273503446 34.459487847 0.0
113 1 35.4268503446 34.188387847 0.0
114 1 41.0168503446 33.519887847 0.0
115 1 47.2141503446 29.676187847 0.0
116 1 52.6117503446 33.164387847 0.0
117 1 59.7360503446 34.202187847 0.0
118 1 67.1624503446 34.416387847 0.0
119 1 67.2111503446 31.434787847 0.0
120 1 72.6437503446 33.663887847 0.0
121 1 1.17534034462 37.590887847 0.0
122 1 6.07184034462 37.024987847 0.0
123 1 10.4503503446 36.467987847 0.0
124 1 18.3294503446 38.342487847 0.0
125 1 23.2271503446 40.069587847 0.0
126 1 28.8701503446 39.175487847 0.0
127 1 33.7385503446 39.090887847 0.0
128 1 39.0780503446 37.796087847 0.0
129 1 44.9103503446 36.592287847 0.0
130 1 50.8039503446 37.943687847 0.0
131 1 56.3197503446 38.101287847 0.0
132 1 59.5080503446 41.025587847 0.0
133 1 66.7443503446 38.616287847 0.0
134 1 69.7284503446 38.219287847 0.0
135 1 74.4669503446 38.337587847 0.0
136 1 1.09334034462 42.648587847 0.0
137 1 4.06408034462 41.949687847 0.0
138 1 9.03340034462 43.795087847 0.0
139 1 14.5695503446 42.187887847 0.0
140 1 22.7738503446 43.033087847 0.0
141 1 25.7411503446 43.473187847 0.0
142 1 30.9936503446 43.932887847 0.0
143 1 38.0442503446 42.342887847 0.0
144 1 43.5268503446 40.254487847 0.0
145 1 46.3780503446 39.264187847 0.0
146 1 53.8445503446 42.247187847 0.0
147 1 59.1190503446 44.639287847 0.0
148 1 62.1552503446 44.673687847 0.0
149 1 67.4704503446 43.533187847 0.0
150 1 71.7305503446 45.719787847 0.0
151 1 1.68491034462 48.203287847 0.0
152 1 9.01541034462 46.800887847 0.0
153 1 12.0161503446 46.828287847 0.0
154 1 16.6148503446 46.907287847 0.0
155 1 21.3494503446 49.557687847 0.0
156 1 27.0755503446 47.931887847 0.0
157 1 33.3096503446 45.872787847 0.0
158 1 40.4082503446 46.381787847 0.0
159 1 44.9078503446 46.460887847 0.0
160 1 50.0804503446 46.066687847 0.0
161 1 54.6981503446 48.376487847 0.0
162 1 59.2168503446 49.372587847 0.0
163 1 64.7723503446 48.443287847 0.0
164 1 70.2300503446 48.384687847 0.0
165 1 74.7238503446 49.302687847 0.0
166 1 77.2037503446 53.662587847 0.0
167 1 4.30905034462 52.530587847 0.0
168 1 9.34115034462 51.764787847 0.0
169 1 14.6642503446 51.789587847 0.0
170 1 19.8853503446 52.193187847 0.0
171 1 24.4658503446 52.177487847 0.0
172 1 29.0659503446 50.175687847 0.0
173 1 36.4277503446 49.974887847 0.0
174 1 41.1640503446 50.975387847 0.0
175 1 46.5215503446 50.666687847 0.0
176 1 51.3796503446 51.651987847 0.0
177 1 56.0477503446 53.658887847 0.0
178 1 61.4197503446 52.885287847 0.0
179 1 66.6792503446 52.629187847 0.0
180 1 71.7099503446 53.757387847 0.0
181 1 2.01756034462 57.856787847 0.0
182 1 7.57591034462 56.659387847 0.0
183 1 12.8597503446 56.136587847 0.0
184 1 17.5539503446 56.488787847 0.0
185 1 22.6401503446 57.070487847 0.0
186 1 28.9478503446 55.187887847 0.0
187 1 32.8174503446 57.194687847 0.0
188 1 39.0489503446 55.159687847 0.0
189 1 43.0422503446 57.324787847 0.0
190 1 48.3944503446 55.841487847 0.0
191 1 53.0605503446 57.174087847 0.0
192 1 58.3755503446 57.513787847 0.0
193 1 63.4731503446 57.143487847 0.0
194 1 68.9584503446 57.688187847 0.0
195 1 72.7785503446 56.584887847 0.0
196 1 76.4802503446 62.157687847 0.0
197 1 3.67356034462 60.347187847 0.0
198 1 10.3938503446 63.332687847 0.0
199 1 15.5241503446 61.203387847 0.0
200 1 20.7986503446 61.235287847 0.0
201 1 24.8193503446 59.139587847 0.0
202 1 30.4514503446 61.860087847 0.0
203 1 35.1504503446 59.106787847 0.0
204 1 42.9561503446 61.293087847 0.0
205 1 45.9169503446 60.656987847 0.0
206 1 50.6518503446 63.373987847 0.0
207 1 55.9073503446 61.757587847 0.0
208 1 60.7732503446 61.899787847 0.0
209 1 65.8819503446 61.539687847 0.0
210 1 71.4538503446 62.371587847 0.0
211 1 2.23654034462 65.727587847 0.0
212 1 8.76708034462 65.855887847 0.0
213 1 13.6605503446 66.351687847 0.0
214 1 18.7002503446 65.652787847 0.0
215 1 25.4284503446 64.482387847 0.0
216 1 28.4368503446 64.113787847 0.0
217 1 33.2675503446 64.634487847 0.0
218 1 38.6921503446 65.098687847 0.0
219 1 42.7986503446 66.493687847 0.0
220 1 50.7006503446 66.369287847 0.0
221 1 53.6789503446 66.702087847 0.0
222 1 58.4888503446 66.591887847 0.0
223 1 64.8495503446 65.884187847 0.0
224 1 67.8385503446 65.846087847 0.0
225 1 72.0842503446 65.362787847 0.0
226 1 1.02859034462 69.717787847 0.0
227 1 3.70939034462 68.329187847 0.0
228 1 9.63415034462 72.916387847 0.0
229 1 16.9969503446 70.514687847 0.0
230 1 19.9623503446 70.077287847 0.0
231 1 24.7527503446 70.252987847 0.0
232 1 30.5530503446 69.162087847 0.0
233 1 35.5139503446 69.086487847 0.0
234 1 39.6566503446 72.782687847 0.0
235 1 44.8839503446 70.884287847 0.0
236 1 48.9330503446 73.966087847 0.0
237 1 57.2054503446 71.272987847 0.0
238 1 60.2215503446 71.563487847 0.0
239 1 65.5804503446 70.985387847 0.0
240 1 69.7014503446 73.234487847 0.0
241 1 2.05967034462 75.057187847 0.0
242 1 7.64116034462 75.168287847 0.0
243 1 12.3083503446 76.654387847 0.0
244 1 17.1725503446 75.653587847 0.0
245 1 22.5925503446 74.947487847 0.0
246 1 26.3780503446 72.806587847 0.0
247 1 32.4571503446 76.409387847 0.0
248 1 38.2381503446 75.407587847 0.0
249 1 43.4726503446 75.758387847 0.0
250 1 47.2270503446 78.655787847 0.0
251 1 52.6048503446 76.759187847 0.0
252 1 57.8715503446 77.968287847 0.0
253 1 63.1451503446 75.700387847 0.0
254 1 68.2615503446 75.889387847 0.0
255 1 72.3617503446 74.655087847 0.0
256 1 1.40408034462 2.51540784697 0.0
257 1 6.18949034462 2.62236784697 0.0
258 1 11.4639503446 4.42017784697 0.0
259 1 16.8374503446 3.31321784697 0.0
260 1 21.8064503446 2.24771784697 0.0
261 1 26.6484503446 2.29038784697 0.0
262 1 31.2994503446 2.72250784697 0.0
263 1 36.1313503446 3.56794784697 0.0
264 1 41.8392503446 2.56383784697 0.0
265 1 46.2919503446 4.31522784697 0.0
266 1 51.5735503446 3.22673784697 0.0
267 1 56.7516503446 3.89222784697 0.0
268 1 61.8929503446 4.36541784697 0.0
269 1 66.4049503446 4.93113784697 0.0
270 1 69.3372503446 4.30014784697 0.0
271 1 2.46128034462 5.31084784697 0.0
272 1 5.01838034462 8.52112784697 0.0
273 1 14.6194503446 8.98502784697 0.0
274 1 17.5830503446 8.44943784697 0.0
275 1 24.1991503446 6.88309784697 0.0
276 1 29.0772503446 7.28412784697 0.0
277 1 34.7178503446 6.27027784697 0.0
278 1 39.1519503446 9.30928784697 0.0
279 1 44.1750503446 9.06993784697 0.0
280 1 47.1436503446 8.79352784697 0.0
281 1 53.4698503446 8.51097784697 0.0
282 1 58.1515503446 8.82566784697 0.0
283 1 62.8747503446 9.31062784697 0.0
284 1 70.2314503446 9.86178784697 0.0
285 1 76.0337503446 6.00893784697 0.0
286 1 0.864220344624 7.83878784697 0.0
287 1 7.39127034462 10.327287847 0.0
288 1 11.3943503446 12.689487847 0.0
289 1 17.2345503446 12.799087847 0.0
290 1 22.2920503446 11.871087847 0.0
291 1 27.6033503446 9.96312784697 0.0
292 1 31.4278503446 12.930487847 0.0
293 1 35.4626503446 13.904987847 0.0
294 1 38.3916503446 13.347487847 0.0
295 1 43.2177503446 13.854587847 0.0
296 1 50.7886503446 13.230887847 0.0
297 1 56.3770503446 11.308987847 0.0
298 1 60.6724503446 14.095487847 0.0
299 1 66.0793503446 12.919587847 0.0
300 1 73.1100503446 10.685787847 0.0
301 1 4.11832034462 15.123087847 0.0
302 1 9.02240034462 14.578087847 0.0
303 1 13.6257503446 16.868387847 0.0
304 1 16.6287503446 17.070787847 0.0
305 1 24.0847503446 17.109487847 0.0
306 1 29.0173503446 17.330587847 0.0
307 1 35.5575503446 19.812987847 0.0
308 1 38.9852503446 16.253087847 0.0
309 1 44.3939503446 18.298187847 0.0
310 1 48.7878503446 15.548987847 0.0
311 1 53.0792503446 17.728087847 0.0
312 1 58.4483503446 18.090087847 0.0
313 1 69.1474503446 17.288287847 0.0
314 1 71.7440503446 14.698187847 0.0
315 1 76.9162503446 15.049487847 0.0
316 1 1.48860034462 20.004287847 0.0
317 1 6.25350034462 19.931287847 0.0
318 1 10.8071503446 20.949187847 0.0
319 1 15.3252503446 22.150387847 0.0
320 1 18.6543503446 22.675187847 0.0
321 1 26.1444503446 21.824187847 0.0
322 1 28.9706503446 22.911687847 0.0
323 1 37.7214503446 21.922687847 0.0
324 1 43.4600503446 21.141887847 0.0
325 1 47.2041503446 23.753187847 0.0
326 1 51.2014503446 22.401987847 0.0
327 1 54.8386503446 23.380887847 0.0
328 1 64.3519503446 21.570987847 0.0
329 1 66.8072503446 19.103187847 0.0
330 1 74.2312503446 19.795387847 0.0
331 1 3.85925034462 25.133387847 0.0
332 1 8.47380034462 24.750887847 0.0
333 1 13.6382503446 25.912787847 0.0
334 1 21.6305503446 22.548787847 0.0
335 1 23.2542503446 26.688687847 0.0
336 1 27.0047503446 27.280387847 0.0
337 1 33.9304503446 28.434787847 0.0
338 1 36.4802503446 26.853187847 0.0
339 1 44.4226503446 30.725287847 0.0
340 1 50.7945503446 27.590487847 0.0
341 1 57.7681503446 23.753387847 0.0
342 1 61.8127503446 25.524987847 0.0
343 1 67.2957503446 22.064787847 0.0
344 1 72.2489503446 25.063287847 0.0
345 1 76.6731503446 24.606187847 0.0
346 1 0.873690344624 30.000787847 0.0
347 1 6.18098034462 29.412187847 0.0
348 1 11.6781503446 28.237487847 0.0
349 1 15.1572503446 31.666487847 0.0
350 1 18.0897503446 30.890087847 0.0
351 1 25.4055503446 29.838487847 0.0
352 1 30.0091503446 31.504687847 0.0
353 1 35.0523503446 31.214987847 0.0
354 1 40.3879503446 30.598487847 0.0
355 1 48.7708503446 32.273087847 0.0
356 1 55.5280503446 32.569187847 0.0
357 1 58.3276503446 31.577687847 0.0
358 1 65.8623503446 28.782187847 0.0
359 1 69.6811503446 29.755787847 0.0
360 1 72.5318503446 30.647187847 0.0
361 1 2.05600034462 34.711187847 0.0
362 1 5.02702034462 34.220387847 0.0
363 1 13.3828503446 37.150987847 0.0
364 1 17.9446503446 35.378287847 0.0
365 1 22.4832503446 35.001887847 0.0
366 1 28.1908503446 36.243387847 0.0
367 1 33.1356503446 36.132587847 0.0
368 1 38.3472503446 34.899287847 0.0
369 1 44.0153503446 33.718987847 0.0
370 1 50.2008503446 34.954987847 0.0
371 1 56.9131503446 35.199787847 0.0
372 1 61.8132503446 36.335687847 0.0
373 1 64.8294503446 36.304787847 0.0
374 1 70.0635503446 35.232887847 0.0
375 1 75.1927503446 35.272387847 0.0
376 1 76.9761503446 40.053487847 0.0
377 1 3.81144034462 38.973687847 0.0
378 1 8.48566034462 38.784987847 0.0
379 1 15.4734503446 39.323187847 0.0
380 1 21.2878503446 37.784187847 0.0
381 1 26.1842503446 40.510887847 0.0
382 1 31.3342503446 40.920787847 0.0
383 1 36.7068503446 39.656987847 0.0
384 1 42.0922503446 37.639587847 0.0
385 1 49.1796503446 40.506787847 0.0
386 1 53.5342503446 39.248287847 0.0
387 1 59.3400503446 38.064187847 0.0
388 1 62.4475503446 41.703087847 0.0
389 1 65.4356503446 41.306787847 0.0
390 1 71.9888503446 40.209387847 0.0
391 1 0.139115344624 45.556987847 0.0
392 1 7.08059034462 41.498887847 0.0
393 1 12.0402503446 43.821587847 0.0
394 1 17.0113503446 43.933487847 0.0
395 1 20.0017503446 44.189287847 0.0
396 1 28.2291503446 45.154487847 0.0
397 1 36.0428503446 44.609187847 0.0
398 1 42.6865503446 44.465487847 0.0
399 1 41.0580503446 41.972487847 0.0
400 1 50.8894503446 43.084687847 0.0
401 1 56.9085503446 42.570987847 0.0
402 1 57.3588503446 47.034887847 0.0
403 1 65.0889503446 45.449987847 0.0
404 1 70.4930503446 42.930287847 0.0
405 1 74.7176503446 46.293287847 0.0
406 1 77.4073503446 50.637387847 0.0
407 1 4.42489034462 49.518087847 0.0
408 1 7.46050034462 49.375187847 0.0
409 1 14.2891503446 48.799887847 0.0
410 1 19.5877503446 47.150487847 0.0
411 1 24.3287503446 49.185087847 0.0
412 1 33.6238503446 48.894687847 0.0
413 1 37.5438503446 47.197387847 0.0
414 1 42.6090503446 48.373987847 0.0
415 1 47.5812503446 47.802887847 0.0
416 1 51.7123503446 48.627287847 0.0
417 1 56.5536503446 50.725687847 0.0
418 1 62.1543503446 49.965587847 0.0
419 1 67.4992503446 49.717587847 0.0
420 1 72.1004503446 50.759487847 0.0
421 1 2.41396034462 54.866387847 0.0
422 1 7.06246034462 53.712287847 0.0
423 1 12.0167503446 53.219387847 0.0
424 1 17.1678503446 53.484787847 0.0
425 1 22.1873503446 54.110487847 0.0
426 1 27.3978503446 52.651087847 0.0
427 1 31.8411503446 51.320687847 0.0
428 1 38.4197503446 52.225687847 0.0
429 1 43.8974503446 52.209987847 0.0
430 1 48.6137503446 52.830787847 0.0
431 1 53.0922503446 54.155887847 0.0
432 1 58.9076503446 54.561787847 0.0
433 1 64.1056503446 54.205087847 0.0
434 1 68.8678503446 54.680587847 0.0
435 1 75.7529503446 56.318787847 0.0
436 1 76.8243503446 59.138587847 0.0
437 1 6.51769034462 59.454687847 0.0
438 1 10.3540503446 57.769487847 0.0
439 1 15.0807503446 58.196787847 0.0
440 1 19.9345503446 58.346187847 0.0
441 1 27.5186503446 57.817587847 0.0
442 1 31.8376503446 54.348887847 0.0
443 1 37.9902503446 58.004587847 0.0
444 1 42.0118503446 54.544487847 0.0
445 1 46.0088503446 57.659287847 0.0
446 1 50.2451503446 58.216887847 0.0
447 1 55.6320503446 58.757687847 0.0
448 1 61.0302503446 58.906887847 0.0
449 1 66.1008503446 58.568787847 0.0
450 1 71.4885503446 59.325787847 0.0
451 1 1.89685034462 62.758387847 0.0
452 1 9.28945034462 60.559087847 0.0
453 1 13.4015503446 63.355187847 0.0
454 1 18.1650503446 62.688787847 0.0
455 1 23.7403503446 61.957887847 0.0
456 1 30.3125503446 58.880787847 0.0
457 1 33.4653503446 61.640487847 0.0
458 1 40.7468503446 59.247587847 0.0
459 1 41.4116503446 63.851187847 0.0
460 1 48.9103503446 60.925987847 0.0
461 1 53.6276503446 63.697787847 0.0
462 1 58.2950503446 63.585687847 0.0
463 1 63.4354503446 63.255087847 0.0
464 1 68.5223503446 62.936587847 0.0
465 1 75.0638503446 64.856287847 0.0
466 1 77.0965503446 67.085587847 0.0
467 1 6.70773034462 68.045987847 0.0
468 1 11.0385503446 67.811787847 0.0
469 1 16.3900503446 67.579087847 0.0
470 1 21.1944503446 67.331487847 0.0
471 1 24.2118503446 67.265187847 0.0
472 1 30.6500503446 66.150187847 0.0
473 1 35.8708503446 66.104287847 0.0
474 1 40.0965503446 67.743987847 0.0
475 1 45.3993503446 67.939387847 0.0
476 1 48.3696503446 68.240687847 0.0
477 1 56.1306503446 68.450487847 0.0
478 1 60.7185503446 68.605587847 0.0
479 1 63.7124503446 68.635387847 0.0
480 1 70.1411503446 67.756987847 0.0
481 1 0.261940344624 72.641487847 0.0
482 1 8.99211034462 69.991987847 0.0
483 1 12.5512503446 73.665287847 0.0
484 1 15.5167503446 73.130087847 0.0
485 1 22.2814503446 71.957987847 0.0
486 1 29.2146503446 71.846287847 0.0
487 1 33.0620503446 70.806087847 0.0
488 1 38.3083503446 70.129887847 0.0
489 1 42.6486503446 72.878587847 0.0
490 1 47.8579503446 71.182687847 0.0
491 1 51.9436503446 73.841887847 0.0
492 1 54.8777503446 73.184287847 0.0
493 1 63.0530503446 72.689087847 0.0
494 1 68.5937503446 70.416087847 0.0
495 1 75.3743503446 74.442487847 0.0
496 1 77.1821503446 76.851087847 0.0
497 1 4.83289034462 76.242687847 0.0
498 1 9.45135034462 77.562887847 0.0
499 1 15.0721503446 77.806687847 0.0
500 1 20.0549503446 76.561587847 0.0
501 1 25.5068503446 75.715787847 0.0
502 1 31.7225503446 73.490087847 0.0
503 1 35.4569503446 76.547787847 0.0
504 1 40.7517503446 77.065487847 0.0
505 1 46.4907503446 75.756487847 0.0
506 1 50.2399503446 78.599387847 0.0
507 1 55.5215503446 76.113787847 0.0
508 1 60.8511503446 77.642887847 0.0
509 1 65.6388503446 77.390787847 0.0
510 1 70.9144503446 77.291387847 0.0
511 1 5.14202034462 79.247787847 0.0
512 1 10.0559503446 82.436087847 0.0
513 1 15.4354503446 80.782187847 0.0
514 1 20.8961503446 79.455387847 0.0
515 1 26.2621503446 78.666787847 0.0
516 1 31.4739503446 79.270187847 0.0
517 1 36.0768503446 79.477887847 0.0
518 1 40.0570503446 82.359987847 0.0
519 1 45.6961503446 81.245187847 0.0
520 1 51.3016503446 81.386587847 0.0
521 1 57.0372503446 80.855287847 0.0
522 1 61.8279503446 80.484087847 0.0
523 1 66.1473503446 0.115359846966 0.0
524 1 71.4173503446 80.258487847 0.0
525 1 77.2334503446 79.869387847 0.0
526 1 2.58843034462 80.865387847 0.0
527 1 8.01862034462 80.199687847 0.0
528 1 13.0687503446 82.654487847 0.0
529 1 18.4224503446 81.183087847 0.0
530 1 23.7780503446 80.396487847 0.0
531 1 28.7103503446 80.480387847 0.0
532 1 33.7027503446 81.313487847 0.0
533 1 39.0738503446 79.546987847 0.0
534 1 43.0410503446 82.713087847 0.0
535 1 48.4708503446 82.410187847 0.0
536 1 54.2518503446 81.999187847 0.0
537 1 59.5728503446 82.479487847 0.0
538 1 64.8287503446 80.305887847 0.0
539 1 69.0979503446 82.233787847 0.0
540 1 74.3802503446 80.938287847 0.0
541 2 2.56050034462 1.57746784697 0.0
542 2 5.07476034462 1.58368784697 0.0
543 2 3.22296034462 82.244487847 0.0
544 2 7.69372034462 2.50469784697 0.0
545 2 10.2542503446 3.50654784697 0.0
546 2 9.60945034462 0.970497846966 0.0
547 2 13.5071503446 1.19572184697 0.0
548 2 15.3587503446 3.03747784697 0.0
549 2 12.7253503446 3.59026784697 0.0
550 2 18.7171503446 82.654987847 0.0
551 2 17.8592503446 2.20792784697 0.0
552 2 20.4066503446 1.70285784697 0.0
553 2 24.0362503446 81.890987847 0.0
554 2 25.4440503446 1.38030784697 0.0
555 2 23.0032503446 1.35004784697 0.0
556 2 28.9147503446 81.992487847 0.0
557 2 30.2352503446 1.64082784697 0.0
558 2 27.8838503446 1.43799784697 0.0
559 2 35.1179503446 2.43882784697 0.0
560 2 33.8862503446 82.809487847 0.0
561 2 32.6538503446 2.06290784697 0.0
562 2 39.2744503446 0.746255846966 0.0
563 2 40.3277503446 2.58075784697 0.0
564 2 37.5366503446 2.96012784697 0.0
565 2 42.6019503446 3.83887784697 0.0
566 2 44.8516503446 4.73734784697 0.0
567 2 42.4269503446 6.27228784697 0.0
568 2 48.5191503446 0.995971846966 0.0
569 2 50.1192503446 2.84143784697 0.0
570 2 47.3652503446 3.24392784697 0.0
571 2 54.3570503446 0.594617846966 0.0
572 2 55.5596503446 2.97158784697 0.0
573 2 52.9382503446 2.61050784697 0.0
574 2 59.5549503446 1.07985784697 0.0
575 2 60.6853503446 3.45518784697 0.0
576 2 58.1181503446 3.26243784697 0.0
577 2 65.2444503446 1.35427784697 0.0
578 2 65.4440503446 3.79090784697 0.0
579 2 63.1399503446 3.47831784697 0.0
580 2 72.3570503446 1.41351784697 0.0
581 2 70.1396503446 3.03699784697 0.0
582 2 69.9669503446 0.560277846966 0.0
583 2 74.8784503446 2.01877784697 0.0
584 2 74.1722503446 82.435887847 0.0
585 2 77.4392503446 2.59790784697 0.0
586 2 75.9581503446 4.51472784697 0.0
587 2 5.92013034462 4.11601784697 0.0
588 2 5.36629034462 7.05059784697 0.0
589 2 3.94088034462 5.38346784697 0.0
590 2 11.7093503446 5.91547784697 0.0
591 2 13.4130503446 8.07814784697 0.0
592 2 11.1220503446 8.56689784697 0.0
593 2 18.1283503446 7.05630784697 0.0
594 2 17.6992503446 4.54870784697 0.0
595 2 20.1949503446 5.52863784697 0.0
596 2 21.8290503446 3.74868784697 0.0
597 2 22.8997503446 6.11489784697 0.0
598 2 26.7274503446 3.80122784697 0.0
599 2 27.9677503446 6.24609784697 0.0
600 2 25.4716503446 6.07446784697 0.0
601 2 31.4279503446 4.23626784697 0.0
602 2 33.1957503446 6.09122784697 0.0
603 2 30.4546503446 6.61688784697 0.0
604 2 35.4150503446 7.62731784697 0.0
605 2 37.6133503446 9.17096784697 0.0
606 2 34.9853503446 10.116437847 0.0
607 2 42.8527503446 8.39896784697 0.0
608 2 40.2660503446 8.24132784697 0.0
609 2 47.9269503446 7.54880784697 0.0
610 2 47.4263503446 5.29927784697 0.0
611 2 50.0699503446 6.25635784697 0.0
612 2 51.7102503446 4.72155784697 0.0
613 2 52.4476503446 7.40568784697 0.0
614 2 56.3426503446 5.34234784697 0.0
615 2 54.7109503446 7.64842784697 0.0
616 2 57.0853503446 7.76988784697 0.0
617 2 61.3341503446 5.79624784697 0.0
618 2 61.7732503446 8.29758784697 0.0
619 2 59.4477503446 8.03006784697 0.0
620 2 65.9053503446 6.35346784697 0.0
621 2 66.4338503446 8.92913784697 0.0
622 2 64.1399503446 8.49501784697 0.0
623 2 70.0756503446 5.60700784697 0.0
624 2 72.2532503446 7.16517784697 0.0
625 2 70.3602503446 8.36015784697 0.0
626 2 1.55142034462 9.16715784697 0.0
627 2 3.81870034462 9.45092784697 0.0
628 2 2.15328034462 11.755387847 0.0
629 2 8.85373034462 10.001487847 0.0
630 2 10.9039503446 11.261287847 0.0
631 2 14.4241503446 10.480787847 0.0
632 2 15.7465503446 12.520087847 0.0
633 2 12.9134503446 12.537987847 0.0
634 2 18.6222503446 9.53570784697 0.0
635 2 20.9012503446 11.254187847 0.0
636 2 18.3356503446 11.779187847 0.0
637 2 23.4732503446 10.916187847 0.0
638 2 26.0834503446 9.95823784697 0.0
639 2 24.2901503446 8.38442784697 0.0
640 2 27.4231503446 14.103787847 0.0
641 2 27.9996503446 11.424987847 0.0
642 2 29.9098503446 12.872787847 0.0
643 2 32.5888503446 11.937587847 0.0
644 2 34.6934503446 12.626287847 0.0
645 2 39.6256503446 12.543387847 0.0
646 2 40.1165503446 10.491087847 0.0
647 2 42.0319503446 12.871187847 0.0
648 2 44.3081503446 12.833487847 0.0
649 2 44.6242503446 10.498687847 0.0
650 2 46.8511503446 11.899987847 0.0
651 2 49.6000503446 12.288987847 0.0
652 2 47.8964503446 10.088317847 0.0
653 2 53.2716503446 9.99742784697 0.0
654 2 54.8640503446 11.506187847 0.0
655 2 52.1319503446 12.479287847 0.0
656 2 57.0257503446 12.668487847 0.0
657 2 59.1607503446 14.020087847 0.0
658 2 56.6745503446 15.204687847 0.0
659 2 62.9336503446 10.816487847 0.0
660 2 64.5696503446 12.776387847 0.0
661 2 61.8704503446 13.171287847 0.0
662 2 68.7626503446 10.132557847 0.0
663 2 66.6456503446 11.526187847 0.0
664 2 74.8052503446 6.85519784697 0.0
665 2 73.5557503446 9.25110784697 0.0
666 2 2.93534034462 14.200887847 0.0
667 2 0.562010344624 14.105787847 0.0
668 2 6.80330034462 11.711587847 0.0
669 2 7.74252034462 13.809487847 0.0
670 2 5.27178034462 14.151187847 0.0
671 2 9.37945034462 17.627687847 0.0
672 2 8.35091034462 15.929087847 0.0
673 2 7.13326034462 18.681287847 0.0
674 2 17.8717503446 16.231787847 0.0
675 2 18.0813503446 14.033487847 0.0
676 2 20.5023503446 15.153087847 0.0
677 2 22.2553503446 13.389687847 0.0
678 2 22.9982503446 16.031787847 0.0
679 2 25.3683503446 16.260887847 0.0
680 2 27.7905503446 16.473787847 0.0
681 2 32.4403503446 17.276187847 0.0
682 2 31.7160503446 14.439187847 0.0
683 2 30.3032503446 16.550587847 0.0
684 2 35.5160503446 15.425387847 0.0
685 2 37.5575503446 16.683987847 0.0
686 2 35.8404503446 18.327187847 0.0
687 2 40.2781503446 16.986887847 0.0
688 2 42.9152503446 17.949887847 0.0
689 2 40.8200503446 19.298787847 0.0
690 2 44.3935503446 14.864287847 0.0
691 2 47.2511503446 15.494387847 0.0
692 2 45.2184503446 17.056987847 0.0
693 2 49.3745503446 16.943587847 0.0
694 2 51.5672503446 17.932987847 0.0
695 2 49.1877503446 19.575887847 0.0
696 2 57.1188503446 17.392887847 0.0
697 2 54.4245503446 16.968887847 0.0
698 2 62.5998503446 17.782587847 0.0
699 2 61.0867503446 15.545387847 0.0
700 2 59.8699503446 17.575187847 0.0
701 2 67.3876503446 13.693387847 0.0
702 2 70.2879503446 14.270887847 0.0
703 2 68.8174503446 15.830987847 0.0
704 2 73.9111503446 11.945187847 0.0
705 2 75.6726503446 14.187787847 0.0
706 2 73.0733503446 14.019187847 0.0
707 2 5.01490034462 19.074187847 0.0
708 2 4.00142034462 16.629887847 0.0
709 2 2.65600034462 19.052487847 0.0
710 2 12.1050503446 17.124187847 0.0
711 2 10.5698503446 19.459887847 0.0
712 2 13.7078503446 18.373587847 0.0
713 2 14.3104503446 21.096187847 0.0
714 2 12.2100503446 20.441187847 0.0
715 2 16.3163503446 21.023887847 0.0
716 2 18.2306503446 21.231487847 0.0
717 2 17.0640503446 18.523287847 0.0
718 2 23.7971503446 18.628287847 0.0
719 2 24.9659503446 20.886487847 0.0
720 2 22.5852503446 21.334287847 0.0
721 2 29.6724503446 21.566987847 0.0
722 2 29.3468503446 18.808387847 0.0
723 2 31.5000503446 19.592487847 0.0
724 2 34.0846503446 19.464287847 0.0
725 2 41.9515503446 21.120087847 0.0
726 2 39.1055503446 21.316987847 0.0
727 2 43.8860503446 22.561587847 0.0
728 2 45.7056503446 23.969587847 0.0
729 2 42.9223503446 24.813987847 0.0
730 2 49.8743503446 21.755187847 0.0
731 2 47.7537503446 22.322587847 0.0
732 2 53.4997503446 19.182487847 0.0
733 2 54.4299503446 21.934987847 0.0
734 2 52.3390503446 21.435487847 0.0
735 2 58.6330503446 19.590487847 0.0
736 2 60.3576503446 21.686187847 0.0
737 2 58.3113503446 22.364887847 0.0
738 2 65.3847503446 18.605887847 0.0
739 2 64.0042503446 20.105287847 0.0
740 2 72.0578503446 16.177087847 0.0
741 2 73.0992503446 18.791887847 0.0
742 2 70.5842503446 17.703787847 0.0
743 2 76.8236503446 16.561887847 0.0
744 2 0.314780344624 19.057987847 0.0
745 2 75.4604503446 18.926987847 0.0
746 2 1.61416034462 21.513187847 0.0
747 2 2.76226034462 24.082487847 0.0
748 2 0.402850344624 23.800887847 0.0
749 2 4.97870034462 24.079187847 0.0
750 2 7.30615034462 23.808287847 0.0
751 2 6.16919034462 21.456287847 0.0
752 2 12.5576503446 24.822587847 0.0
753 2 11.0172503446 22.433287847 0.0
754 2 9.91855034462 24.365787847 0.0
755 2 15.7848503446 23.543187847 0.0
756 2 17.8055503446 23.992487847 0.0
757 2 15.1473503446 25.626387847 0.0
758 2 21.9131503446 26.078787847 0.0
759 2 21.1590503446 24.035887847 0.0
760 2 19.8185503446 26.822687847 0.0
761 2 25.6793503446 23.264587847 0.0
762 2 26.3024503446 25.960487847 0.0
763 2 24.2729503446 25.616587847 0.0
764 2 29.4281503446 24.365787847 0.0
765 2 30.4216503446 27.189387847 0.0
766 2 28.3631503446 26.665987847 0.0
767 2 37.5137503446 25.765587847 0.0
768 2 38.1027503446 23.382087847 0.0
769 2 40.1470503446 25.144387847 0.0
770 2 42.0525503446 27.011387847 0.0
771 2 49.3867503446 27.100787847 0.0
772 2 47.6086503446 25.241487847 0.0
773 2 47.4572503446 28.178687847 0.0
774 2 51.6498503446 23.827687847 0.0
775 2 53.7676503446 24.431487847 0.0
776 2 51.7417503446 26.429487847 0.0
777 2 58.2478503446 25.166187847 0.0
778 2 60.3871503446 25.957487847 0.0
779 2 59.3209503446 27.920487847 0.0
780 2 62.9816503446 22.128687847 0.0
781 2 61.7304503446 24.043187847 0.0
782 2 70.8102503446 24.605187847 0.0
783 2 68.3624503446 23.126187847 0.0
784 2 68.7457503446 25.662587847 0.0
785 2 75.4851503446 23.680387847 0.0
786 2 74.2010503446 21.305787847 0.0
787 2 73.1739503446 23.873187847 0.0
788 2 3.59922034462 26.648787847 0.0
789 2 4.77748034462 28.846787847 0.0
790 2 2.19054034462 29.154187847 0.0
791 2 8.47080034462 26.251687847 0.0
792 2 10.1780503446 28.019587847 0.0
793 2 7.43464034462 28.562487847 0.0
794 2 11.1543503446 32.346587847 0.0
795 2 11.9164503446 29.727887847 0.0
796 2 13.6817503446 31.351487847 0.0
797 2 18.7215503446 29.511687847 0.0
798 2 21.0017503446 29.135687847 0.0
799 2 23.8998503446 29.971587847 0.0
800 2 22.9846503446 28.137087847 0.0
801 2 26.2361503446 31.069587847 0.0
802 2 28.5430503446 31.870887847 0.0
803 2 26.2750503446 33.535687847 0.0
804 2 32.4394503446 28.451687847 0.0