ITEM: TIMESTEP
0
ITEM: NUMBER OF ATOMS
1350
ITEM: BOX BOUNDS xy xz yz pp pp pp
0.0 77.0370245218 0
0.0 83.1695389052 0
-10.0 10.0 0
ITEM: ATOMS id type x y z vx vy vz
1 1 3.42112003776 2.14840945258 0.0 0.0 0.0 0.0
2 1 9.73215003776 2.14549945258 0.0 0.0 0.0 0.0
3 1 16.9794500378 1.43477945258 0.0 0.0 0.0 0.0
4 1 14.0227500378 0.845085452581 0.0 0.0 0.0 0.0
5 1 22.4657500378 1.89402945258 0.0 0.0 0.0 0.0
6 1 27.6878500378 3.07400945258 0.0 0.0 0.0 0.0
7 1 32.6446500378 0.0149184525809 0.0 0.0 0.0 0.0
8 1 37.2745500378 2.36051945258 0.0 0.0 0.0 0.0
9 1 43.9411500378 0.490091652581 0.0 0.0 0.0 0.0
10 1 46.7239500378 1.68524945258 0.0 0.0 0.0 0.0
11 1 53.2083500378 3.11980945258 0.0 0.0 0.0 0.0
12 1 58.7027500378 4.49241945258 0.0 0.0 0.0 0.0
13 1 63.6503500378 1.18462745258 0.0 0.0 0.0 0.0
14 1 69.7757500378 1.23884845258 0.0 0.0 0.0 0.0
15 1 75.1966500378 0.694605452581 0.0 0.0 0.0 0.0
16 1 76.0085500378 7.87755945258 0.0 0.0 0.0 0.0
17 1 5.20661003776 7.81446945258 0.0 0.0 0.0 0.0
18 1 9.43615003776 7.07414945258 0.0 0.0 0.0 0.0
19 1 15.2561500378 4.72461945258 0.0 0.0 0.0 0.0
20 1 18.2490500378 4.15164945258 0.0 0.0 0.0 0.0
21 1 26.4543500378 5.85208945258 0.0 0.0 0.0 0.0
22 1 31.3950500378 5.18738945258 0.0 0.0 0.0 0.0
23 1 36.3256500378 5.20515945258 0.0 0.0 0.0 0.0
24 1 40.9127500378 8.65165945258 0.0 0.0 0.0 0.0
25 1 45.1227500378 5.60934945258 0.0 0.0 0.0 0.0
26 1 52.0759500378 7.84831945258 0.0 0.0 0.0 0.0
27 1 57.9275500378 7.40501945258 0.0 0.0 0.0 0.0
28 1 63.6069500378 5.34501945258 0.0 0.0 0.0 0.0
29 1 65.7759500378 3.30344945258 0.0 0.0 0.0 0.0
30 1 72.4875500378 5.23075945258 0.0 0.0 0.0 0.0
31 1 1.17289003776 9.86526945258 0.0 0.0 0.0 0.0
32 1 8.04117003776 12.4987694526 0.0 0.0 0.0 0.0
33 1 12.7218500378 11.6373694526 0.0 0.0 0.0 0.0
34 1 18.0614500378 11.9119694526 0.0 0.0 0.0 0.0
35 1 23.2538500378 9.78895945258 0.0 0.0 0.0 0.0
36 1 30.7822500378 9.76036945258 0.0 0.0 0.0 0.0
37 1 33.8241500378 9.91329945258 0.0 0.0 0.0 0.0
38 1 39.4974500378 11.2968694526 0.0 0.0 0.0 0.0
39 1 44.7485500378 11.2643694526 0.0 0.0 0.0 0.0
40 1 50.2613500378 10.2719994526 0.0 0.0 0.0 0.0
41 1 55.2829500378 11.3917694526 0.0 0.0 0.0 0.0
42 1 61.8272500378 11.6390694526 0.0 0.0 0.0 0.0
43 1 64.7618500378 11.0354694526 0.0 0.0 0.0 0.0
44 1 69.1404500378 9.87182945258 0.0 0.0 0.0 0.0
45 1 74.3365500378 10.3558794526 0.0 0.0 0.0 0.0
46 1 0.576950037761 15.1408694526 0.0 0.0 0.0 0.0
47 1 5.15401003776 16.3720694526 0.0 0.0 0.0 0.0
48 1 9.34205003776 15.2195694526 0.0 0.0 0.0 0.0
49 1 17.2800500378 14.8088694526 0.0 0.0 0.0 0.0
50 1 21.2379500378 17.6147694526 0.0 0.0 0.0 0.0
51 1 25.5142500378 14.9497694526 0.0 0.0 0.0 0.0
52 1 31.0518500378 16.0956694526 0.0 0.0 0.0 0.0
53 1 36.5383500378 14.4821694526 0.0 0.0 0.0 0.0
54 1 41.7914500378 15.7932694526 0.0 0.0 0.0 0.0
55 1 48.6048500378 14.7830694526 0.0 0.0 0.0 0.0
56 1 51.5765500378 15.2069694526 0.0 0.0 0.0 0.0
57 1 56.1401500378 16.4823694526 0.0 0.0 0.0 0.0
58 1 61.5281500378 16.7958694526 0.0 0.0 0.0 0.0
59 1 67.7688500378 15.5332694526 0.0 0.0 0.0 0.0
60 1 72.4835500378 14.4504694526 0.0 0.0 0.0 0.0
61 1 2.77738003776 22.5755694526 0.0 0.0 0.0 0.0
62 1 8.30509003776 20.7932694526 0.0 0.0 0.0 0.0
63 1 13.8450500378 19.2663694526 0.0 0.0 0.0 0.0
64 1 19.6665500378 20.1802694526 0.0 0.0 0.0 0.0
65 1 24.0134500378 20.6973694526 0.0 0.0 0.0 0.0
66 1 30.9742500378 19.0781694526 0.0 0.0 0.0 0.0
67 1 33.9599500378 19.1270694526 0.0 0.0 0.0 0.0
68 1 38.7901500378 19.4240694526 0.0 0.0 0.0 0.0
69 1 42.9292500378 18.5880694526 0.0 0.0 0.0 0.0
70 1 49.7421500378 20.2537694526 0.0 0.0 0.0 0.0
71 1 54.5200500378 22.9776694526 0.0 0.0 0.0 0.0
72 1 59.5918500378 20.7846694526 0.0 0.0 0.0 0.0
73 1 63.8042500378 18.7627694526 0.0 0.0 0.0 0.0
74 1 72.1080500378 19.3087694526 0.0 0.0 0.0 0.0
75 1 75.1144500378 19.2735694526 0.0 0.0 0.0 0.0
76 1 1.02088003776 25.0523694526 0.0 0.0 0.0 0.0
77 1 5.76392003776 25.6228694526 0.0 0.0 0.0 0.0
78 1 13.0859500378 23.4948694526 0.0 0.0 0.0 0.0
79 1 16.0796500378 23.2719694526 0.0 0.0 0.0 0.0
80 1 20.9520500378 25.4705694526 0.0 0.0 0.0 0.0
81 1 26.1311500378 25.4933694526 0.0 0.0 0.0 0.0
82 1 31.1159500378 23.7509694526 0.0 0.0 0.0 0.0
83 1 36.4553500378 24.0228694526 0.0 0.0 0.0 0.0
84 1 41.6059500378 24.1151694526 0.0 0.0 0.0 0.0
85 1 46.9730500378 25.0850694526 0.0 0.0 0.0 0.0
86 1 54.8420500378 25.9677694526 0.0 0.0 0.0 0.0
87 1 59.4812500378 25.1613694526 0.0 0.0 0.0 0.0
88 1 62.4042500378 24.4695694526 0.0 0.0 0.0 0.0
89 1 67.0954500378 24.3119694526 0.0 0.0 0.0 0.0
90 1 72.2438500378 24.5870694526 0.0 0.0 0.0 0.0
91 1 3.11153003776 30.2175694526 0.0 0.0 0.0 0.0
92 1 8.16108003776 30.4903694526 0.0 0.0 0.0 0.0
93 1 11.0462500378 28.1008694526 0.0 0.0 0.0 0.0
94 1 17.2127500378 30.7900694526 0.0 0.0 0.0 0.0
95 1 21.8389500378 28.3702694526 0.0 0.0 0.0 0.0
96 1 30.1052500378 28.7484694526 0.0 0.0 0.0 0.0
97 1 35.5536500378 29.8040694526 0.0 0.0 0.0 0.0
98 1 38.3013500378 28.5630694526 0.0 0.0 0.0 0.0
99 1 43.4912500378 28.8496694526 0.0 0.0 0.0 0.0
100 1 48.7310500378 29.8816694526 0.0 0.0 0.0 0.0
101 1 53.4291500378 30.3479694526 0.0 0.0 0.0 0.0
102 1 58.7803500378 30.1230694526 0.0 0.0 0.0 0.0
103 1 64.2453500378 29.2739694526 0.0 0.0 0.0 0.0
104 1 69.2767500378 29.0209694526 0.0 0.0 0.0 0.0
105 1 74.6784500378 28.6801694526 0.0 0.0 0.0 0.0
106 1 76.0074500378 31.3763694526 0.0 0.0 0.0 0.0
107 1 5.47345003776 34.9259694526 0.0 0.0 0.0 0.0
108 1 12.8070500378 33.5553694526 0.0 0.0 0.0 0.0
109 1 15.8155500378 33.4606694526 0.0 0.0 0.0 0.0
110 1 20.3356500378 33.9607694526 0.0 0.0 0.0 0.0
111 1 27.9372500378 32.8112694526 0.0 0.0 0.0 0.0
112 1 30.9485500378 32.9300694526 0.0 0.0 0.0 0.0
113 1 34.6884500378 35.1927694526 0.0 0.0 0.0 0.0
114 1 40.5251500378 33.2101694526 0.0 0.0 0.0 0.0
115 1 46.0292500378 33.7069694526 0.0 0.0 0.0 0.0
116 1 50.9338500378 34.9675694526 0.0 0.0 0.0 0.0
117 1 56.3647500378 34.6095694526 0.0 0.0 0.0 0.0
118 1 61.9060500378 33.9557694526 0.0 0.0 0.0 0.0
119 1 67.2781500378 33.8074694526 0.0 0.0 0.0 0.0
120 1 73.3996500378 32.8350694526 0.0 0.0 0.0 0.0
121 1 2.31901003776 38.7505694526 0.0 0.0 0.0 0.0
122 1 7.24907003776 39.3318694526 0.0 0.0 0.0 0.0
123 1 12.2112500378 38.7505694526 0.0 0.0 0.0 0.0
124 1 17.2917500378 38.6806694526 0.0 0.0 0.0 0.0
125 1 22.3741500378 38.4557694526 0.0 0.0 0.0 0.0
126 1 27.4102500378 37.6225694526 0.0 0.0 0.0 0.0
127 1 32.5979500378 40.3514694526 0.0 0.0 0.0 0.0
128 1 36.6765500378 37.4324694526 0.0 0.0 0.0 0.0
129 1 43.7983500378 39.6390694526 0.0 0.0 0.0 0.0
130 1 48.7469500378 40.6650694526 0.0 0.0 0.0 0.0
131 1 54.0661500378 39.0810694526 0.0 0.0 0.0 0.0
132 1 59.2165500378 38.4634694526 0.0 0.0 0.0 0.0
133 1 64.8752500378 38.3036694526 0.0 0.0 0.0 0.0
134 1 69.6902500378 38.4432694526 0.0 0.0 0.0 0.0
135 1 74.5456500378 38.3021694526 0.0 0.0 0.0 0.0
136 1 76.8554500378 43.4106694526 0.0 0.0 0.0 0.0
137 1 5.06157003776 43.7441694526 0.0 0.0 0.0 0.0
138 1 10.4917500378 43.6255694526 0.0 0.0 0.0 0.0
139 1 15.2319500378 45.5763694526 0.0 0.0 0.0 0.0
140 1 20.4865500378 43.1497694526 0.0 0.0 0.0 0.0
141 1 25.9880500378 42.4514694526 0.0 0.0 0.0 0.0
142 1 31.6799500378 43.1980694526 0.0 0.0 0.0 0.0
143 1 36.8546500378 42.9879694526 0.0 0.0 0.0 0.0
144 1 42.3033500378 42.2528694526 0.0 0.0 0.0 0.0
145 1 47.4582500378 43.3689694526 0.0 0.0 0.0 0.0
146 1 52.2069500378 43.9418694526 0.0 0.0 0.0 0.0
147 1 56.8380500378 43.3219694526 0.0 0.0 0.0 0.0
148 1 62.1259500378 42.3821694526 0.0 0.0 0.0 0.0
149 1 69.0907500378 42.5828694526 0.0 0.0 0.0 0.0
150 1 72.0586500378 43.1245694526 0.0 0.0 0.0 0.0
151 1 2.46754003776 48.1471694526 0.0 0.0 0.0 0.0
152 1 7.74390003776 48.1087694526 0.0 0.0 0.0 0.0
153 1 13.1566500378 47.8262694526 0.0 0.0 0.0 0.0
154 1 20.3172500378 47.4695694526 0.0 0.0 0.0 0.0
155 1 25.1978500378 46.4342694526 0.0 0.0 0.0 0.0
156 1 28.2159500378 46.6883694526 0.0 0.0 0.0 0.0
157 1 33.7710500378 47.5788694526 0.0 0.0 0.0 0.0
158 1 40.7864500378 46.6874694526 0.0 0.0 0.0 0.0
159 1 43.7695500378 47.0771694526 0.0 0.0 0.0 0.0
160 1 49.0277500378 48.3807694526 0.0 0.0 0.0 0.0
161 1 54.3858500378 48.5076694526 0.0 0.0 0.0 0.0
162 1 61.0336500378 46.8405694526 0.0 0.0 0.0 0.0
163 1 64.0007500378 47.1292694526 0.0 0.0 0.0 0.0
164 1 68.6960500378 50.3301694526 0.0 0.0 0.0 0.0
165 1 74.1851500378 48.1730694526 0.0 0.0 0.0 0.0
166 1 0.119960037761 52.6721694526 0.0 0.0 0.0 0.0
167 1 5.02927003776 52.7041694526 0.0 0.0 0.0 0.0
168 1 9.84975003776 52.3697694526 0.0 0.0 0.0 0.0
169 1 14.4878500378 52.7829694526 0.0 0.0 0.0 0.0
170 1 19.7673500378 52.2597694526 0.0 0.0 0.0 0.0
171 1 24.9285500378 51.0332694526 0.0 0.0 0.0 0.0
172 1 30.5549500378 51.2489694526 0.0 0.0 0.0 0.0
173 1 35.8506500378 52.2193694526 0.0 0.0 0.0 0.0
174 1 40.5178500378 52.0577694526 0.0 0.0 0.0 0.0
175 1 45.5009500378 51.9554694526 0.0 0.0 0.0 0.0
176 1 50.8083500378 52.7265694526 0.0 0.0 0.0 0.0
177 1 58.2299500378 52.8031694526 0.0 0.0 0.0 0.0
178 1 61.2010500378 52.2902694526 0.0 0.0 0.0 0.0
179 1 66.8480500378 52.7427694526 0.0 0.0 0.0 0.0
180 1 72.1154500378 52.9590694526 0.0 0.0 0.0 0.0
181 1 2.53013003776 57.5226694526 0.0 0.0 0.0 0.0
182 1 7.66335003776 57.4302694526 0.0 0.0 0.0 0.0
183 1 12.3002500378 57.4654694526 0.0 0.0 0.0 0.0
184 1 17.4552500378 56.8464694526 0.0 0.0 0.0 0.0
185 1 22.8983500378 55.9685694526 0.0 0.0 0.0 0.0
186 1 28.1806500378 55.2139694526 0.0 0.0 0.0 0.0
187 1 33.5060500378 56.0232694526 0.0 0.0 0.0 0.0
188 1 38.7385500378 57.0058694526 0.0 0.0 0.0 0.0
189 1 43.6125500378 56.6791694526 0.0 0.0 0.0 0.0
190 1 49.3161500378 57.8301694526 0.0 0.0 0.0 0.0
191 1 52.3189500378 57.5850694526 0.0 0.0 0.0 0.0
192 1 57.3633500378 57.5718694526 0.0 0.0 0.0 0.0
193 1 62.8859500378 56.4872694526 0.0 0.0 0.0 0.0
194 1 69.8233500378 57.2768694526 0.0 0.0 0.0 0.0
195 1 74.9151500378 57.4864694526 0.0 0.0 0.0 0.0
196 1 76.6349500378 62.4485694526 0.0 0.0 0.0 0.0
197 1 5.29413003776 62.1114694526 0.0 0.0 0.0 0.0
198 1 10.5788500378 62.3854694526 0.0 0.0 0.0 0.0
199 1 17.0402500378 60.8939694526 0.0 0.0 0.0 0.0
200 1 20.0227500378 60.5218694526 0.0 0.0 0.0 0.0
201 1 25.3555500378 59.9069694526 0.0 0.0 0.0 0.0
202 1 30.6842500378 59.9328694526 0.0 0.0 0.0 0.0
203 1 35.7008500378 60.9306694526 0.0 0.0 0.0 0.0
204 1 40.6131500378 61.6569694526 0.0 0.0 0.0 0.0
205 1 46.9925500378 62.3603694526 0.0 0.0 0.0 0.0
206 1 51.3967500378 63.1506694526 0.0 0.0 0.0 0.0
207 1 55.9134500378 62.0395694526 0.0 0.0 0.0 0.0
208 1 60.6883500378 61.0816694526 0.0 0.0 0.0 0.0
209 1 64.4788500378 59.0391694526 0.0 0.0 0.0 0.0
210 1 71.4813500378 61.8628694526 0.0 0.0 0.0 0.0
211 1 1.23051003776 64.9744694526 0.0 0.0 0.0 0.0
212 1 7.91624003776 66.6469694526 0.0 0.0 0.0 0.0
213 1 11.6289500378 65.2464694526 0.0 0.0 0.0 0.0
214 1 18.6163500378 65.9706694526 0.0 0.0 0.0 0.0
215 1 23.6713500378 64.4072694526 0.0 0.0 0.0 0.0
216 1 28.4797500378 64.2243694526 0.0 0.0 0.0 0.0
217 1 31.3840500378 67.5757694526 0.0 0.0 0.0 0.0
218 1 38.0565500378 66.0138694526 0.0 0.0 0.0 0.0
219 1 41.6582500378 64.5127694526 0.0 0.0 0.0 0.0
220 1 47.3765500378 69.2787694526 0.0 0.0 0.0 0.0
221 1 55.8685500378 66.8479694526 0.0 0.0 0.0 0.0
222 1 58.8197500378 66.2825694526 0.0 0.0 0.0 0.0
223 1 64.6121500378 64.7335694526 0.0 0.0 0.0 0.0
224 1 67.6005500378 64.7676694526 0.0 0.0 0.0 0.0
225 1 71.8002500378 64.8520694526 0.0 0.0 0.0 0.0
226 1 76.4729500378 70.3932694526 0.0 0.0 0.0 0.0
227 1 5.04739003776 70.8063694526 0.0 0.0 0.0 0.0
228 1 10.4736500378 71.1325694526 0.0 0.0 0.0 0.0
229 1 17.9085500378 70.8478694526 0.0 0.0 0.0 0.0
230 1 22.5251500378 69.3148694526 0.0 0.0 0.0 0.0
231 1 25.4909500378 69.0071694526 0.0 0.0 0.0 0.0
232 1 29.8205500378 70.1226694526 0.0 0.0 0.0 0.0
233 1 33.8123500378 69.3016694526 0.0 0.0 0.0 0.0
234 1 40.7020500378 70.4898694526 0.0 0.0 0.0 0.0
235 1 45.7318500378 71.7372694526 0.0 0.0 0.0 0.0
236 1 49.9453500378 70.7918694526 0.0 0.0 0.0 0.0
237 1 56.5284500378 72.3961694526 0.0 0.0 0.0 0.0
238 1 61.5379500378 71.2333694526 0.0 0.0 0.0 0.0
239 1 65.9930500378 69.9991694526 0.0 0.0 0.0 0.0
240 1 70.8763500378 72.2864694526 0.0 0.0 0.0 0.0
241 1 2.51122003776 74.7703694526 0.0 0.0 0.0 0.0
242 1 7.24848003776 75.3995694526 0.0 0.0 0.0 0.0
243 1 12.2451500378 75.8368694526 0.0 0.0 0.0 0.0
244 1 18.5767500378 74.7578694526 0.0 0.0 0.0 0.0
245 1 21.6093500378 74.6340694526 0.0 0.0 0.0 0.0
246 1 26.7623500378 74.4520694526 0.0 0.0 0.0 0.0
247 1 32.1758500378 74.8263694526 0.0 0.0 0.0 0.0
248 1 37.3868500378 74.4752694526 0.0 0.0 0.0 0.0
249 1 41.2425500378 73.4951694526 0.0 0.0 0.0 0.0
250 1 48.2126500378 78.3179694526 0.0 0.0 0.0 0.0
251 1 53.9922500378 77.2598694526 0.0 0.0 0.0 0.0
252 1 59.2061500378 76.2798694526 0.0 0.0 0.0 0.0
253 1 64.5196500378 75.4807694526 0.0 0.0 0.0 0.0
254 1 69.6575500378 75.0757694526 0.0 0.0 0.0 0.0
255 1 74.3990500378 75.0259694526 0.0 0.0 0.0 0.0
256 1 0.434380037761 2.65349945258 0.0 0.0 0.0 0.0
257 1 4.90821003776 4.79670945258 0.0 0.0 0.0 0.0
258 1 7.89493003776 4.50376945258 0.0 0.0 0.0 0.0
259 1 12.5119500378 3.40085945258 0.0 0.0 0.0 0.0
260 1 21.2633500378 4.67652945258 0.0 0.0 0.0 0.0
261 1 25.3825500378 1.14594745258 0.0 0.0 0.0 0.0
262 1 30.6202500378 2.28541945258 0.0 0.0 0.0 0.0
263 1 35.6835500378 82.9786694526 0.0 0.0 0.0 0.0
264 1 40.0790500378 3.42806945258 0.0 0.0 0.0 0.0
265 1 43.0790500378 3.36729945258 0.0 0.0 0.0 0.0
266 1 47.9139500378 4.45776945258 0.0 0.0 0.0 0.0
267 1 56.2065500378 2.82649945258 0.0 0.0 0.0 0.0
268 1 61.4565500378 3.25755945258 0.0 0.0 0.0 0.0
269 1 68.6745500378 4.06626945258 0.0 0.0 0.0 0.0
270 1 72.5985500378 2.21955945258 0.0 0.0 0.0 0.0
271 1 4.04695003776 10.5778694526 0.0 0.0 0.0 0.0
272 1 7.70266003776 9.49819945258 0.0 0.0 0.0 0.0
273 1 11.8794500378 8.76927945258 0.0 0.0 0.0 0.0
274 1 14.6336500378 7.62938945258 0.0 0.0 0.0 0.0
275 1 23.5270500378 6.74679945258 0.0 0.0 0.0 0.0
276 1 29.1648500378 7.19898945258 0.0 0.0 0.0 0.0
277 1 33.8620500378 6.90154945258 0.0 0.0 0.0 0.0
278 1 39.1169500378 6.25965945258 0.0 0.0 0.0 0.0
279 1 43.9091500378 8.37351945258 0.0 0.0 0.0 0.0
280 1 50.8908500378 5.06955945258 0.0 0.0 0.0 0.0
281 1 55.0658500378 8.39625945258 0.0 0.0 0.0 0.0
282 1 60.5264500378 8.94537945258 0.0 0.0 0.0 0.0
283 1 63.4696500378 8.32410945258 0.0 0.0 0.0 0.0
284 1 69.9067500378 6.86051945258 0.0 0.0 0.0 0.0
285 1 75.4980500378 4.94474945258 0.0 0.0 0.0 0.0
286 1 76.5687500378 12.3450694526 0.0 0.0 0.0 0.0
287 1 5.17754003776 13.3620694526 0.0 0.0 0.0 0.0
288 1 12.2680500378 14.5995694526 0.0 0.0 0.0 0.0
289 1 15.4739500378 10.4694694526 0.0 0.0 0.0 0.0
290 1 21.0496500378 11.8629694526 0.0 0.0 0.0 0.0
291 1 25.3990500378 11.9218694526 0.0 0.0 0.0 0.0
292 1 28.3900500378 11.5883694526 0.0 0.0 0.0 0.0
293 1 36.4588500378 11.4721694526 0.0 0.0 0.0 0.0
294 1 42.1331500378 12.8007694526 0.0 0.0 0.0 0.0
295 1 47.7074500378 11.8993694526 0.0 0.0 0.0 0.0
296 1 52.4400500378 12.3402694526 0.0 0.0 0.0 0.0
297 1 57.2165500378 13.6870694526 0.0 0.0 0.0 0.0
298 1 60.1910500378 14.1239694526 0.0 0.0 0.0 0.0
299 1 67.4347500378 12.4447694526 0.0 0.0 0.0 0.0
300 1 71.6168500378 11.5693694526 0.0 0.0 0.0 0.0
301 1 2.39363003776 17.5196694526 0.0 0.0 0.0 0.0
302 1 7.79444003776 17.8087694526 0.0 0.0 0.0 0.0
303 1 14.6881500378 16.3703694526 0.0 0.0 0.0 0.0
304 1 20.2831500378 14.7825694526 0.0 0.0 0.0 0.0
305 1 24.2292500378 17.6906694526 0.0 0.0 0.0 0.0
306 1 28.4837500378 14.5731694526 0.0 0.0 0.0 0.0
307 1 34.0378500378 16.1306694526 0.0 0.0 0.0 0.0
308 1 38.8537500378 16.4121694526 0.0 0.0 0.0 0.0
309 1 45.7472500378 19.5911694526 0.0 0.0 0.0 0.0
310 1 48.0942500378 17.7401694526 0.0 0.0 0.0 0.0
311 1 53.3686500378 17.6225694526 0.0 0.0 0.0 0.0
312 1 58.7573500378 17.9330694526 0.0 0.0 0.0 0.0
313 1 66.7909500378 18.4394694526 0.0 0.0 0.0 0.0
314 1 70.5398500378 16.7212694526 0.0 0.0 0.0 0.0
315 1 74.8626500378 16.2827694526 0.0 0.0 0.0 0.0
316 1 0.962590037761 20.1634694526 0.0 0.0 0.0 0.0
317 1 5.82542003776 22.6001694526 0.0 0.0 0.0 0.0
318 1 11.3534500378 21.0241694526 0.0 0.0 0.0 0.0
319 1 16.6645500378 20.3466694526 0.0 0.0 0.0 0.0
320 1 21.5893500378 22.5022694526 0.0 0.0 0.0 0.0
321 1 26.3848500378 22.5104694526 0.0 0.0 0.0 0.0
322 1 29.1936500378 21.4649694526 0.0 0.0 0.0 0.0
323 1 36.2668500378 21.0317694526 0.0 0.0 0.0 0.0
324 1 41.2798500378 21.1054694526 0.0 0.0 0.0 0.0
325 1 47.3829500378 22.1037694526 0.0 0.0 0.0 0.0
326 1 52.7243500378 20.5591694526 0.0 0.0 0.0 0.0
327 1 57.5089500378 22.9040694526 0.0 0.0 0.0 0.0
328 1 62.5074500378 21.4704694526 0.0 0.0 0.0 0.0
329 1 67.7803500378 21.3469694526 0.0 0.0 0.0 0.0
330 1 70.7362500378 21.9695694526 0.0 0.0 0.0 0.0
331 1 3.16537003776 27.1819694526 0.0 0.0 0.0 0.0
332 1 8.11873003776 27.4941694526 0.0 0.0 0.0 0.0
333 1 13.5303500378 26.4603694526 0.0 0.0 0.0 0.0
334 1 17.9527500378 25.6183694526 0.0 0.0 0.0 0.0
335 1 24.8400500378 28.1991694526 0.0 0.0 0.0 0.0
336 1 29.0885500378 25.9451694526 0.0 0.0 0.0 0.0
337 1 33.7124500378 25.2304694526 0.0 0.0 0.0 0.0
338 1 38.9926500378 25.6297694526 0.0 0.0 0.0 0.0
339 1 44.0574500378 25.8842694526 0.0 0.0 0.0 0.0
340 1 49.3559500378 26.9466694526 0.0 0.0 0.0 0.0
341 1 52.3056500378 27.5528694526 0.0 0.0 0.0 0.0
342 1 57.5048500378 27.3994694526 0.0 0.0 0.0 0.0
343 1 64.7926500378 26.2871694526 0.0 0.0 0.0 0.0
344 1 69.5877500378 26.0235694526 0.0 0.0 0.0 0.0
345 1 75.0811500378 25.6882694526 0.0 0.0 0.0 0.0
346 1 1.58934003776 32.8353694526 0.0 0.0 0.0 0.0
347 1 5.56021003776 31.9332694526 0.0 0.0 0.0 0.0
348 1 11.0859500378 31.0948694526 0.0 0.0 0.0 0.0
349 1 16.1202500378 27.9891694526 0.0 0.0 0.0 0.0
350 1 20.2196500378 30.9375694526 0.0 0.0 0.0 0.0
351 1 27.3257500378 29.8937694526 0.0 0.0 0.0 0.0
352 1 33.0488500378 28.1576694526 0.0 0.0 0.0 0.0
353 1 33.8972500378 32.3049694526 0.0 0.0 0.0 0.0
354 1 40.8044500378 30.2187694526 0.0 0.0 0.0 0.0
355 1 45.8561500378 30.7119694526 0.0 0.0 0.0 0.0
356 1 50.9038500378 31.9617694526 0.0 0.0 0.0 0.0
357 1 56.1662500378 31.6139694526 0.0 0.0 0.0 0.0
358 1 61.7002500378 30.9332694526 0.0 0.0 0.0 0.0
359 1 66.8496500378 30.8105694526 0.0 0.0 0.0 0.0
360 1 72.0575500378 30.1568694526 0.0 0.0 0.0 0.0
361 1 2.57636003776 35.7169694526 0.0 0.0 0.0 0.0
362 1 8.06259003776 36.4415694526 0.0 0.0 0.0 0.0
363 1 11.0397500378 35.9877694526 0.0 0.0 0.0 0.0
364 1 17.8415500378 35.6901694526 0.0 0.0 0.0 0.0
365 1 22.9218500378 35.4969694526 0.0 0.0 0.0 0.0
366 1 25.9019500378 35.0238694526 0.0 0.0 0.0 0.0
367 1 31.7690500378 35.7994694526 0.0 0.0 0.0 0.0
368 1 39.2706500378 35.9369694526 0.0 0.0 0.0 0.0
369 1 43.1762500378 34.5998694526 0.0 0.0 0.0 0.0
370 1 48.0706500378 35.9096694526 0.0 0.0 0.0 0.0
371 1 53.7340500378 36.0940694526 0.0 0.0 0.0 0.0
372 1 59.2654500378 35.4530694526 0.0 0.0 0.0 0.0
373 1 64.6369500378 35.2885694526 0.0 0.0 0.0 0.0
374 1 69.8328500378 35.4536694526 0.0 0.0 0.0 0.0
375 1 72.8477500378 35.7801694526 0.0 0.0 0.0 0.0
376 1 76.7923500378 40.3479694526 0.0 0.0 0.0 0.0
377 1 4.59842003776 40.7474694526 0.0 0.0 0.0 0.0
378 1 9.91665003776 40.6858694526 0.0 0.0 0.0 0.0
379 1 14.7530500378 40.3466694526 0.0 0.0 0.0 0.0
380 1 19.9077500378 40.1842694526 0.0 0.0 0.0 0.0
381 1 25.1537500378 39.5833694526 0.0 0.0 0.0 0.0
382 1 30.3111500378 38.4032694526 0.0 0.0 0.0 0.0
383 1 35.6099500378 40.2439694526 0.0 0.0 0.0 0.0
384 1 41.9259500378 37.3088694526 0.0 0.0 0.0 0.0
385 1 46.6205500378 38.5534694526 0.0 0.0 0.0 0.0
386 1 51.7329500378 40.9744694526 0.0 0.0 0.0 0.0
387 1 56.8170500378 40.3034694526 0.0 0.0 0.0 0.0
388 1 62.0742500378 39.3937694526 0.0 0.0 0.0 0.0
389 1 67.2583500378 40.1721694526 0.0 0.0 0.0 0.0
390 1 72.1813500378 40.1283694526 0.0 0.0 0.0 0.0
391 1 2.35094003776 45.1091694526 0.0 0.0 0.0 0.0
392 1 7.80866003776 45.0752694526 0.0 0.0 0.0 0.0
393 1 13.4935500378 43.1151694526 0.0 0.0 0.0 0.0
394 1 18.2844500378 45.2283694526 0.0 0.0 0.0 0.0
395 1 23.4113500378 43.9997694526 0.0 0.0 0.0 0.0
396 1 28.7181500378 43.7316694526 0.0 0.0 0.0 0.0
397 1 34.3260500378 44.6298694526 0.0 0.0 0.0 0.0
398 1 39.7500500378 43.8517694526 0.0 0.0 0.0 0.0
399 1 44.5818500378 44.1977694526 0.0 0.0 0.0 0.0
400 1 49.6133500378 45.4425694526 0.0 0.0 0.0 0.0
401 1 54.7645500378 45.5096694526 0.0 0.0 0.0 0.0
402 1 59.7145500378 44.1551694526 0.0 0.0 0.0 0.0
403 1 64.5134500378 44.1823694526 0.0 0.0 0.0 0.0
404 1 67.3752500378 45.0097694526 0.0 0.0 0.0 0.0
405 1 74.3378500378 45.1237694526 0.0 0.0 0.0 0.0
406 1 76.8579500378 49.6442694526 0.0 0.0 0.0 0.0
407 1 5.11607003776 49.6561694526 0.0 0.0 0.0 0.0
408 1 10.5032500378 49.3795694526 0.0 0.0 0.0 0.0
409 1 15.3027500378 49.9087694526 0.0 0.0 0.0 0.0
410 1 18.2929500378 49.6640694526 0.0 0.0 0.0 0.0
411 1 23.1359500378 48.5983694526 0.0 0.0 0.0 0.0
412 1 30.8166500378 48.2515694526 0.0 0.0 0.0 0.0
413 1 36.2847500378 49.2521694526 0.0 0.0 0.0 0.0
414 1 39.2958500378 49.2944694526 0.0 0.0 0.0 0.0
415 1 46.0769500378 49.0108694526 0.0 0.0 0.0 0.0
416 1 51.6653500378 49.8383694526 0.0 0.0 0.0 0.0
417 1 56.9558500378 50.0858694526 0.0 0.0 0.0 0.0
418 1 59.9024500378 49.5865694526 0.0 0.0 0.0 0.0
419 1 66.8709500378 47.9544694526 0.0 0.0 0.0 0.0
420 1 71.7192500378 49.9734694526 0.0 0.0 0.0 0.0
421 1 2.56233003776 54.4686694526 0.0 0.0 0.0 0.0
422 1 7.55966003776 54.3673694526 0.0 0.0 0.0 0.0
423 1 12.0108500378 54.4642694526 0.0 0.0 0.0 0.0
424 1 17.2626500378 53.8832694526 0.0 0.0 0.0 0.0
425 1 22.6684500378 52.9930694526 0.0 0.0 0.0 0.0
426 1 27.7086500378 52.2360694526 0.0 0.0 0.0 0.0
427 1 32.9755500378 53.0595694526 0.0 0.0 0.0 0.0
428 1 38.2557500378 54.0293694526 0.0 0.0 0.0 0.0
429 1 43.0483500378 53.6995694526 0.0 0.0 0.0 0.0
430 1 47.9430500378 53.6931694526 0.0 0.0 0.0 0.0
431 1 53.0842500378 54.6885694526 0.0 0.0 0.0 0.0
432 1 56.0767500378 54.8702694526 0.0 0.0 0.0 0.0
433 1 63.9212500378 53.6360694526 0.0 0.0 0.0 0.0
434 1 69.4185500378 54.3093694526 0.0 0.0 0.0 0.0
435 1 74.7299500378 54.4667694526 0.0 0.0 0.0 0.0
436 1 0.174200037761 59.4450694526 0.0 0.0 0.0 0.0
437 1 5.12201003776 59.0810694526 0.0 0.0 0.0 0.0
438 1 9.99385003776 59.3922694526 0.0 0.0 0.0 0.0
439 1 15.0656500378 58.6441694526 0.0 0.0 0.0 0.0
440 1 20.3604500378 57.5563694526 0.0 0.0 0.0 0.0
441 1 25.7263500378 56.9392694526 0.0 0.0 0.0 0.0
442 1 30.6510500378 56.9359694526 0.0 0.0 0.0 0.0
443 1 35.8654500378 57.9197694526 0.0 0.0 0.0 0.0
444 1 41.2824500378 58.6636694526 0.0 0.0 0.0 0.0
445 1 46.6469500378 56.4191694526 0.0 0.0 0.0 0.0
446 1 49.5244500378 60.8057694526 0.0 0.0 0.0 0.0
447 1 54.8557500378 59.2276694526 0.0 0.0 0.0 0.0
448 1 60.3278500378 58.0893694526 0.0 0.0 0.0 0.0
449 1 67.4592500378 59.1055694526 0.0 0.0 0.0 0.0
450 1 72.3036500378 58.9718694526 0.0 0.0 0.0 0.0
451 1 4.20028003776 64.9270694526 0.0 0.0 0.0 0.0
452 1 7.86925003776 63.6354694526 0.0 0.0 0.0 0.0
453 1 14.5156500378 66.0053694526 0.0 0.0 0.0 0.0
454 1 16.5558500378 63.8291694526 0.0 0.0 0.0 0.0
455 1 22.8404500378 61.5357694526 0.0 0.0 0.0 0.0
456 1 28.0110500378 61.2776694526 0.0 0.0 0.0 0.0
457 1 32.8894500378 61.9668694526 0.0 0.0 0.0 0.0
458 1 37.9049500378 62.9801694526 0.0 0.0 0.0 0.0
459 1 44.6103500378 64.1334694526 0.0 0.0 0.0 0.0
460 1 48.8637500378 64.7021694526 0.0 0.0 0.0 0.0
461 1 54.1071500378 64.4199694526 0.0 0.0 0.0 0.0
462 1 58.6504500378 63.2781694526 0.0 0.0 0.0 0.0
463 1 63.5616500378 61.9078694526 0.0 0.0 0.0 0.0
464 1 68.4963500378 61.9082694526 0.0 0.0 0.0 0.0
465 1 74.7791500378 64.8357694526 0.0 0.0 0.0 0.0
466 1 76.4336500378 67.3517694526 0.0 0.0 0.0 0.0
467 1 5.16166003776 67.7883694526 0.0 0.0 0.0 0.0
468 1 10.5349500378 68.0858694526 0.0 0.0 0.0 0.0
469 1 16.5843500378 68.1614694526 0.0 0.0 0.0 0.0
470 1 21.5441500378 66.4968694526 0.0 0.0 0.0 0.0
471 1 26.1478500378 66.0870694526 0.0 0.0 0.0 0.0
472 1 31.4459500378 64.5902694526 0.0 0.0 0.0 0.0
473 1 36.7212500378 68.6983694526 0.0 0.0 0.0 0.0
474 1 40.7284500378 67.4104694526 0.0 0.0 0.0 0.0
475 1 46.4751500378 66.4565694526 0.0 0.0 0.0 0.0
476 1 52.8056500378 71.5979694526 0.0 0.0 0.0 0.0
477 1 55.1469500378 69.7506694526 0.0 0.0 0.0 0.0
478 1 61.0962500378 68.2622694526 0.0 0.0 0.0 0.0
479 1 64.0441500378 67.6839694526 0.0 0.0 0.0 0.0
480 1 69.6544500378 66.9576694526 0.0 0.0 0.0 0.0
481 1 2.16626003776 71.7648694526 0.0 0.0 0.0 0.0
482 1 7.66940003776 72.3770694526 0.0 0.0 0.0 0.0
483 1 12.9521500378 72.9114694526 0.0 0.0 0.0 0.0
484 1 15.9948500378 73.1427694526 0.0 0.0 0.0 0.0
485 1 20.7933500378 71.7446694526 0.0 0.0 0.0 0.0
486 1 27.1587500378 71.4817694526 0.0 0.0 0.0 0.0
487 1 32.2646500378 71.8425694526 0.0 0.0 0.0 0.0
488 1 37.8668500378 71.4776694526 0.0 0.0 0.0 0.0
489 1 44.1263500378 74.2352694526 0.0 0.0 0.0 0.0
490 1 48.3018500378 73.2682694526 0.0 0.0 0.0 0.0
491 1 54.1799500378 74.2567694526 0.0 0.0 0.0 0.0
492 1 59.3684500378 73.2916694526 0.0 0.0 0.0 0.0
493 1 64.2782500378 72.4718694526 0.0 0.0 0.0 0.0
494 1 69.0106500378 69.9039694526 0.0 0.0 0.0 0.0
495 1 73.9110500378 72.0512694526 0.0 0.0 0.0 0.0
496 1 0.0159000377612 76.4315694526 0.0 0.0 0.0 0.0
497 1 4.62916003776 76.9312694526 0.0 0.0 0.0 0.0
498 1 9.59755003776 77.3024694526 0.0 0.0 0.0 0.0
499 1 14.9228500378 77.2145694526 0.0 0.0 0.0 0.0
500 1 17.9035500378 77.6498694526 0.0 0.0 0.0 0.0
501 1 24.2735500378 76.1385694526 0.0 0.0 0.0 0.0
502 1 29.3867500378 75.9262694526 0.0 0.0 0.0 0.0
503 1 34.8737500378 76.1221694526 0.0 0.0 0.0 0.0
504 1 39.8552500378 76.2063694526 0.0 0.0 0.0 0.0
505 1 46.6903500378 75.7613694526 0.0 0.0 0.0 0.0
506 1 51.2310500378 78.4978694526 0.0 0.0 0.0 0.0
507 1 56.8747500378 78.1902694526 0.0 0.0 0.0 0.0
508 1 62.0546500378 77.2281694526 0.0 0.0 0.0 0.0
509 1 67.2001500378 76.8602694526 0.0 0.0 0.0 0.0
510 1 72.0461500378 76.9008694526 0.0 0.0 0.0 0.0
511 1 4.83917003776 82.6163694526 0.0 0.0 0.0 0.0
512 1 9.44875003776 80.3298694526 0.0 0.0 0.0 0.0
513 1 14.6866500378 80.1740694526 0.0 0.0 0.0 0.0
514 1 19.7719500378 80.0037694526 0.0 0.0 0.0 0.0
515 1 26.0571500378 78.6159694526 0.0 0.0 0.0 0.0
516 1 29.0860500378 78.9084694526 0.0 0.0 0.0 0.0
517 1 34.6056500378 79.1109694526 0.0 0.0 0.0 0.0
518 1 40.1882500378 79.2661694526 0.0 0.0 0.0 0.0
519 1 45.8775500378 80.2250694526 0.0 0.0 0.0 0.0
520 1 51.0367500378 81.4851694526 0.0 0.0 0.0 0.0
521 1 58.4547500378 80.7629694526 0.0 0.0 0.0 0.0
522 1 61.4364500378 80.1735694526 0.0 0.0 0.0 0.0
523 1 66.8532500378 79.8813694526 0.0 0.0 0.0 0.0
524 1 72.1370500378 79.9170694526 0.0 0.0 0.0 0.0
525 1 0.615280037761 79.3804694526 0.0 0.0 0.0 0.0
526 1 3.61536003776 79.8130694526 0.0 0.0 0.0 0.0
527 1 7.86758003776 82.8975694526 0.0 0.0 0.0 0.0
528 1 12.1287500378 81.6869694526 0.0 0.0 0.0 0.0
529 1 17.2933500378 81.6531694526 0.0 0.0 0.0 0.0
530 1 21.9359500378 82.0926694526 0.0 0.0 0.0 0.0
531 1 24.8433500378 81.3664694526 0.0 0.0 0.0 0.0
532 1 31.8014500378 80.2883694526 0.0 0.0 0.0 0.0
533 1 37.3352500378 80.4314694526 0.0 0.0 0.0 0.0
534 1 42.8854500378 80.7963694526 0.0 0.0 0.0 0.0
535 1 48.1241500378 82.2313694526 0.0 0.0 0.0 0.0
536 1 53.4258500378 0.123898452581 0.0 0.0 0.0 0.0
537 1 56.4183500378 82.9984694526 0.0 0.0 0.0 0.0
538 1 64.2028500378 81.3874694526 0.0 0.0 0.0 0.0
539 1 69.4827500378 81.3954694526 0.0 0.0 0.0 0.0
540 1 75.0169500378 80.8638694526 0.0 0.0 0.0 0.0
541 2 1.91794003776 2.38803945258 0.0 0.0 0.0 0.0
542 2 4.12905003776 3.49977945258 0.0 0.0 0.0 0.0
543 2 4.09089003776 0.782412452581 0.0 0.0 0.0 0.0
544 2 11.0903500378 2.83752945258 0.0 0.0 0.0 0.0
545 2 8.75978003776 3.29424945258 0.0 0.0 0.0 0.0
546 2 8.84833003776 0.897730452581 0.0 0.0 0.0 0.0
547 2 15.4835500378 1.19585345258 0.0 0.0 0.0 0.0
548 2 13.2428500378 2.10109945258 0.0 0.0 0.0 0.0
549 2 17.7636500378 2.70230945258 0.0 0.0 0.0 0.0
550 2 12.9974500378 82.9165694526 0.0 0.0 0.0 0.0
551 2 17.2997500378 83.1435694526 0.0 0.0 0.0 0.0
552 2 21.9915500378 0.442253652581 0.0 0.0 0.0 0.0
553 2 23.9630500378 1.66540945258 0.0 0.0 0.0 0.0
554 2 21.8466500378 3.26975945258 0.0 0.0 0.0 0.0
555 2 26.5745500378 2.05136945258 0.0 0.0 0.0 0.0
556 2 29.1234500378 2.57980945258 0.0 0.0 0.0 0.0
557 2 27.0418500378 4.44777945258 0.0 0.0 0.0 0.0
558 2 32.1097500378 81.7703694526 0.0 0.0 0.0 0.0
559 2 34.1678500378 83.1206694526 0.0 0.0 0.0 0.0
560 2 31.6208500378 1.14468145258 0.0 0.0 0.0 0.0
561 2 38.7598500378 2.68138945258 0.0 0.0 0.0 0.0
562 2 36.4837500378 1.09134045258 0.0 0.0 0.0 0.0
563 2 36.6308500378 3.73026945258 0.0 0.0 0.0 0.0
564 2 43.3989500378 1.89914945258 0.0 0.0 0.0 0.0
565 2 43.2897500378 82.2857694526 0.0 0.0 0.0 0.0
566 2 45.3544500378 1.05261145258 0.0 0.0 0.0 0.0
567 2 47.5828500378 0.453434652581 0.0 0.0 0.0 0.0
568 2 47.3659500378 3.04508945258 0.0 0.0 0.0 0.0
569 2 53.1581500378 1.60848945258 0.0 0.0 0.0 0.0
570 2 54.7343500378 3.18290945258 0.0 0.0 0.0 0.0
571 2 52.0375500378 4.07054945258 0.0 0.0 0.0 0.0
572 2 57.4459500378 3.66720945258 0.0 0.0 0.0 0.0
573 2 60.0468500378 3.80300945258 0.0 0.0 0.0 0.0
574 2 58.3334500378 5.95314945258 0.0 0.0 0.0 0.0
575 2 63.9555500378 82.8827694526 0.0 0.0 0.0 0.0
576 2 64.8439500378 2.11706945258 0.0 0.0 0.0 0.0
577 2 62.3943500378 2.05556945258 0.0 0.0 0.0 0.0
578 2 69.5306500378 82.9142694526 0.0 0.0 0.0 0.0
579 2 71.2377500378 1.60139945258 0.0 0.0 0.0 0.0
580 2 69.1932500378 2.63418945258 0.0 0.0 0.0 0.0
581 2 75.1427500378 82.3672694526 0.0 0.0 0.0 0.0
582 2 76.4146500378 1.57412945258 0.0 0.0 0.0 0.0
583 2 73.8939500378 1.45647945258 0.0 0.0 0.0 0.0
584 2 75.8722500378 6.40416945258 0.0 0.0 0.0 0.0
585 2 0.224740037761 8.70922945258 0.0 0.0 0.0 0.0
586 2 75.0026500378 9.00826945258 0.0 0.0 0.0 0.0
587 2 4.89887003776 6.32821945258 0.0 0.0 0.0 0.0
588 2 6.48232003776 8.62385945258 0.0 0.0 0.0 0.0
589 2 4.53174003776 9.15965945258 0.0 0.0 0.0 0.0
590 2 8.71995003776 5.76823945258 0.0 0.0 0.0 0.0
591 2 8.63613003776 8.33825945258 0.0 0.0 0.0 0.0
592 2 10.7426500378 7.80555945258 0.0 0.0 0.0 0.0
593 2 16.7681500378 4.54192945258 0.0 0.0 0.0 0.0
594 2 15.0232500378 6.20776945258 0.0 0.0 0.0 0.0
595 2 13.8353500378 4.17249945258 0.0 0.0 0.0 0.0
596 2 19.7252500378 4.54086945258 0.0 0.0 0.0 0.0
597 2 27.7400500378 6.68160945258 0.0 0.0 0.0 0.0
598 2 24.9924500378 6.29218945258 0.0 0.0 0.0 0.0