ITEM: TIMESTEP
0
ITEM: NUMBER OF ATOMS
1350
ITEM: BOX BOUNDS xy xz yz pp pp pp
0.0 78.3900277663 0
0.0 81.5823687479 0
-10.0 10.0 0
ITEM: ATOMS id type x y z vx vy vz
1 1 1.86873166002 0.879084373961 0.0 0.0 0.0 0.0
2 1 6.92910166002 1.11502437396 0.0 0.0 0.0 0.0
3 1 13.18545166 0.335720373961 0.0 0.0 0.0 0.0
4 1 18.37005166 1.18830437396 0.0 0.0 0.0 0.0
5 1 22.93225166 2.36781437396 0.0 0.0 0.0 0.0
6 1 27.85815166 2.97261437396 0.0 0.0 0.0 0.0
7 1 33.08865166 3.23134437396 0.0 0.0 0.0 0.0
8 1 39.67005166 1.47991437396 0.0 0.0 0.0 0.0
9 1 45.01275166 81.274384374 0.0 0.0 0.0 0.0
10 1 50.13665166 3.82081437396 0.0 0.0 0.0 0.0
11 1 54.80035166 1.08080437396 0.0 0.0 0.0 0.0
12 1 60.06405166 1.68435437396 0.0 0.0 0.0 0.0
13 1 65.52335166 2.12358437396 0.0 0.0 0.0 0.0
14 1 70.61175166 1.05560437396 0.0 0.0 0.0 0.0
15 1 75.61425166 0.586464373961 0.0 0.0 0.0 0.0
16 1 0.376744660015 5.50000437396 0.0 0.0 0.0 0.0
17 1 5.04444166002 5.46625437396 0.0 0.0 0.0 0.0
18 1 8.81438166002 3.45075437396 0.0 0.0 0.0 0.0
19 1 14.71465166 7.73963437396 0.0 0.0 0.0 0.0
20 1 20.02685166 6.52231437396 0.0 0.0 0.0 0.0
21 1 24.27885166 9.10566437396 0.0 0.0 0.0 0.0
22 1 29.59335166 7.49224437396 0.0 0.0 0.0 0.0
23 1 34.04365166 6.09026437396 0.0 0.0 0.0 0.0
24 1 44.01305166 4.17640437396 0.0 0.0 0.0 0.0
25 1 46.38025166 2.34953437396 0.0 0.0 0.0 0.0
26 1 52.78165166 6.51961437396 0.0 0.0 0.0 0.0
27 1 58.47175166 5.49633437396 0.0 0.0 0.0 0.0
28 1 61.25265166 4.41739437396 0.0 0.0 0.0 0.0
29 1 68.04475166 6.22457437396 0.0 0.0 0.0 0.0
30 1 73.58475166 5.52102437396 0.0 0.0 0.0 0.0
31 1 4.75929166002 9.61918437396 0.0 0.0 0.0 0.0
32 1 7.76418166002 9.30377437396 0.0 0.0 0.0 0.0
33 1 12.99065166 10.210784374 0.0 0.0 0.0 0.0
34 1 18.27755166 11.313684374 0.0 0.0 0.0 0.0
35 1 23.17775166 11.879284374 0.0 0.0 0.0 0.0
36 1 26.72545166 15.104884374 0.0 0.0 0.0 0.0
37 1 32.84395166 11.586684374 0.0 0.0 0.0 0.0
38 1 37.78445166 9.43141437396 0.0 0.0 0.0 0.0
39 1 42.58735166 11.283584374 0.0 0.0 0.0 0.0
40 1 48.23615166 9.37648437396 0.0 0.0 0.0 0.0
41 1 53.93205166 11.585484374 0.0 0.0 0.0 0.0
42 1 59.28325166 10.957184374 0.0 0.0 0.0 0.0
43 1 64.51475166 10.540384374 0.0 0.0 0.0 0.0
44 1 69.35225166 8.96571437396 0.0 0.0 0.0 0.0
45 1 76.55765166 10.000284374 0.0 0.0 0.0 0.0
46 1 77.91655166 14.822384374 0.0 0.0 0.0 0.0
47 1 4.59302166002 15.065684374 0.0 0.0 0.0 0.0
48 1 9.56566166002 14.151184374 0.0 0.0 0.0 0.0
49 1 15.12775166 15.039984374 0.0 0.0 0.0 0.0
50 1 20.14415166 16.321284374 0.0 0.0 0.0 0.0
51 1 25.17995166 17.652284374 0.0 0.0 0.0 0.0
52 1 29.49185166 16.219284374 0.0 0.0 0.0 0.0
53 1 36.09355166 14.731784374 0.0 0.0 0.0 0.0
54 1 41.87195166 14.213484374 0.0 0.0 0.0 0.0
55 1 46.56155166 13.428884374 0.0 0.0 0.0 0.0
56 1 49.27865166 12.200784374 0.0 0.0 0.0 0.0
57 1 56.14895166 15.471184374 0.0 0.0 0.0 0.0
58 1 61.71525166 15.201284374 0.0 0.0 0.0 0.0
59 1 66.04675166 13.146084374 0.0 0.0 0.0 0.0
60 1 72.81295166 13.766984374 0.0 0.0 0.0 0.0
61 1 1.17765166002 19.424984374 0.0 0.0 0.0 0.0
62 1 7.73074166002 19.232684374 0.0 0.0 0.0 0.0
63 1 12.61105166 18.574884374 0.0 0.0 0.0 0.0
64 1 14.71265166 22.488684374 0.0 0.0 0.0 0.0
65 1 22.58885166 21.450684374 0.0 0.0 0.0 0.0
66 1 28.18185166 21.778784374 0.0 0.0 0.0 0.0
67 1 33.03335166 19.748284374 0.0 0.0 0.0 0.0
68 1 37.90945166 18.038984374 0.0 0.0 0.0 0.0
69 1 43.09665166 20.119584374 0.0 0.0 0.0 0.0
70 1 47.74625166 20.543384374 0.0 0.0 0.0 0.0
71 1 53.41645166 19.370184374 0.0 0.0 0.0 0.0
72 1 58.81255166 19.381584374 0.0 0.0 0.0 0.0
73 1 63.25725166 17.797784374 0.0 0.0 0.0 0.0
74 1 69.14215166 20.478984374 0.0 0.0 0.0 0.0
75 1 74.46145166 18.682484374 0.0 0.0 0.0 0.0
76 1 76.43135166 23.545384374 0.0 0.0 0.0 0.0
77 1 3.08832166002 21.720984374 0.0 0.0 0.0 0.0
78 1 11.80425166 23.261984374 0.0 0.0 0.0 0.0
79 1 17.20105166 24.150984374 0.0 0.0 0.0 0.0
80 1 20.51015166 25.867784374 0.0 0.0 0.0 0.0
81 1 25.52315166 25.814584374 0.0 0.0 0.0 0.0
82 1 31.26205166 25.226984374 0.0 0.0 0.0 0.0
83 1 40.16815166 24.564884374 0.0 0.0 0.0 0.0
84 1 38.22855166 22.291184374 0.0 0.0 0.0 0.0
85 1 46.57545166 25.736984374 0.0 0.0 0.0 0.0
86 1 52.00285166 23.519184374 0.0 0.0 0.0 0.0
87 1 57.46775166 23.429484374 0.0 0.0 0.0 0.0
88 1 62.63005166 25.419584374 0.0 0.0 0.0 0.0
89 1 69.17585166 23.542684374 0.0 0.0 0.0 0.0
90 1 72.16975166 23.559384374 0.0 0.0 0.0 0.0
91 1 1.04584166002 26.858084374 0.0 0.0 0.0 0.0
92 1 6.18270166002 27.448684374 0.0 0.0 0.0 0.0
93 1 9.79225166002 31.373884374 0.0 0.0 0.0 0.0
94 1 17.88245166 30.129784374 0.0 0.0 0.0 0.0
95 1 23.07975166 31.737284374 0.0 0.0 0.0 0.0
96 1 28.64685166 29.421784374 0.0 0.0 0.0 0.0
97 1 32.90845166 27.780884374 0.0 0.0 0.0 0.0
98 1 40.05795166 29.731984374 0.0 0.0 0.0 0.0
99 1 45.22625166 28.417684374 0.0 0.0 0.0 0.0
100 1 50.35965166 28.083984374 0.0 0.0 0.0 0.0
101 1 53.78675166 30.356684374 0.0 0.0 0.0 0.0
102 1 62.09825166 28.378284374 0.0 0.0 0.0 0.0
103 1 64.93315166 29.341084374 0.0 0.0 0.0 0.0
104 1 69.56805166 29.444084374 0.0 0.0 0.0 0.0
105 1 74.18595166 28.702584374 0.0 0.0 0.0 0.0
106 1 1.18801166002 30.642084374 0.0 0.0 0.0 0.0
107 1 4.12165166002 33.855684374 0.0 0.0 0.0 0.0
108 1 8.93378166002 35.304584374 0.0 0.0 0.0 0.0
109 1 12.85055166 31.934184374 0.0 0.0 0.0 0.0
110 1 21.99195166 34.543684374 0.0 0.0 0.0 0.0
111 1 26.92035166 33.537684374 0.0 0.0 0.0 0.0
112 1 32.20965166 33.409984374 0.0 0.0 0.0 0.0
113 1 37.76615166 33.985884374 0.0 0.0 0.0 0.0
114 1 43.44995166 33.408984374 0.0 0.0 0.0 0.0
115 1 48.27825166 32.762784374 0.0 0.0 0.0 0.0
116 1 52.14065166 34.787584374 0.0 0.0 0.0 0.0
117 1 57.35345166 33.170284374 0.0 0.0 0.0 0.0
118 1 60.82595166 36.237884374 0.0 0.0 0.0 0.0
119 1 66.35025166 34.258384374 0.0 0.0 0.0 0.0
120 1 73.30605166 33.929484374 0.0 0.0 0.0 0.0
121 1 3.71057166002 36.833484374 0.0 0.0 0.0 0.0
122 1 9.97665166002 38.101984374 0.0 0.0 0.0 0.0
123 1 12.89685166 37.541884374 0.0 0.0 0.0 0.0
124 1 17.04245166 35.385784374 0.0 0.0 0.0 0.0
125 1 26.48045166 38.045584374 0.0 0.0 0.0 0.0
126 1 29.45315166 37.842084374 0.0 0.0 0.0 0.0
127 1 33.36025166 36.220184374 0.0 0.0 0.0 0.0
128 1 40.21055166 37.607384374 0.0 0.0 0.0 0.0
129 1 45.63105166 37.889684374 0.0 0.0 0.0 0.0
130 1 52.33745166 37.733684374 0.0 0.0 0.0 0.0
131 1 55.31815166 38.025284374 0.0 0.0 0.0 0.0
132 1 59.99505166 39.158384374 0.0 0.0 0.0 0.0
133 1 64.54335166 38.732284374 0.0 0.0 0.0 0.0
134 1 69.57545166 38.842784374 0.0 0.0 0.0 0.0
135 1 76.52895166 37.305084374 0.0 0.0 0.0 0.0
136 1 1.23595166002 41.160584374 0.0 0.0 0.0 0.0
137 1 4.08355166002 42.035984374 0.0 0.0 0.0 0.0
138 1 8.68759166002 43.362184374 0.0 0.0 0.0 0.0
139 1 15.63805166 41.218784374 0.0 0.0 0.0 0.0
140 1 20.75205166 42.228884374 0.0 0.0 0.0 0.0
141 1 26.19635166 42.415284374 0.0 0.0 0.0 0.0
142 1 32.12225166 42.046084374 0.0 0.0 0.0 0.0
143 1 37.67855166 42.332884374 0.0 0.0 0.0 0.0
144 1 43.12745166 41.979584374 0.0 0.0 0.0 0.0
145 1 50.53875166 44.078584374 0.0 0.0 0.0 0.0
146 1 54.58875166 41.831784374 0.0 0.0 0.0 0.0
147 1 55.82105166 46.621784374 0.0 0.0 0.0 0.0
148 1 62.75975166 43.927984374 0.0 0.0 0.0 0.0
149 1 68.08465166 41.588084374 0.0 0.0 0.0 0.0
150 1 72.73055166 41.547484374 0.0 0.0 0.0 0.0
151 1 0.720651660015 49.230984374 0.0 0.0 0.0 0.0
152 1 6.34199166002 47.367484374 0.0 0.0 0.0 0.0
153 1 11.11185166 45.114584374 0.0 0.0 0.0 0.0
154 1 15.67785166 48.547184374 0.0 0.0 0.0 0.0
155 1 23.95105166 46.580984374 0.0 0.0 0.0 0.0
156 1 29.40675166 46.026384374 0.0 0.0 0.0 0.0
157 1 34.65585166 46.504084374 0.0 0.0 0.0 0.0
158 1 40.22725166 46.614384374 0.0 0.0 0.0 0.0
159 1 45.44825166 47.200284374 0.0 0.0 0.0 0.0
160 1 49.68405166 47.881484374 0.0 0.0 0.0 0.0
161 1 54.18315166 49.116084374 0.0 0.0 0.0 0.0
162 1 58.47665166 48.074684374 0.0 0.0 0.0 0.0
163 1 65.54575166 46.750284374 0.0 0.0 0.0 0.0
164 1 70.17265166 46.497984374 0.0 0.0 0.0 0.0
165 1 74.77815166 46.541984374 0.0 0.0 0.0 0.0
166 1 77.64355166 51.863384374 0.0 0.0 0.0 0.0
167 1 4.10499166002 51.752984374 0.0 0.0 0.0 0.0
168 1 9.75145166002 50.565384374 0.0 0.0 0.0 0.0
169 1 18.66295166 48.879684374 0.0 0.0 0.0 0.0
170 1 22.31325166 51.359484374 0.0 0.0 0.0 0.0
171 1 27.09575166 50.527484374 0.0 0.0 0.0 0.0
172 1 30.18725166 53.237684374 0.0 0.0 0.0 0.0
173 1 37.50845166 50.821184374 0.0 0.0 0.0 0.0
174 1 44.23305166 51.053584374 0.0 0.0 0.0 0.0
175 1 46.92445166 52.530584374 0.0 0.0 0.0 0.0
176 1 51.90555166 53.197284374 0.0 0.0 0.0 0.0
177 1 57.93685166 53.988484374 0.0 0.0 0.0 0.0
178 1 63.05835166 51.781784374 0.0 0.0 0.0 0.0
179 1 67.77315166 51.549884374 0.0 0.0 0.0 0.0
180 1 72.69505166 51.424284374 0.0 0.0 0.0 0.0
181 1 1.91354166002 56.541884374 0.0 0.0 0.0 0.0
182 1 7.15661166002 54.898384374 0.0 0.0 0.0 0.0
183 1 11.72255166 52.839984374 0.0 0.0 0.0 0.0
184 1 18.08305166 55.755484374 0.0 0.0 0.0 0.0
185 1 23.97095166 55.570984374 0.0 0.0 0.0 0.0
186 1 28.92935166 55.957084374 0.0 0.0 0.0 0.0
187 1 32.86375166 54.553584374 0.0 0.0 0.0 0.0
188 1 39.25055166 55.051884374 0.0 0.0 0.0 0.0
189 1 44.34075166 56.318784374 0.0 0.0 0.0 0.0
190 1 50.04915166 57.510484374 0.0 0.0 0.0 0.0
191 1 55.90985166 56.293384374 0.0 0.0 0.0 0.0
192 1 61.04505166 56.958384374 0.0 0.0 0.0 0.0
193 1 66.10965166 56.536484374 0.0 0.0 0.0 0.0
194 1 70.82045166 56.157884374 0.0 0.0 0.0 0.0
195 1 75.16705166 58.796084374 0.0 0.0 0.0 0.0
196 1 1.14486166002 61.338684374 0.0 0.0 0.0 0.0
197 1 6.24031166002 59.553884374 0.0 0.0 0.0 0.0
198 1 11.15665166 60.248784374 0.0 0.0 0.0 0.0
199 1 16.85525166 58.488384374 0.0 0.0 0.0 0.0
200 1 21.57965166 61.487584374 0.0 0.0 0.0 0.0
201 1 26.86615166 60.432484374 0.0 0.0 0.0 0.0
202 1 31.63785166 60.318984374 0.0 0.0 0.0 0.0
203 1 37.56975166 58.665484374 0.0 0.0 0.0 0.0
204 1 40.35585166 59.775184374 0.0 0.0 0.0 0.0
205 1 45.24885166 59.215984374 0.0 0.0 0.0 0.0
206 1 53.15165166 60.606384374 0.0 0.0 0.0 0.0
207 1 58.29115166 61.179884374 0.0 0.0 0.0 0.0
208 1 63.52295166 61.369384374 0.0 0.0 0.0 0.0
209 1 68.97835166 61.262384374 0.0 0.0 0.0 0.0
210 1 74.03545166 61.589884374 0.0 0.0 0.0 0.0
211 1 4.30333166002 64.768684374 0.0 0.0 0.0 0.0
212 1 10.74895166 63.229084374 0.0 0.0 0.0 0.0
213 1 16.03525166 64.584784374 0.0 0.0 0.0 0.0
214 1 20.90615166 64.390784374 0.0 0.0 0.0 0.0
215 1 24.78255166 67.983584374 0.0 0.0 0.0 0.0
216 1 29.78715166 65.211284374 0.0 0.0 0.0 0.0
217 1 35.45255166 64.793684374 0.0 0.0 0.0 0.0
218 1 38.43485166 64.135784374 0.0 0.0 0.0 0.0
219 1 43.92415166 65.682784374 0.0 0.0 0.0 0.0
220 1 48.39905166 63.026084374 0.0 0.0 0.0 0.0
221 1 54.72285166 67.725784374 0.0 0.0 0.0 0.0
222 1 60.25735166 65.743084374 0.0 0.0 0.0 0.0
223 1 65.81315166 65.600984374 0.0 0.0 0.0 0.0
224 1 71.31735166 66.169784374 0.0 0.0 0.0 0.0
225 1 77.14015166 65.670184374 0.0 0.0 0.0 0.0
226 1 1.92956166002 69.202184374 0.0 0.0 0.0 0.0
227 1 6.11520166002 67.184984374 0.0 0.0 0.0 0.0
228 1 13.63345166 66.343684374 0.0 0.0 0.0 0.0
229 1 19.69195166 69.000284374 0.0 0.0 0.0 0.0
230 1 22.52625166 70.009984374 0.0 0.0 0.0 0.0
231 1 28.64815166 70.347484374 0.0 0.0 0.0 0.0
232 1 31.56075166 71.010584374 0.0 0.0 0.0 0.0
233 1 35.92045166 70.782984374 0.0 0.0 0.0 0.0
234 1 43.91135166 68.673484374 0.0 0.0 0.0 0.0
235 1 46.92625166 68.810684374 0.0 0.0 0.0 0.0
236 1 53.16355166 70.333284374 0.0 0.0 0.0 0.0
237 1 58.32325166 70.416984374 0.0 0.0 0.0 0.0
238 1 62.97225166 69.873984374 0.0 0.0 0.0 0.0
239 1 68.36565166 70.071084374 0.0 0.0 0.0 0.0
240 1 72.77875166 68.858484374 0.0 0.0 0.0 0.0
241 1 4.11676166002 72.984284374 0.0 0.0 0.0 0.0
242 1 12.09125166 73.033784374 0.0 0.0 0.0 0.0
243 1 11.86155166 70.084084374 0.0 0.0 0.0 0.0
244 1 16.85575166 75.122584374 0.0 0.0 0.0 0.0
245 1 22.01285166 72.990084374 0.0 0.0 0.0 0.0
246 1 28.76725166 75.763084374 0.0 0.0 0.0 0.0
247 1 33.62225166 75.916884374 0.0 0.0 0.0 0.0
248 1 38.19795166 74.612184374 0.0 0.0 0.0 0.0
249 1 43.07735166 73.180984374 0.0 0.0 0.0 0.0
250 1 47.99235166 71.700384374 0.0 0.0 0.0 0.0
251 1 55.45875166 74.878384374 0.0 0.0 0.0 0.0
252 1 60.95495166 75.029084374 0.0 0.0 0.0 0.0
253 1 65.78135166 74.240584374 0.0 0.0 0.0 0.0
254 1 70.03995166 72.564484374 0.0 0.0 0.0 0.0
255 1 77.17245166 73.555184374 0.0 0.0 0.0 0.0
256 1 77.83865166 2.62352437396 0.0 0.0 0.0 0.0
257 1 4.32675166002 2.57368437396 0.0 0.0 0.0 0.0
258 1 11.75095166 2.95392437396 0.0 0.0 0.0 0.0
259 1 15.55075166 2.16587437396 0.0 0.0 0.0 0.0
260 1 20.18045166 3.54926437396 0.0 0.0 0.0 0.0
261 1 25.17735166 4.32306437396 0.0 0.0 0.0 0.0
262 1 30.37915166 4.57711437396 0.0 0.0 0.0 0.0
263 1 39.14715166 4.43469437396 0.0 0.0 0.0 0.0
264 1 42.65225166 1.50170437396 0.0 0.0 0.0 0.0
265 1 49.07635166 1.03406437396 0.0 0.0 0.0 0.0
266 1 53.10785166 3.55374437396 0.0 0.0 0.0 0.0
267 1 57.28125166 2.75491437396 0.0 0.0 0.0 0.0
268 1 64.20305166 4.83707437396 0.0 0.0 0.0 0.0
269 1 68.37465166 3.15646437396 0.0 0.0 0.0 0.0
270 1 73.26085166 2.49784437396 0.0 0.0 0.0 0.0
271 1 2.75217166002 7.36796437396 0.0 0.0 0.0 0.0
272 1 7.91277166002 6.31034437396 0.0 0.0 0.0 0.0
273 1 14.10975166 4.79420437396 0.0 0.0 0.0 0.0
274 1 17.66485166 8.37569437396 0.0 0.0 0.0 0.0
275 1 23.02725166 6.41636437396 0.0 0.0 0.0 0.0
276 1 27.25975166 9.40405437396 0.0 0.0 0.0 0.0
277 1 32.36905166 8.60937437396 0.0 0.0 0.0 0.0
278 1 37.00005166 6.53274437396 0.0 0.0 0.0 0.0
279 1 41.67925166 6.06505437396 0.0 0.0 0.0 0.0
280 1 49.79215166 6.79589437396 0.0 0.0 0.0 0.0
281 1 54.77725166 8.73184437396 0.0 0.0 0.0 0.0
282 1 57.75285166 8.39152437396 0.0 0.0 0.0 0.0
283 1 65.35675166 7.61046437396 0.0 0.0 0.0 0.0
284 1 72.25695166 8.23291437396 0.0 0.0 0.0 0.0
285 1 76.19455166 7.01733437396 0.0 0.0 0.0 0.0
286 1 0.437366660015 11.968884374 0.0 0.0 0.0 0.0
287 1 3.42627166002 12.296684374 0.0 0.0 0.0 0.0
288 1 10.12225166 11.183084374 0.0 0.0 0.0 0.0
289 1 15.36965166 12.058884374 0.0 0.0 0.0 0.0
290 1 20.53245166 13.320484374 0.0 0.0 0.0 0.0
291 1 26.16185166 12.188284374 0.0 0.0 0.0 0.0
292 1 31.93735166 14.475884374 0.0 0.0 0.0 0.0
293 1 35.83895166 11.737384374 0.0 0.0 0.0 0.0
294 1 40.74455166 8.92554437396 0.0 0.0 0.0 0.0
295 1 45.50975166 10.623184374 0.0 0.0 0.0 0.0
296 1 51.84955166 13.737784374 0.0 0.0 0.0 0.0
297 1 56.75595166 12.555584374 0.0 0.0 0.0 0.0
298 1 62.00915166 12.197184374 0.0 0.0 0.0 0.0
299 1 68.81115166 11.973384374 0.0 0.0 0.0 0.0
300 1 73.69255166 10.883684374 0.0 0.0 0.0 0.0
301 1 1.98356166002 16.543484374 0.0 0.0 0.0 0.0
302 1 7.36997166002 16.226784374 0.0 0.0 0.0 0.0
303 1 12.18505166 15.618784374 0.0 0.0 0.0 0.0
304 1 17.25175166 17.174384374 0.0 0.0 0.0 0.0
305 1 22.28855166 18.449984374 0.0 0.0 0.0 0.0
306 1 27.95535166 18.794584374 0.0 0.0 0.0 0.0
307 1 33.85885166 16.796184374 0.0 0.0 0.0 0.0
308 1 39.04065166 15.268084374 0.0 0.0 0.0 0.0
309 1 45.58745166 18.451684374 0.0 0.0 0.0 0.0
310 1 44.53365166 15.635584374 0.0 0.0 0.0 0.0
311 1 53.29295166 16.370284374 0.0 0.0 0.0 0.0
312 1 58.97835166 16.405984374 0.0 0.0 0.0 0.0
313 1 65.81965166 16.186884374 0.0 0.0 0.0 0.0
314 1 69.98195166 14.774084374 0.0 0.0 0.0 0.0
315 1 75.06255166 15.747784374 0.0 0.0 0.0 0.0
316 1 76.78685166 20.564084374 0.0 0.0 0.0 0.0
317 1 6.08245166002 21.751684374 0.0 0.0 0.0 0.0
318 1 10.40915166 20.599184374 0.0 0.0 0.0 0.0
319 1 15.43865166 19.570884374 0.0 0.0 0.0 0.0
320 1 19.95945166 22.937684374 0.0 0.0 0.0 0.0
321 1 25.31915166 22.802584374 0.0 0.0 0.0 0.0
322 1 31.18245166 22.190784374 0.0 0.0 0.0 0.0
323 1 35.97155166 20.331784374 0.0 0.0 0.0 0.0
324 1 40.13835166 19.992284374 0.0 0.0 0.0 0.0
325 1 42.81345166 23.104184374 0.0 0.0 0.0 0.0
326 1 50.76405166 20.784484374 0.0 0.0 0.0 0.0
327 1 56.12875166 20.725284374 0.0 0.0 0.0 0.0
328 1 61.63815166 20.387584374 0.0 0.0 0.0 0.0
329 1 68.55085166 17.474384374 0.0 0.0 0.0 0.0
330 1 72.13995166 20.569984374 0.0 0.0 0.0 0.0
331 1 1.01855166002 23.882884374 0.0 0.0 0.0 0.0
332 1 7.09941166002 24.587684374 0.0 0.0 0.0 0.0
333 1 9.92605166002 25.603184374 0.0 0.0 0.0 0.0
334 1 17.77305166 27.107184374 0.0 0.0 0.0 0.0
335 1 22.99675166 27.495384374 0.0 0.0 0.0 0.0
336 1 28.48525166 26.422484374 0.0 0.0 0.0 0.0
337 1 35.86555166 28.391784374 0.0 0.0 0.0 0.0
338 1 38.59395166 27.122384374 0.0 0.0 0.0 0.0
339 1 45.80325166 22.861584374 0.0 0.0 0.0 0.0
340 1 49.52785166 25.228784374 0.0 0.0 0.0 0.0
341 1 54.75185166 24.785784374 0.0 0.0 0.0 0.0
342 1 60.53425166 23.220084374 0.0 0.0 0.0 0.0
343 1 65.49365166 26.391984374 0.0 0.0 0.0 0.0
344 1 68.50915166 26.527484374 0.0 0.0 0.0 0.0
345 1 74.29165166 25.676284374 0.0 0.0 0.0 0.0
346 1 77.19005166 28.839284374 0.0 0.0 0.0 0.0
347 1 3.43202166002 28.659584374 0.0 0.0 0.0 0.0
348 1 9.01106166002 28.463584374 0.0 0.0 0.0 0.0
349 1 15.89945166 32.485084374 0.0 0.0 0.0 0.0
350 1 20.90145166 29.699384374 0.0 0.0 0.0 0.0
351 1 25.93125166 30.731484374 0.0 0.0 0.0 0.0
352 1 31.48865166 30.457684374 0.0 0.0 0.0 0.0
353 1 37.34315166 31.015184374 0.0 0.0 0.0 0.0
354 1 42.98535166 30.428184374 0.0 0.0 0.0 0.0
355 1 47.88495166 29.801584374 0.0 0.0 0.0 0.0
356 1 53.28775166 27.419084374 0.0 0.0 0.0 0.0
357 1 56.79995166 30.253184374 0.0 0.0 0.0 0.0
358 1 59.80535166 30.302184374 0.0 0.0 0.0 0.0
359 1 67.18885166 31.338484374 0.0 0.0 0.0 0.0
360 1 72.21505166 31.020384374 0.0 0.0 0.0 0.0
361 1 1.03007166002 33.620084374 0.0 0.0 0.0 0.0
362 1 7.09629166002 32.939984374 0.0 0.0 0.0 0.0
363 1 11.87655166 34.743284374 0.0 0.0 0.0 0.0
364 1 19.82735166 36.627384374 0.0 0.0 0.0 0.0
365 1 24.77575166 35.603984374 0.0 0.0 0.0 0.0
366 1 29.59385166 34.849284374 0.0 0.0 0.0 0.0
367 1 36.32245166 36.633984374 0.0 0.0 0.0 0.0
368 1 40.69475166 34.644784374 0.0 0.0 0.0 0.0
369 1 46.09775166 34.883684374 0.0 0.0 0.0 0.0
370 1 51.20395166 31.972484374 0.0 0.0 0.0 0.0
371 1 55.10155166 35.079384374 0.0 0.0 0.0 0.0
372 1 60.31355166 33.271984374 0.0 0.0 0.0 0.0
373 1 63.78595166 35.828284374 0.0 0.0 0.0 0.0
374 1 71.78225166 36.653684374 0.0 0.0 0.0 0.0
375 1 76.38905166 34.303784374 0.0 0.0 0.0 0.0
376 1 1.01130166002 38.171584374 0.0 0.0 0.0 0.0
377 1 5.36903166002 39.332284374 0.0 0.0 0.0 0.0
378 1 8.14487166002 40.431384374 0.0 0.0 0.0 0.0
379 1 15.81145166 38.180684374 0.0 0.0 0.0 0.0
380 1 21.36445166 39.273384374 0.0 0.0 0.0 0.0
381 1 24.29855166 40.060984374 0.0 0.0 0.0 0.0
382 1 32.19405166 39.021184374 0.0 0.0 0.0 0.0
383 1 37.72815166 39.298284374 0.0 0.0 0.0 0.0
384 1 42.84645166 38.993284374 0.0 0.0 0.0 0.0
385 1 45.99405166 40.900684374 0.0 0.0 0.0 0.0
386 1 51.80915166 40.634584374 0.0 0.0 0.0 0.0
387 1 57.20905166 40.332184374 0.0 0.0 0.0 0.0
388 1 62.44785166 40.915984374 0.0 0.0 0.0 0.0
389 1 67.10675166 37.175284374 0.0 0.0 0.0 0.0
390 1 73.90595166 38.769684374 0.0 0.0 0.0 0.0
391 1 77.90185166 43.595384374 0.0 0.0 0.0 0.0
392 1 5.88905166002 44.418284374 0.0 0.0 0.0 0.0
393 1 13.71015166 43.559184374 0.0 0.0 0.0 0.0
394 1 17.89435166 43.220584374 0.0 0.0 0.0 0.0
395 1 23.43845166 43.642784374 0.0 0.0 0.0 0.0
396 1 29.21205166 43.016284374 0.0 0.0 0.0 0.0
397 1 34.83225166 43.470684374 0.0 0.0 0.0 0.0
398 1 40.48975166 43.570884374 0.0 0.0 0.0 0.0
399 1 48.96005166 41.526984374 0.0 0.0 0.0 0.0
400 1 47.90955166 45.500084374 0.0 0.0 0.0 0.0
401 1 53.53755166 44.633784374 0.0 0.0 0.0 0.0
402 1 61.13805166 46.555184374 0.0 0.0 0.0 0.0
403 1 65.80315166 43.711684374 0.0 0.0 0.0 0.0
404 1 70.41285166 43.479384374 0.0 0.0 0.0 0.0
405 1 74.92175166 43.563084374 0.0 0.0 0.0 0.0
406 1 77.75935166 46.574884374 0.0 0.0 0.0 0.0
407 1 3.69114166002 48.800684374 0.0 0.0 0.0 0.0
408 1 9.36459166002 47.586784374 0.0 0.0 0.0 0.0
409 1 15.96355166 45.538884374 0.0 0.0 0.0 0.0
410 1 21.61435166 48.444084374 0.0 0.0 0.0 0.0
411 1 26.79445166 47.540684374 0.0 0.0 0.0 0.0
412 1 31.87385166 47.767584374 0.0 0.0 0.0 0.0
413 1 37.41455166 47.794984374 0.0 0.0 0.0 0.0
414 1 42.70795166 48.396484374 0.0 0.0 0.0 0.0
415 1 47.27545166 49.584884374 0.0 0.0 0.0 0.0
416 1 51.45175166 50.245584374 0.0 0.0 0.0 0.0
417 1 54.70495166 52.053284374 0.0 0.0 0.0 0.0
418 1 63.23695166 48.725784374 0.0 0.0 0.0 0.0
419 1 67.95455166 48.532984374 0.0 0.0 0.0 0.0
420 1 72.46855166 48.429584374 0.0 0.0 0.0 0.0
421 1 1.71476166002 53.560184374 0.0 0.0 0.0 0.0
422 1 7.08141166002 51.922284374 0.0 0.0 0.0 0.0
423 1 14.31855166 51.269084374 0.0 0.0 0.0 0.0
424 1 19.36095166 51.787484374 0.0 0.0 0.0 0.0
425 1 24.98985166 52.717584374 0.0 0.0 0.0 0.0
426 1 30.10455166 50.240684374 0.0 0.0 0.0 0.0
427 1 35.46765166 53.071884374 0.0 0.0 0.0 0.0
428 1 40.17125166 52.240684374 0.0 0.0 0.0 0.0
429 1 42.84755166 53.671284374 0.0 0.0 0.0 0.0
430 1 49.20895166 54.583684374 0.0 0.0 0.0 0.0
431 1 57.53695166 51.011284374 0.0 0.0 0.0 0.0
432 1 60.94685166 53.958784374 0.0 0.0 0.0 0.0
433 1 65.51885166 53.547484374 0.0 0.0 0.0 0.0
434 1 70.27855166 53.199384374 0.0 0.0 0.0 0.0
435 1 75.01275166 53.327384374 0.0 0.0 0.0 0.0
436 1 78.17905166 58.661784374 0.0 0.0 0.0 0.0
437 1 4.89448166002 56.881184374 0.0 0.0 0.0 0.0
438 1 10.10705166 55.424384374 0.0 0.0 0.0 0.0
439 1 16.68555166 53.120484374 0.0 0.0 0.0 0.0
440 1 21.03735166 56.360884374 0.0 0.0 0.0 0.0
441 1 26.32385166 57.461484374 0.0 0.0 0.0 0.0
442 1 31.62265166 57.297684374 0.0 0.0 0.0 0.0
443 1 36.41615166 55.920284374 0.0 0.0 0.0 0.0
444 1 41.46375166 57.037884374 0.0 0.0 0.0 0.0
445 1 48.18585166 59.963884374 0.0 0.0 0.0 0.0
446 1 53.11175166 57.589384374 0.0 0.0 0.0 0.0
447 1 58.27765166 58.169384374 0.0 0.0 0.0 0.0
448 1 63.70305166 58.359584374 0.0 0.0 0.0 0.0
449 1 68.63085166 58.233584374 0.0 0.0 0.0 0.0
450 1 73.83005166 56.104684374 0.0 0.0 0.0 0.0
451 1 4.15146166002 61.756484374 0.0 0.0 0.0 0.0
452 1 8.97188166002 58.229984374 0.0 0.0 0.0 0.0
453 1 14.10725166 59.729184374 0.0 0.0 0.0 0.0
454 1 19.79275166 59.095384374 0.0 0.0 0.0 0.0
455 1 24.47585166 62.236184374 0.0 0.0 0.0 0.0
456 1 29.29705166 62.216284374 0.0 0.0 0.0 0.0
457 1 34.02055166 62.147984374 0.0 0.0 0.0 0.0
458 1 36.92345166 61.548084374 0.0 0.0 0.0 0.0
459 1 42.96165166 61.243484374 0.0 0.0 0.0 0.0
460 1 51.40775166 63.059784374 0.0 0.0 0.0 0.0
461 1 55.54845166 62.409484374 0.0 0.0 0.0 0.0
462 1 60.84165166 62.779884374 0.0 0.0 0.0 0.0
463 1 66.26915166 62.620684374 0.0 0.0 0.0 0.0
464 1 71.40795166 63.112084374 0.0 0.0 0.0 0.0
465 1 76.83715166 62.702084374 0.0 0.0 0.0 0.0
466 1 1.68739166002 66.217884374 0.0 0.0 0.0 0.0
467 1 8.56961166002 65.372384374 0.0 0.0 0.0 0.0
468 1 13.73795166 62.696384374 0.0 0.0 0.0 0.0
469 1 18.54985166 66.218384374 0.0 0.0 0.0 0.0
470 1 23.79455166 65.152484374 0.0 0.0 0.0 0.0
471 1 27.76285166 67.478584374 0.0 0.0 0.0 0.0
472 1 33.63635166 68.866584374 0.0 0.0 0.0 0.0
473 1 32.71035166 66.031684374 0.0 0.0 0.0 0.0
474 1 41.49365166 63.894484374 0.0 0.0 0.0 0.0
475 1 46.94595166 65.734684374 0.0 0.0 0.0 0.0
476 1 53.81125166 64.860484374 0.0 0.0 0.0 0.0
477 1 57.75285166 67.467984374 0.0 0.0 0.0 0.0
478 1 63.06165166 66.868284374 0.0 0.0 0.0 0.0
479 1 68.44725166 67.069284374 0.0 0.0 0.0 0.0
480 1 75.71555166 68.300084374 0.0 0.0 0.0 0.0
481 1 4.82200166002 69.990584374 0.0 0.0 0.0 0.0
482 1 10.81785166 67.312184374 0.0 0.0 0.0 0.0
483 1 14.68785166 69.111184374 0.0 0.0 0.0 0.0
484 1 17.21355166 70.676884374 0.0 0.0 0.0 0.0
485 1 24.69925166 74.310884374 0.0 0.0 0.0 0.0
486 1 27.43045166 73.082384374 0.0 0.0 0.0 0.0
487 1 33.83215166 72.936784374 0.0 0.0 0.0 0.0
488 1 38.77445166 71.649984374 0.0 0.0 0.0 0.0
489 1 41.59015166 70.585084374 0.0 0.0 0.0 0.0
490 1 50.96255166 72.434784374 0.0 0.0 0.0 0.0
491 1 55.72055166 71.900584374 0.0 0.0 0.0 0.0
492 1 60.86325166 72.014584374 0.0 0.0 0.0 0.0
493 1 65.62205166 71.253984374 0.0 0.0 0.0 0.0
494 1 72.95625166 71.914884374 0.0 0.0 0.0 0.0
495 1 77.65565166 70.587484374 0.0 0.0 0.0 0.0
496 1 1.56728166002 74.717984374 0.0 0.0 0.0 0.0
497 1 6.60350166002 74.702884374 0.0 0.0 0.0 0.0
498 1 9.60085166002 74.664984374 0.0 0.0 0.0 0.0
499 1 15.07045166 72.770084374 0.0 0.0 0.0 0.0
500 1 19.84475166 75.094284374 0.0 0.0 0.0 0.0
501 1 26.03455166 76.978784374 0.0 0.0 0.0 0.0
502 1 31.14695166 77.593284374 0.0 0.0 0.0 0.0
503 1 36.39065166 77.030384374 0.0 0.0 0.0 0.0
504 1 41.07205166 75.410984374 0.0 0.0 0.0 0.0
505 1 45.95835166 73.997984374 0.0 0.0 0.0 0.0
506 1 52.44845166 75.113784374 0.0 0.0 0.0 0.0
507 1 58.17375166 76.195184374 0.0 0.0 0.0 0.0
508 1 63.66745166 76.356384374 0.0 0.0 0.0 0.0
509 1 68.61945166 75.205284374 0.0 0.0 0.0 0.0
510 1 74.34285166 74.639684374 0.0 0.0 0.0 0.0
511 1 7.38967166002 77.599984374 0.0 0.0 0.0 0.0
512 1 10.38515166 77.555284374 0.0 0.0 0.0 0.0
513 1 15.93185166 77.957484374 0.0 0.0 0.0 0.0
514 1 20.37645166 80.551484374 0.0 0.0 0.0 0.0
515 1 26.13365166 79.964284374 0.0 0.0 0.0 0.0
516 1 31.44325166 80.586484374 0.0 0.0 0.0 0.0
517 1 36.55185166 80.041484374 0.0 0.0 0.0 0.0
518 1 42.06595166 78.223484374 0.0 0.0 0.0 0.0
519 1 46.93025166 78.961884374 0.0 0.0 0.0 0.0
520 1 52.45985166 78.147984374 0.0 0.0 0.0 0.0
521 1 58.12155166 79.194784374 0.0 0.0 0.0 0.0
522 1 65.60585166 78.670784374 0.0 0.0 0.0 0.0
523 1 68.59725166 78.206884374 0.0 0.0 0.0 0.0
524 1 73.60745166 77.632884374 0.0 0.0 0.0 0.0
525 1 0.435277660015 77.552384374 0.0 0.0 0.0 0.0
526 1 2.65193166002 79.578384374 0.0 0.0 0.0 0.0
527 1 5.62525166002 80.000484374 0.0 0.0 0.0 0.0
528 1 13.07345166 78.921984374 0.0 0.0 0.0 0.0
529 1 18.93675166 77.955684374 0.0 0.0 0.0 0.0
530 1 23.32645166 80.996184374 0.0 0.0 0.0 0.0
531 1 28.62175166 0.0685423739608 0.0 0.0 0.0 0.0
532 1 34.14455166 0.367300373961 0.0 0.0 0.0 0.0
533 1 39.59385166 80.057584374 0.0 0.0 0.0 0.0
534 1 44.81785166 76.840384374 0.0 0.0 0.0 0.0
535 1 49.85145166 79.698084374 0.0 0.0 0.0 0.0
536 1 55.10585166 79.667884374 0.0 0.0 0.0 0.0
537 1 60.92215166 80.411984374 0.0 0.0 0.0 0.0
538 1 63.88475166 81.134884374 0.0 0.0 0.0 0.0
539 1 71.26105166 79.634684374 0.0 0.0 0.0 0.0
540 1 76.22355166 79.169984374 0.0 0.0 0.0 0.0
541 2 2.16196166002 81.001184374 0.0 0.0 0.0 0.0
542 2 3.08247166002 1.76218437396 0.0 0.0 0.0 0.0
543 2 0.642751660015 1.71332437396 0.0 0.0 0.0 0.0
544 2 6.39853166002 81.290584374 0.0 0.0 0.0 0.0
545 2 5.62014166002 1.84123437396 0.0 0.0 0.0 0.0
546 2 7.95726166002 2.21254437396 0.0 0.0 0.0 0.0
547 2 13.06705166 80.429884374 0.0 0.0 0.0 0.0
548 2 14.46605166 1.12815437396 0.0 0.0 0.0 0.0
549 2 12.29495166 1.55006437396 0.0 0.0 0.0 0.0
550 2 19.32745166 0.0426023739608 0.0 0.0 0.0 0.0
551 2 16.94105166 1.61704437396 0.0 0.0 0.0 0.0
552 2 19.21085166 2.42643437396 0.0 0.0 0.0 0.0
553 2 24.11055166 3.26841437396 0.0 0.0 0.0 0.0
554 2 23.17905166 0.902994373961 0.0 0.0 0.0 0.0
555 2 21.57375166 2.99045437396 0.0 0.0 0.0 0.0
556 2 28.21105166 1.51348437396 0.0 0.0 0.0 0.0
557 2 29.11455166 3.77708437396 0.0 0.0 0.0 0.0
558 2 26.54735166 3.71289437396 0.0 0.0 0.0 0.0
559 2 33.66785166 4.63339437396 0.0 0.0 0.0 0.0
560 2 33.71095166 1.84438437396 0.0 0.0 0.0 0.0
561 2 31.67625166 3.81330437396 0.0 0.0 0.0 0.0
562 2 39.56785166 81.571884374 0.0 0.0 0.0 0.0
563 2 41.17165166 1.49866437396 0.0 0.0 0.0 0.0
564 2 39.21775166 2.92368437396 0.0 0.0 0.0 0.0
565 2 45.94805166 80.114484374 0.0 0.0 0.0 0.0
566 2 45.69855166 1.01744437396 0.0 0.0 0.0 0.0
567 2 43.64835166 0.358549373961 0.0 0.0 0.0 0.0
568 2 49.67185166 2.40997437396 0.0 0.0 0.0 0.0
569 2 51.61625166 3.60554437396 0.0 0.0 0.0 0.0
570 2 49.71055166 5.27595437396 0.0 0.0 0.0 0.0
571 2 54.86795166 81.170384374 0.0 0.0 0.0 0.0
572 2 56.06485166 1.90336437396 0.0 0.0 0.0 0.0
573 2 53.87175166 2.26983437396 0.0 0.0 0.0 0.0
574 2 60.50005166 0.272604373961 0.0 0.0 0.0 0.0
575 2 58.61895166 2.07950437396 0.0 0.0 0.0 0.0
576 2 60.81285166 2.97853437396 0.0 0.0 0.0 0.0
577 2 64.69225166 0.850694373961 0.0 0.0 0.0 0.0
578 2 66.98815166 2.53179437396 0.0 0.0 0.0 0.0
579 2 64.85145166 3.48041437396 0.0 0.0 0.0 0.0
580 2 70.93455166 81.136684374 0.0 0.0 0.0 0.0
581 2 71.91995166 1.81668437396 0.0 0.0 0.0 0.0
582 2 69.47545166 2.08841437396 0.0 0.0 0.0 0.0
583 2 75.93365166 80.679784374 0.0 0.0 0.0 0.0
584 2 74.39165166 1.49209437396 0.0 0.0 0.0 0.0
585 2 76.69835166 1.64401437396 0.0 0.0 0.0 0.0
586 2 1.53132166002 6.47766437396 0.0 0.0 0.0 0.0
587 2 78.31885166 4.05416437396 0.0 0.0 0.0 0.0
588 2 77.48215166 6.26862437396 0.0 0.0 0.0 0.0
589 2 4.63039166002 4.03217437396 0.0 0.0 0.0 0.0
590 2 6.45670166002 5.92753437396 0.0 0.0 0.0 0.0
591 2 3.89041166002 6.39237437396 0.0 0.0 0.0 0.0
592 2 10.28665166 3.20237437396 0.0 0.0 0.0 0.0
593 2 8.48166166002 4.91788437396 0.0 0.0 0.0 0.0
594 2 14.37825166 6.26772437396 0.0 0.0 0.0 0.0
595 2 16.19845166 8.03125437396 0.0 0.0 0.0 0.0
596 2 13.73665166 8.88744437396 0.0 0.0 0.0 0.0
597 2 19.94635166 5.01904437396 0.0 0.0 0.0 0.0
598 2 21.53315166 6.53893437396 0.0 0.0 0.0 0.0
599 2 18.84285166 7.43363437396 0.0 0.0 0.0 0.0
600 2 23.62135166 7.78256437396 0.0 0.0 0.0 0.0
601 2 25.78355166 9.09880437396 0.0 0.0 0.0 0.0
602 2 23.53265166 10.406584374 0.0 0.0 0.0 0.0
603 2 29.94795166 6.02830437396 0.0 0.0 0.0 0.0
604 2 28.40325166 8.42913437396 0.0 0.0 0.0 0.0
605 2 30.94215166 8.14762437396 0.0 0.0 0.0 0.0
606 2 35.52805166 6.28499437396 0.0 0.0 0.0 0.0
607 2 33.23705166 7.36765437396 0.0 0.0 0.0 0.0
608 2 42.97795166 5.28021437396 0.0 0.0 0.0 0.0
609 2 43.26515166 2.86944437396 0.0 0.0 0.0 0.0
610 2 45.38705166 3.50572437396 0.0 0.0 0.0 0.0
611 2 47.73765166 1.73086437396 0.0 0.0 0.0 0.0
612 2 53.17805166 5.06755437396 0.0 0.0 0.0 0.0
613 2 53.80035166 7.60658437396 0.0 0.0 0.0 0.0
614 2 51.30355166 6.81266437396 0.0 0.0 0.0 0.0
615 2 58.12555166 6.94472437396 0.0 0.0 0.0 0.0
616 2 57.67795166 4.21541437396 0.0 0.0 0.0 0.0
617 2 59.93235166 5.12877437396 0.0 0.0 0.0 0.0
618 2 62.70795166 4.70291437396 0.0 0.0 0.0 0.0
619 2 68.30255166 4.70801437396 0.0 0.0 0.0 0.0
620 2 68.74835166 7.57696437396 0.0 0.0 0.0 0.0
621 2 66.70225166 6.93208437396 0.0 0.0 0.0 0.0
622 2 72.79265166 6.82059437396 0.0 0.0 0.0 0.0
623 2 74.93485166 6.20467437396 0.0 0.0 0.0 0.0
624 2 73.39195166 4.02075437396 0.0 0.0 0.0 0.0
625 2 4.16416166002 10.996684374 0.0 0.0 0.0 0.0
626 2 3.65200166002 8.58659437396 0.0 0.0 0.0 0.0
627 2 6.26717166002 9.51499437396 0.0 0.0 0.0 0.0
628 2 8.00824166002 7.80826437396 0.0 0.0 0.0 0.0
629 2 8.93463166002 10.249584374 0.0 0.0 0.0 0.0