# input file

1350 atoms
2 atom types

0.0 77.4208739305 xlo xhi
0.0 82.0928009506 ylo yhi
-10.0 10.0 zlo zhi
0.0 0.0 0.0 xy xz yz

Masses

1 28.0855 #Si
2 15.9994 #O

Atoms

1 1 2.44285474208 1.86209047528 0.0
2 1 7.40034474208 1.99403047528 0.0
3 1 12.7566747421 1.38175047528 0.0
4 1 18.2012747421 1.63218047528 0.0
5 1 24.1979747421 2.00715047528 0.0
6 1 27.1974747421 1.52141047528 0.0
7 1 32.8742747421 1.44000047528 0.0
8 1 38.3002747421 1.83796047528 0.0
9 1 43.6348747421 1.71154047528 0.0
10 1 48.7341747421 1.02607047528 0.0
11 1 54.2740747421 1.13778047528 0.0
12 1 61.4849747421 1.60962047528 0.0
13 1 64.4825747421 1.61868047528 0.0
14 1 69.3960747421 1.08043047528 0.0
15 1 74.7243747421 1.36538047528 0.0
16 1 76.4909747421 6.06053047528 0.0
17 1 4.26930474208 6.60425047528 0.0
18 1 9.78227474208 6.03725047528 0.0
19 1 15.5686747421 5.81545047528 0.0
20 1 21.2848747421 6.78180047528 0.0
21 1 25.9138747421 6.87854047528 0.0
22 1 30.8338747421 5.47840047528 0.0
23 1 34.0207747421 8.60543047528 0.0
24 1 42.9043747421 5.67292047528 0.0
25 1 48.1565747421 5.39133047528 0.0
26 1 51.1954747421 5.40766047528 0.0
27 1 56.1000747421 6.24278047528 0.0
28 1 61.2061747421 6.45698047528 0.0
29 1 68.3935747421 5.75583047528 0.0
30 1 71.3857747421 5.52674047528 0.0
31 1 0.372974742075 12.9564004753 0.0
32 1 7.15952474208 10.5854004753 0.0
33 1 12.7891747421 9.78576047528 0.0
34 1 18.2358747421 10.1530004753 0.0
35 1 25.2400747421 11.2086004753 0.0
36 1 28.1911747421 10.6647004753 0.0
37 1 32.5117747421 11.2148004753 0.0
38 1 36.4728747421 10.3201004753 0.0
39 1 43.7864747421 10.8045004753 0.0
40 1 49.1544747421 11.6182004753 0.0
41 1 54.0218747421 10.5636004753 0.0
42 1 58.8514747421 10.9886004753 0.0
43 1 64.0661747421 11.0048004753 0.0
44 1 68.7070747421 10.8212004753 0.0
45 1 73.8492747421 10.3591004753 0.0
46 1 76.3120747421 15.5609004753 0.0
47 1 3.13252474208 14.1150004753 0.0
48 1 10.1163747421 14.0908004753 0.0
49 1 15.1661747421 14.1752004753 0.0
50 1 19.6385747421 15.5207004753 0.0
51 1 24.7322747421 18.1585004753 0.0
52 1 30.0431747421 16.0227004753 0.0
53 1 35.1792747421 15.8976004753 0.0
54 1 40.5601747421 15.4042004753 0.0
55 1 48.9479747421 14.5986004753 0.0
56 1 51.7064747421 15.8042004753 0.0
57 1 56.9444747421 15.5596004753 0.0
58 1 62.5033747421 15.3158004753 0.0
59 1 67.0885747421 15.8023004753 0.0
60 1 71.4780747421 15.2743004753 0.0
61 1 1.50330474208 19.6851004753 0.0
62 1 8.92018474208 18.6878004753 0.0
63 1 11.9551747421 18.6367004753 0.0
64 1 17.1754747421 20.9704004753 0.0
65 1 23.1257747421 20.6960004753 0.0
66 1 28.1799747421 20.9441004753 0.0
67 1 33.2832747421 20.5020004753 0.0
68 1 38.1318747421 19.9426004753 0.0
69 1 44.5597747421 19.1709004753 0.0
70 1 47.4907747421 18.6727004753 0.0
71 1 52.3504747421 18.8271004753 0.0
72 1 59.5918747421 19.5099004753 0.0
73 1 64.8265747421 20.4993004753 0.0
74 1 69.5534747421 20.6687004753 0.0
75 1 73.6904747421 20.2435004753 0.0
76 1 77.0828747421 24.3268004753 0.0
77 1 4.69167474208 26.1278004753 0.0
78 1 9.63727474208 25.1449004753 0.0
79 1 15.2923747421 23.3040004753 0.0
80 1 20.2244747421 24.3260004753 0.0
81 1 25.2564747421 25.4205004753 0.0
82 1 31.4487747421 25.2308004753 0.0
83 1 37.4883747421 24.5607004753 0.0
84 1 40.4788747421 24.6313004753 0.0
85 1 45.5520747421 24.1670004753 0.0
86 1 49.9207747421 25.7786004753 0.0
87 1 56.1244747421 23.5263004753 0.0
88 1 61.7998747421 24.3935004753 0.0
89 1 67.1567747421 25.5418004753 0.0
90 1 72.4368747421 25.6945004753 0.0
91 1 3.61068474208 28.9537004753 0.0
92 1 8.69680474208 27.9903004753 0.0
93 1 13.3810747421 27.4254004753 0.0
94 1 17.7067747421 30.7132004753 0.0
95 1 22.8384747421 29.3084004753 0.0
96 1 26.6619747421 28.0690004753 0.0
97 1 33.2895747421 29.7261004753 0.0
98 1 38.0605747421 30.2846004753 0.0
99 1 43.3030747421 28.9841004753 0.0
100 1 48.8517747421 28.5631004753 0.0
101 1 52.4325747421 27.3919004753 0.0
102 1 59.0773747421 27.9354004753 0.0
103 1 64.3641747421 29.2273004753 0.0
104 1 68.4679747421 28.3219004753 0.0
105 1 75.8646747421 29.6931004753 0.0
106 1 1.58669474208 33.8689004753 0.0
107 1 7.87241474208 32.5637004753 0.0
108 1 10.8574747421 32.4580004753 0.0
109 1 16.0598747421 33.1890004753 0.0
110 1 20.8676747421 34.2546004753 0.0
111 1 25.7796747421 33.8125004753 0.0
112 1 30.9519747421 33.4142004753 0.0
113 1 35.6170747421 34.7309004753 0.0
114 1 39.6565747421 32.8466004753 0.0
115 1 46.7040747421 32.7640004753 0.0
116 1 51.6158747421 33.1947004753 0.0
117 1 55.8415747421 32.2235004753 0.0
118 1 60.8505747421 32.7530004753 0.0
119 1 66.9579747421 33.9967004753 0.0
120 1 73.5030747421 34.2544004753 0.0
121 1 4.47526474208 38.6565004753 0.0
122 1 9.67937474208 36.9000004753 0.0
123 1 12.6791747421 37.1224004753 0.0
124 1 17.9295747421 38.3375004753 0.0
125 1 22.0988747421 36.9620004753 0.0
126 1 29.0138747421 38.0041004753 0.0
127 1 33.4325747421 38.6870004753 0.0
128 1 37.5005747421 37.0453004753 0.0
129 1 44.5018747421 37.2970004753 0.0
130 1 49.5950747421 39.3958004753 0.0
131 1 54.7919747421 37.7190004753 0.0
132 1 59.1586747421 36.9271004753 0.0
133 1 64.5831747421 39.1385004753 0.0
134 1 68.9298747421 36.3008004753 0.0
135 1 76.8255747421 38.3165004753 0.0
136 1 1.96381474208 43.0691004753 0.0
137 1 8.21025474208 43.2407004753 0.0
138 1 11.1112747421 42.4973004753 0.0
139 1 16.0322747421 41.8341004753 0.0
140 1 21.7380747421 42.3591004753 0.0
141 1 27.0319747421 42.3730004753 0.0
142 1 32.5574747421 44.6639004753 0.0
143 1 37.6219747421 42.3856004753 0.0
144 1 42.3186747421 43.4505004753 0.0
145 1 48.0680747421 41.9653004753 0.0
146 1 52.9914747421 42.7459004753 0.0
147 1 57.9532747421 42.3220004753 0.0
148 1 63.1419747421 41.8229004753 0.0
149 1 68.1899747421 41.9491004753 0.0
150 1 72.1845747421 39.9628004753 0.0
151 1 3.53072474208 48.2090004753 0.0
152 1 8.31743474208 48.6037004753 0.0
153 1 15.7630747421 46.1251004753 0.0
154 1 18.7762747421 45.9993004753 0.0
155 1 24.5837747421 46.8046004753 0.0
156 1 32.6385747421 47.6618004753 0.0
157 1 35.6464747421 47.6242004753 0.0
158 1 42.6074747421 46.4408004753 0.0
159 1 45.5697747421 46.0273004753 0.0
160 1 49.5373747421 49.2629004753 0.0
161 1 55.2405747421 47.2589004753 0.0
162 1 60.7700747421 46.6955004753 0.0
163 1 65.9147747421 46.5133004753 0.0
164 1 71.1575747421 45.8962004753 0.0
165 1 76.0228747421 46.4605004753 0.0
166 1 0.00804674207525 51.6671004753 0.0
167 1 5.33641474208 53.1579004753 0.0
168 1 12.3976747421 52.1898004753 0.0
169 1 15.2503747421 51.3006004753 0.0
170 1 20.6523747421 50.0263004753 0.0
171 1 26.2815747421 51.1793004753 0.0
172 1 31.2001747421 52.1675004753 0.0
173 1 38.8241747421 52.3920004753 0.0
174 1 41.8118747421 51.8526004753 0.0
175 1 47.4237747421 51.4899004753 0.0
176 1 52.8340747421 51.7625004753 0.0
177 1 58.4537747421 51.2467004753 0.0
178 1 64.9416747421 50.8490004753 0.0
179 1 67.9651747421 50.6174004753 0.0
180 1 74.5246747421 50.7742004753 0.0
181 1 2.35514474208 56.6677004753 0.0
182 1 7.55138474208 57.7081004753 0.0
183 1 12.8871747421 57.1201004753 0.0
184 1 19.3540747421 54.5437004753 0.0
185 1 22.3371747421 54.2422004753 0.0
186 1 27.1903747421 56.0495004753 0.0
187 1 32.7445747421 56.8623004753 0.0
188 1 37.5817747421 57.3993004753 0.0
189 1 44.1813747421 55.9531004753 0.0
190 1 49.6365747421 55.9172004753 0.0
191 1 55.3286747421 55.5347004753 0.0
192 1 60.3451747421 56.1702004753 0.0
193 1 64.5587747421 56.5917004753 0.0
194 1 69.2940747421 55.9961004753 0.0
195 1 74.3109747421 55.8713004753 0.0
196 1 76.6188747421 60.4755004753 0.0
197 1 5.15395474208 61.6074004753 0.0
198 1 10.6888747421 61.7551004753 0.0
199 1 15.7670747421 61.1634004753 0.0
200 1 23.2693747421 60.7417004753 0.0
201 1 21.6652747421 58.2137004753 0.0
202 1 29.2308747421 60.4669004753 0.0
203 1 35.7916747421 61.7981004753 0.0
204 1 39.7426747421 59.5388004753 0.0
205 1 46.8293747421 60.1977004753 0.0
206 1 52.5819747421 59.6122004753 0.0
207 1 58.1622747421 60.3874004753 0.0
208 1 61.3150747421 64.3346004753 0.0
209 1 68.4415747421 60.8826004753 0.0
210 1 71.4367747421 60.5568004753 0.0
211 1 0.851524742075 62.9845004753 0.0
212 1 7.84577474208 65.8310004753 0.0
213 1 13.2243747421 66.0363004753 0.0
214 1 17.4920747421 65.7962004753 0.0
215 1 22.3708747421 65.7288004753 0.0
216 1 26.5769747421 64.0365004753 0.0
217 1 31.4729747421 62.4818004753 0.0
218 1 38.9523747421 65.4893004753 0.0
219 1 43.4865747421 64.3137004753 0.0
220 1 50.9603747421 63.4757004753 0.0
221 1 53.9377747421 63.7163004753 0.0
222 1 58.8281747421 66.0032004753 0.0
223 1 62.9487747421 66.9011004753 0.0
224 1 69.9325747421 66.2264004753 0.0
225 1 75.7177747421 64.5416004753 0.0
226 1 0.00776674207525 69.9523004753 0.0
227 1 5.20527474208 69.8770004753 0.0
228 1 10.6264747421 70.2405004753 0.0
229 1 16.5720747421 70.8378004753 0.0
230 1 22.3823747421 71.4528004753 0.0
231 1 27.4897747421 68.6236004753 0.0
232 1 30.2733747421 67.5608004753 0.0
233 1 34.6487747421 67.1528004753 0.0
234 1 41.3220747421 69.8096004753 0.0
235 1 46.5796747421 68.9413004753 0.0
236 1 49.5381747421 68.5483004753 0.0
237 1 54.5830747421 68.7120004753 0.0
238 1 59.3290747421 68.9618004753 0.0
239 1 67.0051747421 71.1031004753 0.0
240 1 72.3858747421 70.6349004753 0.0
241 1 3.12767474208 74.4493004753 0.0
242 1 9.48127474208 73.8859004753 0.0
243 1 12.2675747421 72.7593004753 0.0
244 1 21.8683747421 74.3974004753 0.0
245 1 24.8263747421 74.7972004753 0.0
246 1 32.7885747421 74.7850004753 0.0
247 1 31.3330747421 72.1202004753 0.0
248 1 38.1509747421 74.1427004753 0.0
249 1 43.2025747421 75.2679004753 0.0
250 1 48.0051747421 74.2125004753 0.0
251 1 52.5193747421 73.1624004753 0.0
252 1 57.2476747421 75.6977004753 0.0
253 1 62.0702747421 72.9241004753 0.0
254 1 69.7782747421 75.1414004753 0.0
255 1 75.2683747421 74.8638004753 0.0
256 1 77.1422747421 3.13242047528 0.0
257 1 4.86556474208 3.63990047528 0.0
258 1 10.2167747421 3.04971047528 0.0
259 1 15.4283747421 2.81375047528 0.0
260 1 21.2209747421 1.45146047528 0.0
261 1 23.6527747421 4.93861047528 0.0
262 1 30.0491747421 2.57446047528 0.0
263 1 35.4652747421 3.02292047528 0.0
264 1 41.0432747421 3.24795047528 0.0
265 1 46.4194747421 2.93037047528 0.0
266 1 51.4832747421 2.37191047528 0.0
267 1 56.5390747421 3.24585047528 0.0
268 1 59.5336747421 3.89236047528 0.0
269 1 67.1220747421 3.03779047528 0.0
270 1 71.9872747421 2.58931047528 0.0
271 1 1.48283474208 7.85178047528 0.0
272 1 7.13909474208 7.56942047528 0.0
273 1 12.7101747421 6.79902047528 0.0
274 1 18.2920747421 7.14804047528 0.0
275 1 23.5621747421 8.73849047528 0.0
276 1 28.7985747421 7.70971047528 0.0
277 1 33.8518747421 5.59525047528 0.0
278 1 39.4519747421 10.1895004753 0.0
279 1 41.8835747421 8.47655047528 0.0
280 1 45.6479747421 7.03909047528 0.0
281 1 53.3810747421 7.56440047528 0.0
282 1 58.5974747421 7.97641047528 0.0
283 1 63.8793747421 7.99401047528 0.0
284 1 66.9070747421 8.35720047528 0.0
285 1 73.7642747421 7.35596047528 0.0
286 1 76.8766747421 10.1123004753 0.0
287 1 6.04011474208 13.3984004753 0.0
288 1 10.1044747421 11.1076004753 0.0
289 1 15.4292747421 11.1979004753 0.0
290 1 20.0571747421 12.5441004753 0.0
291 1 22.9866747421 13.1513004753 0.0
292 1 30.0846747421 12.9944004753 0.0
293 1 34.9815747421 12.9069004753 0.0
294 1 41.3300747421 12.5150004753 0.0
295 1 46.6471747421 9.90410047528 0.0
296 1 51.9571747421 12.7551004753 0.0
297 1 56.2969747421 12.5824004753 0.0
298 1 61.4724747421 12.4871004753 0.0
299 1 66.4794747421 12.8359004753 0.0
300 1 71.4230747421 12.2095004753 0.0
301 1 1.65481474208 16.7085004753 0.0
302 1 7.73666474208 15.8972004753 0.0
303 1 12.6060747421 15.7127004753 0.0
304 1 16.8629747421 16.6249004753 0.0
305 1 22.5673747421 16.1019004753 0.0
306 1 27.7353747421 17.9704004753 0.0
307 1 32.6597747421 17.5430004753 0.0
308 1 37.9884747421 16.9504004753 0.0
309 1 43.3647747421 16.4423004753 0.0
310 1 46.3009747421 15.9253004753 0.0
311 1 56.7291747421 18.5838004753 0.0
312 1 59.7839747421 16.5267004753 0.0
313 1 64.6076747421 17.4792004753 0.0
314 1 69.5165747421 17.5951004753 0.0
315 1 73.7911747421 17.2071004753 0.0
316 1 76.4566747421 21.3924004753 0.0
317 1 4.00743474208 21.2983004753 0.0
318 1 6.98647474208 21.0135004753 0.0
319 1 14.9583747421 18.9512004753 0.0
320 1 20.1755747421 21.3303004753 0.0
321 1 25.5724747421 22.4421004753 0.0
322 1 30.8676747421 22.2840004753 0.0
323 1 35.9219747421 21.9729004753 0.0
324 1 40.5870747421 21.6484004753 0.0
325 1 43.5464747421 21.9504004753 0.0
326 1 49.8442747421 20.5239004753 0.0
327 1 54.6963747421 20.7955004753 0.0
328 1 61.9520747421 21.3929004753 0.0
329 1 67.1316747421 22.4824004753 0.0
330 1 71.8523747421 22.6585004753 0.0
331 1 2.63502474208 23.9710004753 0.0
332 1 6.87654474208 24.0265004753 0.0
333 1 12.5670747421 24.5428004753 0.0
334 1 17.4373747421 25.3818004753 0.0
335 1 22.4208747421 26.3479004753 0.0
336 1 29.5996747421 27.5981004753 0.0
337 1 33.9840747421 26.8291004753 0.0
338 1 36.9108747421 27.4953004753 0.0
339 1 43.1619747421 25.9977004753 0.0
340 1 48.4169747421 23.1916004753 0.0
341 1 55.2459747421 26.4239004753 0.0
342 1 58.8307747421 24.9191004753 0.0
343 1 64.2219747421 26.2165004753 0.0
344 1 71.4863747421 28.6080004753 0.0
345 1 75.2725747421 26.7231004753 0.0
346 1 1.24808474208 30.8491004753 0.0
347 1 6.42946474208 29.9469004753 0.0
348 1 11.2609747421 29.5136004753 0.0
349 1 16.2759747421 28.1129004753 0.0
350 1 20.6280747421 31.2914004753 0.0
351 1 25.4288747421 30.8103004753 0.0
352 1 30.4172747421 30.4762004753 0.0
353 1 35.4694747421 31.7535004753 0.0
354 1 42.4546747421 31.8508004753 0.0
355 1 46.1632747421 29.8274004753 0.0
356 1 51.3649747421 30.1929004753 0.0
357 1 56.3741747421 29.2327004753 0.0
358 1 61.4265747421 29.8153004753 0.0
359 1 66.8650747421 30.9220004753 0.0
360 1 73.2163747421 31.1686004753 0.0
361 1 4.03991474208 35.6745004753 0.0
362 1 7.04237474208 35.4241004753 0.0
363 1 13.2684747421 34.2064004753 0.0
364 1 18.0993747421 35.3587004753 0.0
365 1 25.0528747421 36.7374004753 0.0
366 1 28.4866747421 35.0590004753 0.0
367 1 32.8240747421 35.7517004753 0.0
368 1 40.2132747421 35.8229004753 0.0
369 1 44.1575747421 34.3153004753 0.0
370 1 49.0053747421 34.6537004753 0.0
371 1 54.1772747421 34.7430004753 0.0
372 1 58.1829747421 34.0873004753 0.0
373 1 61.8358747421 35.5711004753 0.0
374 1 71.8948747421 36.8839004753 0.0
375 1 76.3490747421 35.3249004753 0.0
376 1 1.84768474208 40.0681004753 0.0
377 1 6.75706474208 40.6258004753 0.0
378 1 9.65477474208 39.8801004753 0.0
379 1 15.0153747421 39.0205004753 0.0
380 1 20.6604747421 39.5714004753 0.0
381 1 26.3964747421 39.4267004753 0.0
382 1 30.9333747421 40.2868004753 0.0
383 1 36.2240747421 39.7439004753 0.0
384 1 41.7244747421 38.4352004753 0.0
385 1 47.5099747421 37.2524004753 0.0
386 1 52.5771747421 39.7603004753 0.0
387 1 57.3538747421 39.3372004753 0.0
388 1 64.7733747421 36.1154004753 0.0
389 1 67.5854747421 39.0122004753 0.0
390 1 75.0771747421 40.7629004753 0.0
391 1 4.03524474208 45.2586004753 0.0
392 1 6.95711474208 45.9338004753 0.0
393 1 13.8121747421 43.8331004753 0.0
394 1 18.8042747421 43.0138004753 0.0
395 1 24.3912747421 43.8046004753 0.0
396 1 29.9630747421 43.1132004753 0.0
397 1 35.5773747421 44.6114004753 0.0
398 1 40.3848747421 41.1591004753 0.0
399 1 45.2777747421 43.0464004753 0.0
400 1 50.2615747421 44.0096004753 0.0
401 1 55.6048747421 44.2437004753 0.0
402 1 60.6924747421 43.6379004753 0.0
403 1 65.6286747421 43.5213004753 0.0
404 1 71.0566747421 42.8226004753 0.0
405 1 76.4099747421 43.4755004753 0.0
406 1 0.591584742075 48.7219004753 0.0
407 1 5.78409474208 50.1949004753 0.0
408 1 11.1940747421 49.4480004753 0.0
409 1 14.0464747421 48.5647004753 0.0
410 1 21.5612747421 47.1791004753 0.0
411 1 27.2282747421 48.3417004753 0.0
412 1 30.1230747421 49.3184004753 0.0
413 1 38.0220747421 49.4887004753 0.0
414 1 40.9763747421 48.9622004753 0.0
415 1 48.5313747421 46.4559004753 0.0
416 1 52.5652747421 48.7782004753 0.0
417 1 58.1350747421 48.2352004753 0.0
418 1 63.4239747421 48.2128004753 0.0
419 1 68.6963747421 47.6801004753 0.0
420 1 73.4135747421 47.9378004753 0.0
421 1 2.34364474208 53.6432004753 0.0
422 1 7.92273474208 54.7348004753 0.0
423 1 10.9483747421 54.8006004753 0.0
424 1 18.2105747421 51.7764004753 0.0
425 1 23.2983747421 51.4238004753 0.0
426 1 28.4073747421 53.3006004753 0.0
427 1 33.6539747421 53.9856004753 0.0
428 1 36.6580747421 54.5059004753 0.0
429 1 44.6689747421 52.9255004753 0.0
430 1 50.0499747421 52.9604004753 0.0
431 1 55.7373747421 52.5684004753 0.0
432 1 60.7791747421 53.1955004753 0.0
433 1 63.7664747421 53.6393004753 0.0
434 1 69.8043747421 53.0286004753 0.0
435 1 72.8190747421 53.2428004753 0.0
436 1 76.8734747421 57.4748004753 0.0
437 1 4.67750474208 58.6262004753 0.0
438 1 10.3748747421 58.7804004753 0.0
439 1 15.7526747421 58.1528004753 0.0
440 1 18.7139747421 57.4684004753 0.0
441 1 24.2057747421 56.5677004753 0.0
442 1 29.8090747421 57.5330004753 0.0
443 1 34.9749747421 58.8959004753 0.0
444 1 42.6292747421 58.6015004753 0.0
445 1 46.9161747421 57.1968004753 0.0
446 1 52.5436747421 56.6343004753 0.0
447 1 57.6436747421 57.4326004753 0.0
448 1 62.2344747421 58.5153004753 0.0
449 1 67.1673747421 58.1247004753 0.0
450 1 71.8472747421 57.5817004753 0.0
451 1 3.60365474208 64.1915004753 0.0
452 1 7.89371474208 62.8335004753 0.0
453 1 13.4070747421 63.0330004753 0.0
454 1 18.2260747421 62.8869004753 0.0
455 1 21.2366747421 62.9489004753 0.0
456 1 26.2664747421 61.0643004753 0.0
457 1 33.9680747421 64.1839004753 0.0
458 1 38.7311747421 62.4275004753 0.0
459 1 44.0254747421 61.3076004753 0.0
460 1 49.7901747421 60.7322004753 0.0
461 1 55.2318747421 61.0315004753 0.0
462 1 61.0375747421 61.3068004753 0.0
463 1 65.7637747421 65.8488004753 0.0
464 1 68.0321747421 63.8775004753 0.0
465 1 74.0528747421 62.0448004753 0.0
466 1 75.6026747421 67.5377004753 0.0
467 1 5.02815474208 66.8596004753 0.0
468 1 10.4898747421 67.2498004753 0.0
469 1 15.4762747421 68.0193004753 0.0
470 1 19.9581747421 67.4726004753 0.0
471 1 25.1996747421 66.6898004753 0.0
472 1 29.4884747421 64.6957004753 0.0
473 1 37.4878747421 68.1722004753 0.0
474 1 41.6755747421 66.7631004753 0.0
475 1 45.9563747421 66.0128004753 0.0
476 1 48.9186747421 65.6378004753 0.0
477 1 55.8401747421 66.0047004753 0.0
478 1 62.1733747421 69.8640004753 0.0
479 1 67.6450747421 68.1716004753 0.0
480 1 72.5888747421 67.6477004753 0.0
481 1 2.64128474208 71.4566004753 0.0
482 1 7.84209474208 71.3650004753 0.0
483 1 15.1951747421 73.5256004753 0.0
484 1 19.5566747421 70.4294004753 0.0
485 1 25.3599747421 71.8677004753 0.0
486 1 28.3517747421 71.4922004753 0.0
487 1 32.6329747421 69.3955004753 0.0
488 1 38.5555747421 71.0562004753 0.0
489 1 43.1239747421 72.2480004753 0.0
490 1 46.1007747421 71.8886004753 0.0
491 1 52.0044747421 70.2203004753 0.0
492 1 56.8633747421 70.6401004753 0.0
493 1 65.0430747421 73.3826004753 0.0
494 1 69.8082747421 72.1562004753 0.0
495 1 75.1207747421 71.8712004753 0.0
496 1 0.594154742075 76.0852004753 0.0
497 1 5.44083474208 76.4044004753 0.0
498 1 8.44309474208 76.6913004753 0.0
499 1 16.7398747421 76.1432004753 0.0
500 1 19.7640747421 76.5054004753 0.0
501 1 27.2935747421 76.4770004753 0.0
502 1 30.3087747421 76.5191004753 0.0
503 1 35.6383747421 75.8993004753 0.0
504 1 40.3577747421 76.2835004753 0.0
505 1 46.0096747421 76.4413004753 0.0
506 1 50.7183747421 75.5448004753 0.0
507 1 55.5005747421 73.2914004753 0.0
508 1 60.2389747421 75.3884004753 0.0
509 1 66.8455747421 75.7897004753 0.0
510 1 72.5811747421 76.2120004753 0.0
511 1 5.10916474208 79.3891004753 0.0
512 1 9.99107474208 79.2802004753 0.0
513 1 15.3416747421 78.8261004753 0.0
514 1 22.3053747421 78.1802004753 0.0
515 1 25.2977747421 78.7261004753 0.0
516 1 30.4234747421 79.5195004753 0.0
517 1 35.8610747421 78.9612004753 0.0
518 1 40.8756747421 79.2961004753 0.0
519 1 48.2693747421 78.4720004753 0.0
520 1 51.3238747421 78.5068004753 0.0
521 1 56.5791747421 78.6244004753 0.0
522 1 61.4834747421 80.7021004753 0.0
523 1 66.7716747421 78.7837004753 0.0
524 1 72.2738747421 79.1866004753 0.0
525 1 0.217264742075 79.0687004753 0.0
526 1 2.55298474208 80.9519004753 0.0
527 1 7.58902474208 81.0850004753 0.0
528 1 12.7794747421 80.4386004753 0.0
529 1 17.6308747421 80.7755004753 0.0
530 1 20.6118747421 80.6237004753 0.0
531 1 27.6143747421 80.6438004753 0.0
532 1 33.2636747421 80.5413004753 0.0
533 1 38.2637747421 80.8616004753 0.0
534 1 43.5582747421 80.7937004753 0.0
535 1 46.6063747421 80.9542004753 0.0
536 1 53.9352747421 80.1687004753 0.0
537 1 59.6034747421 78.3606004753 0.0
538 1 64.4773747421 80.7130004753 0.0
539 1 69.4363747421 80.1748004753 0.0
540 1 74.9818747421 80.4732004753 0.0
541 2 2.50427474208 0.358676475278 0.0
542 2 3.65649474208 2.73963047528 0.0
543 2 1.08760474208 2.51443047528 0.0
544 2 7.46089474208 0.486784475278 0.0
545 2 8.81418474208 2.50063047528 0.0
546 2 6.16130474208 2.85615047528 0.0
547 2 12.7769747421 81.9561004753 0.0
548 2 11.4870747421 2.22122047528 0.0
549 2 14.0981747421 2.09037047528 0.0
550 2 17.7896747421 0.175876475278 0.0
551 2 19.7185747421 1.80517047528 0.0
552 2 16.8453747421 2.29537047528 0.0
553 2 23.9306747421 3.48457047528 0.0
554 2 22.7128747421 1.67410047528 0.0
555 2 25.6935747421 1.75700047528 0.0
556 2 27.4119747421 0.0325544752776 0.0
557 2 28.6014747421 2.11541047528 0.0
558 2 33.1151747421 82.0433004753 0.0
559 2 31.4374747421 1.94131047528 0.0
560 2 34.1876747421 2.19682047528 0.0
561 2 39.6435747421 2.61265047528 0.0
562 2 38.2735747421 0.303094475278 0.0
563 2 36.9003747421 2.49235047528 0.0
564 2 42.3081747421 2.41185047528 0.0
565 2 44.9965747421 2.39526047528 0.0
566 2 43.5170747421 0.215742475278 0.0
567 2 47.7324747421 81.9750004753 0.0
568 2 50.1535747421 1.59812047528 0.0
569 2 47.5846747421 1.99219047528 0.0
570 2 54.1344747421 81.6928004753 0.0
571 2 55.4670747421 2.13469047528 0.0
572 2 52.8741747421 1.75007047528 0.0
573 2 60.4829747421 2.71284047528 0.0
574 2 61.2967747421 0.109105475278 0.0
575 2 62.9890747421 1.81198047528 0.0
576 2 64.6346747421 0.116777475278 0.0
577 2 65.7403747421 2.44105047528 0.0
578 2 69.3797747421 81.6768004753 0.0
579 2 70.7229747421 1.78432047528 0.0
580 2 68.2235747421 2.01261047528 0.0
581 2 73.3544747421 1.97799047528 0.0
582 2 75.9388747421 2.23715047528 0.0
583 2 74.8839747421 81.9704004753 0.0
584 2 76.8054747421 4.59231047528 0.0
585 2 75.1252747421 6.69727047528 0.0
586 2 0.321064742075 6.88722047528 0.0
587 2 4.53621474208 5.10897047528 0.0
588 2 5.69615474208 7.11449047528 0.0
589 2 2.90821474208 7.30142047528 0.0
590 2 9.98937474208 4.53986047528 0.0
591 2 11.2473747421 6.43635047528 0.0
592 2 8.45982474208 6.79745047528 0.0
593 2 15.4992747421 4.31523047528 0.0
594 2 16.9454747421 6.46312047528 0.0
595 2 14.1365747421 6.29981047528 0.0
596 2 22.3421747421 5.69580047528 0.0
597 2 22.2853747421 7.93493047528 0.0
598 2 19.7809747421 6.83395047528 0.0
599 2 24.9184747421 5.75053047528 0.0
600 2 27.3734747421 7.19751047528 0.0
601 2 24.7922747421 7.87205047528 0.0
602 2 32.3369747421 5.52281047528 0.0
603 2 30.3409747421 4.05712047528 0.0
604 2 29.8714747421 6.65157047528 0.0
605 2 34.0058747421 7.10553047528 0.0
606 2 35.3511747421 9.32564047528 0.0
607 2 33.0666747421 9.79801047528 0.0
608 2 42.2646747421 7.04038047528 0.0
609 2 41.8997747421 4.53462047528 0.0
610 2 44.3381747421 6.24797047528 0.0
611 2 46.9660747421 6.30992047528 0.0
612 2 47.2609747421 4.17290047528 0.0
613 2 49.6665747421 5.51648047528 0.0
614 2 51.4139747421 3.89579047528 0.0
615 2 52.2300747421 6.54106047528 0.0
616 2 56.2185747421 4.73657047528 0.0
617 2 57.3394747421 7.12653047528 0.0
618 2 54.7366747421 6.88791047528 0.0
619 2 60.4343747421 5.12903047528 0.0
620 2 59.9434747421 7.29752047528 0.0
621 2 62.6006747421 7.13184047528 0.0
622 2 67.6631747421 7.05489047528 0.0
623 2 67.6710747421 4.43340047528 0.0
624 2 69.8971747421 5.72125047528 0.0
625 2 72.5379747421 6.48618047528 0.0
626 2 71.7433747421 4.06800047528 0.0
627 2 77.3784747421 11.5292004753 0.0
628 2 1.82257474208 13.3744004753 0.0
629 2 76.8652747421 14.1489004753 0.0
630 2 6.51176474208 11.9571004753 0.0
631 2 8.65322474208 10.7712004753 0.0
632 2 7.06381474208 9.08263047528 0.0
633 2 12.7704747421 8.29857047528 0.0
634 2 14.1167747421 10.4789004753 0.0
635 2 11.4335747421 10.4271004753 0.0
636 2 18.2896747421 8.65875047528 0.0
637 2 19.2056747421 11.3066004753 0.0
638 2 16.8160747421 10.6486004753 0.0
639 2 24.2129747421 12.3032004753 0.0
640 2 24.2979747421 10.0385004753 0.0
641 2 26.7183747421 10.9910004753 0.0
642 2 28.6270747421 9.21476047528 0.0
643 2 29.0586747421 11.8877004753 0.0
644 2 33.6834747421 12.1579004753 0.0
645 2 31.2940747421 12.0906004753 0.0
646 2 37.9617747421 10.1722004753 0.0
647 2 35.9004747421 11.7138004753 0.0
648 2 42.9263747421 9.55963047528 0.0
649 2 45.2638747421 10.5464004753 0.0
650 2 42.6890747421 11.8497004753 0.0
651 2 48.9007747421 13.1043004753 0.0
652 2 47.9623747421 10.6717004753 0.0
653 2 50.6243747421 12.0083004753 0.0
654 2 53.6556747421 9.07794047528 0.0
655 2 55.1987747421 11.5409004753 0.0
656 2 52.9763747421 11.6535004753 0.0
657 2 58.6998747421 9.48493047528 0.0
658 2 60.1543747421 11.7569004753 0.0
659 2 57.5938747421 11.8099004753 0.0
660 2 63.8940747421 9.51299047528 0.0
661 2 65.2490747421 11.9509004753 0.0
662 2 62.7424747421 11.6945004753 0.0
663 2 67.8608747421 9.54847047528 0.0
664 2 70.0977747421 11.4480004753 0.0
665 2 67.6462747421 11.8922004753 0.0
666 2 73.6758747421 8.85134047528 0.0
667 2 75.3681747421 10.2852004753 0.0
668 2 72.6798747421 11.3315004753 0.0
669 2 0.229774742075 16.2410004753 0.0
670 2 75.0625747421 16.3845004753 0.0
671 2 4.56211474208 13.6956004753 0.0
672 2 2.57994474208 15.5265004753 0.0
673 2 10.1373747421 12.6053004753 0.0
674 2 11.3869747421 14.8594004753 0.0
675 2 8.93974474208 14.9977004753 0.0
676 2 15.3211747421 12.6948004753 0.0
677 2 16.1088747421 15.3295004753 0.0
678 2 13.8622747421 14.9151004753 0.0
679 2 19.6925747421 14.0099004753 0.0
680 2 21.0589747421 16.0280004753 0.0
681 2 18.3163747421 16.2272004753 0.0
682 2 23.6689747421 17.0984004753 0.0
683 2 26.2207747421 17.9559004753 0.0
684 2 23.9010747421 19.4093004753 0.0
685 2 30.0218747421 14.5053004753 0.0
686 2 31.3490747421 16.7908004753 0.0
687 2 28.8344747421 16.9397004753 0.0
688 2 36.5884747421 16.4193004753 0.0
689 2 35.1038747421 14.3961004753 0.0
690 2 33.9257747421 16.7185004753 0.0
691 2 40.8922747421 13.9421004753 0.0
692 2 41.9543747421 15.9750004753 0.0
693 2 39.2635747421 16.1503004753 0.0
694 2 50.2519747421 15.3557004753 0.0
695 2 47.5586747421 15.1328004753 0.0
696 2 52.1287747421 17.2845004753 0.0
697 2 52.0683747421 14.2864004753 0.0
698 2 56.4928747421 14.1084004753 0.0
699 2 56.6030747421 17.0611004753 0.0
700 2 58.4248747421 15.8890004753 0.0
701 2 62.0310747421 13.8862004753 0.0
702 2 63.5491747421 16.3944004753 0.0
703 2 61.1362747421 15.9272004753 0.0
704 2 66.7919747421 14.3150004753 0.0
705 2 68.2796747421 16.7180004753 0.0
706 2 65.8630747421 16.6606004753 0.0
707 2 70.4916747421 16.4300004753 0.0
708 2 72.6851747421 16.1896004753 0.0
709 2 71.4498747421 13.7450004753 0.0
710 2 1.65312474208 18.1996004753 0.0
711 2 0.250434742075 20.5052004753 0.0
712 2 2.81280474208 20.4027004753 0.0
713 2 7.98329474208 19.8841004753 0.0
714 2 8.21933474208 17.3356004753 0.0
715 2 10.4433747421 18.8081004753 0.0
716 2 12.2808747421 17.1668004753 0.0
717 2 13.4431747421 19.0128004753 0.0
718 2 16.0782747421 19.9494004753 0.0
719 2 18.6914747421 21.0025004753 0.0
720 2 16.2096747421 22.1274004753 0.0
721 2 24.2880747421 21.6618004753 0.0
722 2 21.6276747421 20.8974004753 0.0
723 2 28.0389747421 19.4494004753 0.0
724 2 29.5143747421 21.6353004753 0.0
725 2 26.8944747421 21.7260004753 0.0
726 2 32.9691747421 19.0240004753 0.0
727 2 34.5813747421 21.2786004753 0.0
728 2 32.0727747421 21.3939004753 0.0
729 2 38.0768747421 18.4487004753 0.0
730 2 39.4231747421 20.7159004753 0.0
731 2 36.9899747421 20.9091004753 0.0
732 2 44.0603747421 20.5565004753 0.0
733 2 43.7993747421 17.8818004753 0.0
734 2 46.0496747421 19.0990004753 0.0
735 2 47.0183747421 17.2536004753 0.0
736 2 48.6839747421 19.5602004753 0.0
737 2 53.4807747421 19.8566004753 0.0
738 2 51.1156747421 19.7204004753 0.0
739 2 59.8345747421 18.0244004753 0.0
740 2 60.7289747421 20.4986004753 0.0
741 2 58.1039747421 19.2286004753 0.0
742 2 64.7497747421 18.9803004753 0.0
743 2 65.9433747421 21.5197004753 0.0
744 2 63.3844747421 20.9430004753 0.0
745 2 69.5751747421 19.1292004753 0.0
746 2 70.6623747421 21.7042004753 0.0
747 2 68.3272747421 21.5560004753 0.0
748 2 73.6657747421 18.7207004753 0.0
749 2 72.8131747421 21.4703004753 0.0
750 2 75.0950747421 20.7841004753 0.0
751 2 1.16144474208 24.2250004753 0.0
752 2 76.6721747421 22.8781004753 0.0
753 2 76.2409747421 25.5632004753 0.0
754 2 3.59004474208 25.1115004753 0.0
755 2 5.85564474208 25.1450004753 0.0
756 2 4.11047474208 27.5196004753 0.0
757 2 8.30175474208 24.4889004753 0.0
758 2 11.0637747421 24.6673004753 0.0
759 2 9.15507474208 26.5709004753 0.0
760 2 16.3236747421 24.3929004753 0.0
761 2 13.8440747421 23.7405004753 0.0
762 2 20.2519747421 22.8366004753 0.0
763 2 21.3103747421 25.3537004753 0.0
764 2 18.8442747421 24.9002004753 0.0
765 2 25.5002747421 23.9431004753 0.0
766 2 25.9794747421 26.7312004753 0.0
767 2 23.8098747421 25.8062004753 0.0
768 2 31.1308747421 23.7670004753 0.0
769 2 32.8136747421 25.8830004753 0.0
770 2 30.4546747421 26.3679004753 0.0
771 2 37.2431747421 26.0354004753 0.0
772 2 36.6022747421 23.3303004753 0.0
773 2 38.9858747421 24.6802004753 0.0
774 2 40.5069747421 23.1390004753 0.0
775 2 41.7893747421 25.3684004753 0.0
776 2 44.5554747421 23.0374004753 0.0
777 2 46.9827747421 23.6938004753 0.0
778 2 44.4571747421 25.2254004753 0.0
779 2 49.2484747421 24.4519004753 0.0
780 2 51.2762747421 26.4279004753 0.0
781 2 49.2065747421 27.1099004753 0.0
782 2 55.3529747421 22.2001004753 0.0
783 2 55.5940747421 24.9585004753 0.0
784 2 57.5708747421 24.0753004753 0.0
785 2 61.8965747421 22.8916004753 0.0
786 2 62.9965747421 25.3225004753 0.0
787 2 60.3129747421 24.6350004753 0.0