ITEM: TIMESTEP
0
ITEM: NUMBER OF ATOMS
1350
ITEM: BOX BOUNDS xy xz yz pp pp pp
0.0 78.5808790512 0
0.0 81.971860532 0
-10.0 10.0 0
ITEM: ATOMS id type x y z vx vy vz
1 1 5.55331730247 3.511270266 0.0 0.0 0.0 0.0
2 1 8.54418730247 3.128620266 0.0 0.0 0.0 0.0
3 1 13.2126773025 3.569950266 0.0 0.0 0.0 0.0
4 1 18.2881773025 2.225370266 0.0 0.0 0.0 0.0
5 1 25.6529773025 1.167590266 0.0 0.0 0.0 0.0
6 1 30.1289773025 3.890590266 0.0 0.0 0.0 0.0
7 1 34.8480773025 0.471634266003 0.0 0.0 0.0 0.0
8 1 39.7212773025 0.297071266003 0.0 0.0 0.0 0.0
9 1 45.0173773025 1.309520266 0.0 0.0 0.0 0.0
10 1 50.6306773025 1.246140266 0.0 0.0 0.0 0.0
11 1 55.1472773025 0.755308266003 0.0 0.0 0.0 0.0
12 1 60.7595773025 81.301030266 0.0 0.0 0.0 0.0
13 1 66.4943773025 0.166947266003 0.0 0.0 0.0 0.0
14 1 71.5925773025 2.171540266 0.0 0.0 0.0 0.0
15 1 77.0708773025 3.552170266 0.0 0.0 0.0 0.0
16 1 0.155087302468 8.151690266 0.0 0.0 0.0 0.0
17 1 5.12956730247 8.897320266 0.0 0.0 0.0 0.0
18 1 10.7971773025 8.278740266 0.0 0.0 0.0 0.0
19 1 16.3052773025 7.307350266 0.0 0.0 0.0 0.0
20 1 21.1562773025 6.535340266 0.0 0.0 0.0 0.0
21 1 23.9950773025 3.681330266 0.0 0.0 0.0 0.0
22 1 33.2053773025 5.868500266 0.0 0.0 0.0 0.0
23 1 37.2960773025 5.089700266 0.0 0.0 0.0 0.0
24 1 42.1659773025 5.027130266 0.0 0.0 0.0 0.0
25 1 45.9744773025 4.173870266 0.0 0.0 0.0 0.0
26 1 50.1757773025 8.176590266 0.0 0.0 0.0 0.0
27 1 59.5784773025 3.506850266 0.0 0.0 0.0 0.0
28 1 62.5799773025 3.451460266 0.0 0.0 0.0 0.0
29 1 67.5989773025 5.238930266 0.0 0.0 0.0 0.0
30 1 73.4297773025 6.881790266 0.0 0.0 0.0 0.0
31 1 2.88620730247 13.080330266 0.0 0.0 0.0 0.0
32 1 6.75374730247 11.498130266 0.0 0.0 0.0 0.0
33 1 14.3726773025 11.785430266 0.0 0.0 0.0 0.0
34 1 19.6960773025 11.536330266 0.0 0.0 0.0 0.0
35 1 24.9341773025 9.616640266 0.0 0.0 0.0 0.0
36 1 30.1309773025 9.963830266 0.0 0.0 0.0 0.0
37 1 37.2093773025 10.134830266 0.0 0.0 0.0 0.0
38 1 40.1850773025 9.711990266 0.0 0.0 0.0 0.0
39 1 44.2899773025 12.306530266 0.0 0.0 0.0 0.0
40 1 48.9642773025 10.926230266 0.0 0.0 0.0 0.0
41 1 52.9565773025 9.255830266 0.0 0.0 0.0 0.0
42 1 59.5458773025 8.540440266 0.0 0.0 0.0 0.0
43 1 64.3701773025 8.624590266 0.0 0.0 0.0 0.0
44 1 68.4498773025 8.132990266 0.0 0.0 0.0 0.0
45 1 74.7861773025 11.512030266 0.0 0.0 0.0 0.0
46 1 76.1066773025 14.179830266 0.0 0.0 0.0 0.0
47 1 5.19442730247 17.384730266 0.0 0.0 0.0 0.0
48 1 13.0114773025 16.151530266 0.0 0.0 0.0 0.0
49 1 16.0520773025 15.887530266 0.0 0.0 0.0 0.0
50 1 23.9767773025 14.390330266 0.0 0.0 0.0 0.0
51 1 26.9951773025 14.323330266 0.0 0.0 0.0 0.0
52 1 31.6999773025 15.401230266 0.0 0.0 0.0 0.0
53 1 36.6429773025 14.692130266 0.0 0.0 0.0 0.0
54 1 42.4654773025 14.679530266 0.0 0.0 0.0 0.0
55 1 47.5344773025 16.307630266 0.0 0.0 0.0 0.0
56 1 53.6246773025 14.299630266 0.0 0.0 0.0 0.0
57 1 56.3584773025 13.111230266 0.0 0.0 0.0 0.0
58 1 61.2172773025 13.229830266 0.0 0.0 0.0 0.0
59 1 65.9419773025 13.489630266 0.0 0.0 0.0 0.0
60 1 71.0633773025 14.878230266 0.0 0.0 0.0 0.0
61 1 1.34914730247 22.093930266 0.0 0.0 0.0 0.0
62 1 5.69917730247 20.425430266 0.0 0.0 0.0 0.0
63 1 12.6492773025 21.436130266 0.0 0.0 0.0 0.0
64 1 19.7516773025 19.922930266 0.0 0.0 0.0 0.0
65 1 22.6883773025 19.335530266 0.0 0.0 0.0 0.0
66 1 28.1373773025 19.608830266 0.0 0.0 0.0 0.0
67 1 36.4069773025 19.020930266 0.0 0.0 0.0 0.0
68 1 39.4008773025 18.469330266 0.0 0.0 0.0 0.0
69 1 44.2060773025 21.386030266 0.0 0.0 0.0 0.0
70 1 51.4507773025 20.489930266 0.0 0.0 0.0 0.0
71 1 55.8824773025 18.743430266 0.0 0.0 0.0 0.0
72 1 58.7969773025 17.900630266 0.0 0.0 0.0 0.0
73 1 64.0075773025 19.830530266 0.0 0.0 0.0 0.0
74 1 68.9488773025 19.782230266 0.0 0.0 0.0 0.0
75 1 75.8795773025 18.314630266 0.0 0.0 0.0 0.0
76 1 78.0725773025 24.434730266 0.0 0.0 0.0 0.0
77 1 3.22834730247 26.140530266 0.0 0.0 0.0 0.0
78 1 9.42307730247 25.831330266 0.0 0.0 0.0 0.0
79 1 14.9756773025 26.098330266 0.0 0.0 0.0 0.0
80 1 19.8455773025 24.800730266 0.0 0.0 0.0 0.0
81 1 25.2494773025 23.766330266 0.0 0.0 0.0 0.0
82 1 29.2554773025 22.436930266 0.0 0.0 0.0 0.0
83 1 35.8927773025 24.310330266 0.0 0.0 0.0 0.0
84 1 43.2214773025 24.204530266 0.0 0.0 0.0 0.0
85 1 45.9954773025 25.317830266 0.0 0.0 0.0 0.0
86 1 52.0152773025 25.246130266 0.0 0.0 0.0 0.0
87 1 57.0218773025 26.387730266 0.0 0.0 0.0 0.0
88 1 63.5432773025 22.821630266 0.0 0.0 0.0 0.0
89 1 68.3866773025 22.705330266 0.0 0.0 0.0 0.0
90 1 71.7235773025 20.832130266 0.0 0.0 0.0 0.0
91 1 1.46424730247 32.490630266 0.0 0.0 0.0 0.0
92 1 4.80066730247 28.747130266 0.0 0.0 0.0 0.0
93 1 12.3729773025 30.052230266 0.0 0.0 0.0 0.0
94 1 16.3278773025 28.795630266 0.0 0.0 0.0 0.0
95 1 23.0991773025 31.133530266 0.0 0.0 0.0 0.0
96 1 28.0934773025 28.213330266 0.0 0.0 0.0 0.0
97 1 34.5055773025 28.640330266 0.0 0.0 0.0 0.0
98 1 37.0242773025 27.039430266 0.0 0.0 0.0 0.0
99 1 43.4119773025 29.158030266 0.0 0.0 0.0 0.0
100 1 51.4141773025 30.954630266 0.0 0.0 0.0 0.0
101 1 56.9568773025 29.394130266 0.0 0.0 0.0 0.0
102 1 59.9681773025 26.905930266 0.0 0.0 0.0 0.0
103 1 67.3003773025 29.590430266 0.0 0.0 0.0 0.0
104 1 73.0052773025 26.085630266 0.0 0.0 0.0 0.0
105 1 76.3613773025 28.975130266 0.0 0.0 0.0 0.0
106 1 1.28979730247 35.481230266 0.0 0.0 0.0 0.0
107 1 6.44047730247 34.072530266 0.0 0.0 0.0 0.0
108 1 9.45166730247 33.839730266 0.0 0.0 0.0 0.0
109 1 14.7825773025 34.499430266 0.0 0.0 0.0 0.0
110 1 21.8674773025 33.877030266 0.0 0.0 0.0 0.0
111 1 27.7767773025 32.845230266 0.0 0.0 0.0 0.0
112 1 29.8525773025 30.675230266 0.0 0.0 0.0 0.0
113 1 36.3975773025 34.378630266 0.0 0.0 0.0 0.0
114 1 42.6130773025 33.741930266 0.0 0.0 0.0 0.0
115 1 46.2379773025 30.115230266 0.0 0.0 0.0 0.0
116 1 54.6122773025 33.973830266 0.0 0.0 0.0 0.0
117 1 62.1760773025 31.932530266 0.0 0.0 0.0 0.0
118 1 65.2224773025 31.811430266 0.0 0.0 0.0 0.0
119 1 69.9514773025 33.007730266 0.0 0.0 0.0 0.0
120 1 74.8352773025 33.953230266 0.0 0.0 0.0 0.0
121 1 2.94304730247 40.522230266 0.0 0.0 0.0 0.0
122 1 7.64692730247 39.864930266 0.0 0.0 0.0 0.0
123 1 12.6654773025 38.514630266 0.0 0.0 0.0 0.0
124 1 16.8443773025 36.705930266 0.0 0.0 0.0 0.0
125 1 23.4129773025 40.663530266 0.0 0.0 0.0 0.0
126 1 28.3722773025 38.590230266 0.0 0.0 0.0 0.0
127 1 33.4205773025 38.116430266 0.0 0.0 0.0 0.0
128 1 40.3899773025 38.661430266 0.0 0.0 0.0 0.0
129 1 47.5277773025 35.219130266 0.0 0.0 0.0 0.0
130 1 52.2032773025 38.798630266 0.0 0.0 0.0 0.0
131 1 57.2694773025 38.018630266 0.0 0.0 0.0 0.0
132 1 62.1450773025 39.525430266 0.0 0.0 0.0 0.0
133 1 67.3946773025 37.122530266 0.0 0.0 0.0 0.0
134 1 71.0907773025 40.657030266 0.0 0.0 0.0 0.0
135 1 76.2938773025 38.989130266 0.0 0.0 0.0 0.0
136 1 78.1263773025 43.857830266 0.0 0.0 0.0 0.0
137 1 3.95802730247 43.341530266 0.0 0.0 0.0 0.0
138 1 10.8744773025 43.660930266 0.0 0.0 0.0 0.0
139 1 16.4602773025 42.339830266 0.0 0.0 0.0 0.0
140 1 22.0163773025 43.313130266 0.0 0.0 0.0 0.0
141 1 27.3707773025 43.735030266 0.0 0.0 0.0 0.0
142 1 32.8179773025 42.424530266 0.0 0.0 0.0 0.0
143 1 36.0562773025 39.549230266 0.0 0.0 0.0 0.0
144 1 44.7267773025 40.373130266 0.0 0.0 0.0 0.0
145 1 49.8614773025 40.686530266 0.0 0.0 0.0 0.0
146 1 54.3551773025 42.948930266 0.0 0.0 0.0 0.0
147 1 60.1193773025 41.761930266 0.0 0.0 0.0 0.0
148 1 65.0518773025 42.129830266 0.0 0.0 0.0 0.0
149 1 71.1013773025 43.687230266 0.0 0.0 0.0 0.0
150 1 75.1564773025 43.749830266 0.0 0.0 0.0 0.0
151 1 1.31848730247 48.512830266 0.0 0.0 0.0 0.0
152 1 6.84646730247 48.077730266 0.0 0.0 0.0 0.0
153 1 14.2475773025 46.915630266 0.0 0.0 0.0 0.0
154 1 19.4013773025 46.963130266 0.0 0.0 0.0 0.0
155 1 23.8166773025 47.846230266 0.0 0.0 0.0 0.0
156 1 31.8324773025 46.845330266 0.0 0.0 0.0 0.0
157 1 37.7969773025 47.351230266 0.0 0.0 0.0 0.0
158 1 41.4439773025 44.317330266 0.0 0.0 0.0 0.0
159 1 46.6542773025 45.037530266 0.0 0.0 0.0 0.0
160 1 49.6055773025 45.691430266 0.0 0.0 0.0 0.0
161 1 55.7675773025 45.609730266 0.0 0.0 0.0 0.0
162 1 60.8080773025 46.107030266 0.0 0.0 0.0 0.0
163 1 64.6749773025 47.757730266 0.0 0.0 0.0 0.0
164 1 69.1275773025 50.853730266 0.0 0.0 0.0 0.0
165 1 74.1687773025 48.776030266 0.0 0.0 0.0 0.0
166 1 77.3653773025 52.614730266 0.0 0.0 0.0 0.0
167 1 3.83507730247 52.530430266 0.0 0.0 0.0 0.0
168 1 7.91973730247 50.898230266 0.0 0.0 0.0 0.0
169 1 15.6294773025 51.195530266 0.0 0.0 0.0 0.0
170 1 20.5441773025 52.366330266 0.0 0.0 0.0 0.0
171 1 25.8471773025 52.111030266 0.0 0.0 0.0 0.0
172 1 30.0306773025 51.623130266 0.0 0.0 0.0 0.0
173 1 34.7325773025 50.551430266 0.0 0.0 0.0 0.0
174 1 39.6509773025 49.776430266 0.0 0.0 0.0 0.0
175 1 44.5282773025 49.252430266 0.0 0.0 0.0 0.0
176 1 50.0801773025 50.321430266 0.0 0.0 0.0 0.0
177 1 55.5471773025 51.388730266 0.0 0.0 0.0 0.0
178 1 60.7207773025 51.669730266 0.0 0.0 0.0 0.0
179 1 66.5436773025 52.378230266 0.0 0.0 0.0 0.0
180 1 72.2799773025 54.008330266 0.0 0.0 0.0 0.0
181 1 2.31249730247 59.416830266 0.0 0.0 0.0 0.0
182 1 8.12470730247 56.239130266 0.0 0.0 0.0 0.0
183 1 12.2781773025 54.235830266 0.0 0.0 0.0 0.0
184 1 16.6813773025 56.816730266 0.0 0.0 0.0 0.0
185 1 23.9692773025 56.533730266 0.0 0.0 0.0 0.0
186 1 29.0712773025 56.830730266 0.0 0.0 0.0 0.0
187 1 33.4959773025 55.696030266 0.0 0.0 0.0 0.0
188 1 37.9917773025 56.956830266 0.0 0.0 0.0 0.0
189 1 42.7923773025 54.320530266 0.0 0.0 0.0 0.0
190 1 47.6480773025 53.884030266 0.0 0.0 0.0 0.0
191 1 52.6454773025 56.578530266 0.0 0.0 0.0 0.0
192 1 59.0291773025 56.111230266 0.0 0.0 0.0 0.0
193 1 64.2333773025 55.613030266 0.0 0.0 0.0 0.0
194 1 70.4972773025 59.053830266 0.0 0.0 0.0 0.0
195 1 76.0154773025 57.575830266 0.0 0.0 0.0 0.0
196 1 0.358959302468 61.713830266 0.0 0.0 0.0 0.0
197 1 5.25511730247 60.210930266 0.0 0.0 0.0 0.0
198 1 11.0410773025 59.964530266 0.0 0.0 0.0 0.0
199 1 15.6892773025 59.717130266 0.0 0.0 0.0 0.0
200 1 20.7444773025 60.371030266 0.0 0.0 0.0 0.0
201 1 26.4810773025 61.233930266 0.0 0.0 0.0 0.0
202 1 31.9724773025 61.163830266 0.0 0.0 0.0 0.0
203 1 37.2426773025 59.849230266 0.0 0.0 0.0 0.0
204 1 40.8255773025 62.597030266 0.0 0.0 0.0 0.0
205 1 45.5960773025 58.937430266 0.0 0.0 0.0 0.0
206 1 51.3001773025 59.233630266 0.0 0.0 0.0 0.0
207 1 55.0231773025 58.393530266 0.0 0.0 0.0 0.0
208 1 63.0815773025 60.062330266 0.0 0.0 0.0 0.0
209 1 68.5694773025 61.392830266 0.0 0.0 0.0 0.0
210 1 73.4583773025 62.274030266 0.0 0.0 0.0 0.0
211 1 2.66652730247 66.211030266 0.0 0.0 0.0 0.0
212 1 7.73919730247 65.557530266 0.0 0.0 0.0 0.0
213 1 14.1958773025 64.830830266 0.0 0.0 0.0 0.0
214 1 17.2260773025 64.550330266 0.0 0.0 0.0 0.0
215 1 22.6624773025 64.489630266 0.0 0.0 0.0 0.0
216 1 28.2619773025 65.334930266 0.0 0.0 0.0 0.0
217 1 36.0487773025 64.619330266 0.0 0.0 0.0 0.0
218 1 39.0304773025 64.985130266 0.0 0.0 0.0 0.0
219 1 43.3539773025 64.179530266 0.0 0.0 0.0 0.0
220 1 50.6551773025 64.740630266 0.0 0.0 0.0 0.0
221 1 53.6099773025 64.055030266 0.0 0.0 0.0 0.0
222 1 58.1524773025 62.014030266 0.0 0.0 0.0 0.0
223 1 62.9064773025 67.008330266 0.0 0.0 0.0 0.0
224 1 70.5255773025 66.528730266 0.0 0.0 0.0 0.0
225 1 76.0108773025 66.216030266 0.0 0.0 0.0 0.0
226 1 2.12908730247 71.707830266 0.0 0.0 0.0 0.0
227 1 4.85960730247 70.347030266 0.0 0.0 0.0 0.0
228 1 8.64249730247 72.831330266 0.0 0.0 0.0 0.0
229 1 13.7631773025 70.658430266 0.0 0.0 0.0 0.0
230 1 21.7031773025 68.304030266 0.0 0.0 0.0 0.0
231 1 24.6791773025 68.823430266 0.0 0.0 0.0 0.0
232 1 29.0831773025 68.229430266 0.0 0.0 0.0 0.0
233 1 36.0635773025 70.232530266 0.0 0.0 0.0 0.0
234 1 42.0020773025 69.564730266 0.0 0.0 0.0 0.0
235 1 47.6075773025 69.687630266 0.0 0.0 0.0 0.0
236 1 52.1093773025 69.541330266 0.0 0.0 0.0 0.0
237 1 57.3591773025 67.580430266 0.0 0.0 0.0 0.0
238 1 61.7885773025 71.093430266 0.0 0.0 0.0 0.0
239 1 65.3462773025 68.770330266 0.0 0.0 0.0 0.0
240 1 72.2707773025 68.976930266 0.0 0.0 0.0 0.0
241 1 3.26070730247 76.823830266 0.0 0.0 0.0 0.0
242 1 8.25272730247 75.786830266 0.0 0.0 0.0 0.0
243 1 13.2152773025 77.972830266 0.0 0.0 0.0 0.0
244 1 15.4081773025 73.254530266 0.0 0.0 0.0 0.0
245 1 22.6732773025 73.468130266 0.0 0.0 0.0 0.0
246 1 27.5139773025 73.582730266 0.0 0.0 0.0 0.0
247 1 32.5824773025 73.916530266 0.0 0.0 0.0 0.0
248 1 37.5437773025 72.860830266 0.0 0.0 0.0 0.0
249 1 44.2870773025 76.152330266 0.0 0.0 0.0 0.0
250 1 49.9513773025 74.600530266 0.0 0.0 0.0 0.0
251 1 55.1116773025 72.673730266 0.0 0.0 0.0 0.0
252 1 60.7233773025 73.886430266 0.0 0.0 0.0 0.0
253 1 66.7132773025 74.019230266 0.0 0.0 0.0 0.0
254 1 71.7496773025 76.288830266 0.0 0.0 0.0 0.0
255 1 77.4972773025 76.470030266 0.0 0.0 0.0 0.0
256 1 1.01481730247 5.282280266 0.0 0.0 0.0 0.0
257 1 3.96593730247 6.071390266 0.0 0.0 0.0 0.0
258 1 10.6915773025 5.248290266 0.0 0.0 0.0 0.0
259 1 16.1204773025 4.319780266 0.0 0.0 0.0 0.0
260 1 20.9931773025 3.543550266 0.0 0.0 0.0 0.0
261 1 28.6472773025 1.269200266 0.0 0.0 0.0 0.0
262 1 32.9709773025 2.866600266 0.0 0.0 0.0 0.0
263 1 37.3425773025 2.106810266 0.0 0.0 0.0 0.0
264 1 42.1320773025 2.044380266 0.0 0.0 0.0 0.0
265 1 48.8988773025 3.652320266 0.0 0.0 0.0 0.0
266 1 53.0954773025 2.959430266 0.0 0.0 0.0 0.0
267 1 58.1668773025 0.866050266003 0.0 0.0 0.0 0.0
268 1 63.5005773025 0.596311266003 0.0 0.0 0.0 0.0
269 1 68.5731773025 2.384680266 0.0 0.0 0.0 0.0
270 1 74.0552773025 3.943570266 0.0 0.0 0.0 0.0
271 1 2.40298730247 10.129430266 0.0 0.0 0.0 0.0
272 1 9.75417730247 11.132830266 0.0 0.0 0.0 0.0
273 1 13.7418773025 8.858230266 0.0 0.0 0.0 0.0
274 1 19.0001773025 8.617000266 0.0 0.0 0.0 0.0
275 1 24.1506773025 6.696940266 0.0 0.0 0.0 0.0
276 1 30.3965773025 6.917770266 0.0 0.0 0.0 0.0
277 1 35.6458773025 7.572650266 0.0 0.0 0.0 0.0
278 1 39.7557773025 6.757230266 0.0 0.0 0.0 0.0
279 1 44.5535773025 6.821110266 0.0 0.0 0.0 0.0
280 1 51.3164773025 5.393400266 0.0 0.0 0.0 0.0
281 1 55.4899773025 7.689910266 0.0 0.0 0.0 0.0
282 1 57.9568773025 6.013780266 0.0 0.0 0.0 0.0
283 1 64.6288773025 5.638940266 0.0 0.0 0.0 0.0
284 1 71.3027773025 9.002440266 0.0 0.0 0.0 0.0
285 1 75.8019773025 8.701870266 0.0 0.0 0.0 0.0
286 1 0.455052302468 14.804030266 0.0 0.0 0.0 0.0
287 1 5.61868730247 14.342630266 0.0 0.0 0.0 0.0
288 1 11.8174773025 13.364330266 0.0 0.0 0.0 0.0
289 1 17.0901773025 13.059930266 0.0 0.0 0.0 0.0
290 1 22.7134773025 11.661530266 0.0 0.0 0.0 0.0
291 1 27.4324773025 11.320930266 0.0 0.0 0.0 0.0
292 1 32.0015773025 12.371030266 0.0 0.0 0.0 0.0
293 1 35.0140773025 12.177130266 0.0 0.0 0.0 0.0
294 1 43.1972773025 9.517020266 0.0 0.0 0.0 0.0
295 1 47.1239773025 13.306530266 0.0 0.0 0.0 0.0
296 1 51.7608773025 11.982930266 0.0 0.0 0.0 0.0
297 1 57.0869773025 10.216330266 0.0 0.0 0.0 0.0
298 1 61.9244773025 10.323430266 0.0 0.0 0.0 0.0
299 1 66.6572773025 10.550030266 0.0 0.0 0.0 0.0
300 1 71.8254773025 11.960630266 0.0 0.0 0.0 0.0
301 1 2.19773730247 17.232730266 0.0 0.0 0.0 0.0
302 1 8.71767730247 20.182530266 0.0 0.0 0.0 0.0
303 1 11.3700773025 18.710530266 0.0 0.0 0.0 0.0
304 1 18.8360773025 17.069930266 0.0 0.0 0.0 0.0
305 1 21.7966773025 16.468030266 0.0 0.0 0.0 0.0
306 1 28.9368773025 16.661830266 0.0 0.0 0.0 0.0
307 1 34.4354773025 16.729430266 0.0 0.0 0.0 0.0
308 1 39.5544773025 15.466530266 0.0 0.0 0.0 0.0
309 1 44.5402773025 16.866330266 0.0 0.0 0.0 0.0
310 1 50.2456773025 17.733830266 0.0 0.0 0.0 0.0
311 1 53.2389773025 17.251230266 0.0 0.0 0.0 0.0
312 1 58.7373773025 14.906130266 0.0 0.0 0.0 0.0
313 1 63.4483773025 15.210930266 0.0 0.0 0.0 0.0
314 1 68.1142773025 15.547630266 0.0 0.0 0.0 0.0
315 1 73.8202773025 16.119930266 0.0 0.0 0.0 0.0
316 1 0.112932302468 19.361430266 0.0 0.0 0.0 0.0
317 1 4.15853730247 23.144430266 0.0 0.0 0.0 0.0
318 1 10.0206773025 22.884130266 0.0 0.0 0.0 0.0
319 1 15.1574773025 23.093930266 0.0 0.0 0.0 0.0
320 1 18.0672773025 22.394030266 0.0 0.0 0.0 0.0
321 1 25.3453773025 20.748930266 0.0 0.0 0.0 0.0
322 1 32.1838773025 23.091030266 0.0 0.0 0.0 0.0
323 1 34.7751773025 21.550630266 0.0 0.0 0.0 0.0
324 1 42.3928773025 18.993530266 0.0 0.0 0.0 0.0
325 1 46.9949773025 22.501530266 0.0 0.0 0.0 0.0
326 1 49.9421773025 23.062930266 0.0 0.0 0.0 0.0
327 1 54.3564773025 21.321130266 0.0 0.0 0.0 0.0
328 1 61.8241773025 17.775530266 0.0 0.0 0.0 0.0
329 1 66.4944773025 18.092830266 0.0 0.0 0.0 0.0
330 1 74.6786773025 21.034530266 0.0 0.0 0.0 0.0
331 1 0.363824302468 27.285230266 0.0 0.0 0.0 0.0
332 1 7.77813730247 28.351930266 0.0 0.0 0.0 0.0
333 1 12.1532773025 27.065730266 0.0 0.0 0.0 0.0
334 1 19.0973773025 27.696730266 0.0 0.0 0.0 0.0
335 1 22.7671773025 25.455630266 0.0 0.0 0.0 0.0
336 1 27.9110773025 25.164230266 0.0 0.0 0.0 0.0
337 1 33.3208773025 25.871430266 0.0 0.0 0.0 0.0
338 1 39.4611773025 28.725230266 0.0 0.0 0.0 0.0
339 1 41.6773773025 26.732930266 0.0 0.0 0.0 0.0
340 1 50.8517773025 28.006830266 0.0 0.0 0.0 0.0
341 1 54.8636773025 24.286830266 0.0 0.0 0.0 0.0
342 1 62.7061773025 25.713130266 0.0 0.0 0.0 0.0
343 1 66.0273773025 24.477730266 0.0 0.0 0.0 0.0
344 1 71.1405773025 23.772130266 0.0 0.0 0.0 0.0
345 1 75.1340773025 23.987930266 0.0 0.0 0.0 0.0
346 1 77.0678773025 31.895230266 0.0 0.0 0.0 0.0
347 1 4.40860730247 31.768830266 0.0 0.0 0.0 0.0
348 1 9.49073730247 30.834830266 0.0 0.0 0.0 0.0
349 1 15.0002773025 31.493630266 0.0 0.0 0.0 0.0
350 1 22.0027773025 28.354430266 0.0 0.0 0.0 0.0
351 1 26.0175773025 30.413830266 0.0 0.0 0.0 0.0
352 1 32.3177773025 32.389230266 0.0 0.0 0.0 0.0
353 1 35.2059773025 31.585330266 0.0 0.0 0.0 0.0
354 1 41.1713773025 31.147430266 0.0 0.0 0.0 0.0
355 1 47.8895773025 27.637530266 0.0 0.0 0.0 0.0
356 1 54.4133773025 30.994030266 0.0 0.0 0.0 0.0
357 1 59.9263773025 29.905630266 0.0 0.0 0.0 0.0
358 1 65.2574773025 27.349030266 0.0 0.0 0.0 0.0
359 1 70.3471773025 30.021730266 0.0 0.0 0.0 0.0
360 1 73.2766773025 29.060430266 0.0 0.0 0.0 0.0
361 1 3.43658730247 37.575130266 0.0 0.0 0.0 0.0
362 1 6.38643730247 37.102530266 0.0 0.0 0.0 0.0
363 1 11.9569773025 35.567430266 0.0 0.0 0.0 0.0
364 1 19.7907773025 36.060030266 0.0 0.0 0.0 0.0
365 1 24.1706773025 35.803530266 0.0 0.0 0.0 0.0
366 1 27.1836773025 35.806130266 0.0 0.0 0.0 0.0
367 1 33.4890773025 35.132330266 0.0 0.0 0.0 0.0
368 1 42.6704773025 36.717930266 0.0 0.0 0.0 0.0
369 1 45.5190773025 33.008830266 0.0 0.0 0.0 0.0
370 1 50.1160773025 33.685830266 0.0 0.0 0.0 0.0
371 1 57.3984773025 35.018230266 0.0 0.0 0.0 0.0
372 1 60.3140773025 34.310330266 0.0 0.0 0.0 0.0
373 1 67.1521773025 34.120930266 0.0 0.0 0.0 0.0
374 1 72.0453773025 35.168630266 0.0 0.0 0.0 0.0
375 1 76.9351773025 36.081130266 0.0 0.0 0.0 0.0
376 1 78.5765773025 40.907230266 0.0 0.0 0.0 0.0
377 1 6.89339730247 42.798730266 0.0 0.0 0.0 0.0
378 1 10.5426773025 40.653730266 0.0 0.0 0.0 0.0
379 1 15.5518773025 39.436930266 0.0 0.0 0.0 0.0
380 1 22.1044773025 37.970730266 0.0 0.0 0.0 0.0
381 1 26.4168773025 40.877030266 0.0 0.0 0.0 0.0
382 1 31.0729773025 39.947730266 0.0 0.0 0.0 0.0
383 1 37.8049773025 37.088430266 0.0 0.0 0.0 0.0
384 1 45.5663773025 37.494730266 0.0 0.0 0.0 0.0
385 1 52.2393773025 35.797630266 0.0 0.0 0.0 0.0
386 1 54.9754773025 39.994330266 0.0 0.0 0.0 0.0
387 1 60.1833773025 37.300830266 0.0 0.0 0.0 0.0
388 1 65.1391773025 39.140130266 0.0 0.0 0.0 0.0
389 1 70.3638773025 37.711630266 0.0 0.0 0.0 0.0
390 1 74.0601773025 40.957130266 0.0 0.0 0.0 0.0
391 1 1.97366730247 45.588630266 0.0 0.0 0.0 0.0
392 1 8.39048730247 45.418730266 0.0 0.0 0.0 0.0
393 1 13.8838773025 43.938230266 0.0 0.0 0.0 0.0
394 1 19.0582773025 43.951130266 0.0 0.0 0.0 0.0
395 1 24.5728773025 44.929230266 0.0 0.0 0.0 0.0
396 1 30.3807773025 44.215830266 0.0 0.0 0.0 0.0
397 1 35.8884773025 42.569130266 0.0 0.0 0.0 0.0
398 1 41.8616773025 41.309830266 0.0 0.0 0.0 0.0
399 1 47.1883773025 42.069630266 0.0 0.0 0.0 0.0
400 1 51.3724773025 43.265630266 0.0 0.0 0.0 0.0
401 1 58.4515773025 44.261230266 0.0 0.0 0.0 0.0
402 1 62.4497773025 43.616430266 0.0 0.0 0.0 0.0
403 1 65.8524773025 44.993330266 0.0 0.0 0.0 0.0
404 1 68.7715773025 45.544830266 0.0 0.0 0.0 0.0
405 1 73.1333773025 45.933430266 0.0 0.0 0.0 0.0
406 1 77.0807773025 49.618830266 0.0 0.0 0.0 0.0
407 1 4.16078730247 49.518730266 0.0 0.0 0.0 0.0
408 1 13.0546773025 49.648430266 0.0 0.0 0.0 0.0
409 1 16.8148773025 48.456430266 0.0 0.0 0.0 0.0
410 1 21.2105773025 49.383930266 0.0 0.0 0.0 0.0
411 1 26.4970773025 49.182330266 0.0 0.0 0.0 0.0
412 1 29.4551773025 48.690330266 0.0 0.0 0.0 0.0
413 1 34.7708773025 47.564930266 0.0 0.0 0.0 0.0
414 1 38.3800773025 44.388230266 0.0 0.0 0.0 0.0
415 1 43.8624773025 46.252330266 0.0 0.0 0.0 0.0
416 1 51.7287773025 47.828530266 0.0 0.0 0.0 0.0
417 1 54.7023773025 48.447730266 0.0 0.0 0.0 0.0
418 1 61.8833773025 48.894230266 0.0 0.0 0.0 0.0
419 1 67.6243773025 48.290130266 0.0 0.0 0.0 0.0
420 1 72.1261773025 51.004430266 0.0 0.0 0.0 0.0
421 1 1.32884730247 54.208230266 0.0 0.0 0.0 0.0
422 1 6.62562730247 53.619030266 0.0 0.0 0.0 0.0
423 1 10.8177773025 51.618130266 0.0 0.0 0.0 0.0
424 1 19.1841773025 55.093030266 0.0 0.0 0.0 0.0
425 1 23.2735773025 53.617030266 0.0 0.0 0.0 0.0
426 1 28.1871773025 53.967130266 0.0 0.0 0.0 0.0
427 1 32.7584773025 52.800530266 0.0 0.0 0.0 0.0
428 1 37.4431773025 51.800430266 0.0 0.0 0.0 0.0
429 1 42.2874773025 51.296330266 0.0 0.0 0.0 0.0
430 1 47.1060773025 50.898430266 0.0 0.0 0.0 0.0
431 1 52.5710773025 52.030030266 0.0 0.0 0.0 0.0
432 1 58.0766773025 53.174030266 0.0 0.0 0.0 0.0
433 1 63.5580773025 52.697430266 0.0 0.0 0.0 0.0
434 1 67.1947773025 55.300530266 0.0 0.0 0.0 0.0
435 1 75.1958773025 54.691330266 0.0 0.0 0.0 0.0
436 1 0.419663302468 57.085630266 0.0 0.0 0.0 0.0
437 1 8.09601730247 59.238030266 0.0 0.0 0.0 0.0
438 1 11.0383773025 56.951830266 0.0 0.0 0.0 0.0
439 1 15.2642773025 54.169930266 0.0 0.0 0.0 0.0
440 1 21.1091773025 57.397530266 0.0 0.0 0.0 0.0
441 1 26.4365773025 58.241430266 0.0 0.0 0.0 0.0
442 1 31.7667773025 58.155730266 0.0 0.0 0.0 0.0
443 1 36.2638773025 54.549730266 0.0 0.0 0.0 0.0
444 1 40.9804773025 56.753630266 0.0 0.0 0.0 0.0
445 1 45.3817773025 55.897530266 0.0 0.0 0.0 0.0
446 1 50.6513773025 54.338530266 0.0 0.0 0.0 0.0
447 1 57.9526773025 58.960430266 0.0 0.0 0.0 0.0
448 1 61.7964773025 57.334130266 0.0 0.0 0.0 0.0
449 1 70.0880773025 56.079430266 0.0 0.0 0.0 0.0
450 1 73.5089773025 59.278030266 0.0 0.0 0.0 0.0
451 1 2.91653730247 63.269030266 0.0 0.0 0.0 0.0
452 1 5.91737730247 63.140130266 0.0 0.0 0.0 0.0
453 1 13.4669773025 61.819530266 0.0 0.0 0.0 0.0
454 1 18.0085773025 61.635730266 0.0 0.0 0.0 0.0
455 1 23.4838773025 61.620130266 0.0 0.0 0.0 0.0
456 1 29.2383773025 62.488730266 0.0 0.0 0.0 0.0
457 1 34.9332773025 61.814330266 0.0 0.0 0.0 0.0
458 1 40.2569773025 59.674630266 0.0 0.0 0.0 0.0
459 1 45.3984773025 61.976430266 0.0 0.0 0.0 0.0
460 1 48.4178773025 59.903030266 0.0 0.0 0.0 0.0
461 1 53.6492773025 61.057030266 0.0 0.0 0.0 0.0
462 1 61.1408773025 62.345330266 0.0 0.0 0.0 0.0
463 1 65.5557773025 61.794330266 0.0 0.0 0.0 0.0
464 1 70.7106773025 63.520730266 0.0 0.0 0.0 0.0
465 1 76.3087773025 63.221330266 0.0 0.0 0.0 0.0
466 1 0.0587633024679 67.596930266 0.0 0.0 0.0 0.0
467 1 5.37456730247 67.404430266 0.0 0.0 0.0 0.0
468 1 9.88927730247 67.679430266 0.0 0.0 0.0 0.0
469 1 12.9452773025 67.671330266 0.0 0.0 0.0 0.0
470 1 19.9726773025 65.836530266 0.0 0.0 0.0 0.0
471 1 25.3180773025 65.897230266 0.0 0.0 0.0 0.0
472 1 32.0824773025 68.234430266 0.0 0.0 0.0 0.0
473 1 34.9721773025 67.425130266 0.0 0.0 0.0 0.0
474 1 41.5659773025 66.593930266 0.0 0.0 0.0 0.0
475 1 48.2672773025 62.887130266 0.0 0.0 0.0 0.0
476 1 49.7988773025 67.622330266 0.0 0.0 0.0 0.0
477 1 56.5784773025 64.636030266 0.0 0.0 0.0 0.0
478 1 63.5840773025 64.079930266 0.0 0.0 0.0 0.0
479 1 68.3297773025 68.565930266 0.0 0.0 0.0 0.0
480 1 75.2557773025 69.130930266 0.0 0.0 0.0 0.0
481 1 1.27116730247 74.589730266 0.0 0.0 0.0 0.0
482 1 7.86491730247 69.960530266 0.0 0.0 0.0 0.0
483 1 11.6238773025 72.764630266 0.0 0.0 0.0 0.0
484 1 18.3642773025 72.850830266 0.0 0.0 0.0 0.0
485 1 20.8051773025 71.139830266 0.0 0.0 0.0 0.0
486 1 27.1508773025 70.563330266 0.0 0.0 0.0 0.0
487 1 33.1731773025 71.003630266 0.0 0.0 0.0 0.0
488 1 40.4881773025 72.168130266 0.0 0.0 0.0 0.0
489 1 44.7699773025 70.729330266 0.0 0.0 0.0 0.0
490 1 49.9201773025 71.600530266 0.0 0.0 0.0 0.0
491 1 55.1266773025 69.651830266 0.0 0.0 0.0 0.0
492 1 60.2691773025 68.476930266 0.0 0.0 0.0 0.0
493 1 64.7460773025 71.706630266 0.0 0.0 0.0 0.0
494 1 70.0779773025 71.011230266 0.0 0.0 0.0 0.0
495 1 77.9446773025 70.488430266 0.0 0.0 0.0 0.0
496 1 0.934067302468 78.699530266 0.0 0.0 0.0 0.0
497 1 6.07761730247 77.846130266 0.0 0.0 0.0 0.0
498 1 11.2442773025 75.732630266 0.0 0.0 0.0 0.0
499 1 15.7370773025 76.317430266 0.0 0.0 0.0 0.0
500 1 20.2277773025 75.184030266 0.0 0.0 0.0 0.0
501 1 25.0361773025 75.298330266 0.0 0.0 0.0 0.0
502 1 29.9565773025 75.358030266 0.0 0.0 0.0 0.0
503 1 35.3831773025 75.001530266 0.0 0.0 0.0 0.0
504 1 43.2590773025 73.332130266 0.0 0.0 0.0 0.0
505 1 47.3214773025 76.111730266 0.0 0.0 0.0 0.0
506 1 52.9709773025 74.817630266 0.0 0.0 0.0 0.0
507 1 57.7357773025 74.140930266 0.0 0.0 0.0 0.0
508 1 65.4542773025 76.757230266 0.0 0.0 0.0 0.0
509 1 69.7437773025 74.004630266 0.0 0.0 0.0 0.0
510 1 74.6085773025 77.321530266 0.0 0.0 0.0 0.0
511 1 6.54066730247 80.814430266 0.0 0.0 0.0 0.0
512 1 11.8506773025 80.659930266 0.0 0.0 0.0 0.0
513 1 17.7406773025 78.626130266 0.0 0.0 0.0 0.0
514 1 20.7218773025 78.130730266 0.0 0.0 0.0 0.0
515 1 25.9123773025 80.146630266 0.0 0.0 0.0 0.0
516 1 31.1301773025 78.137430266 0.0 0.0 0.0 0.0
517 1 36.3883773025 79.806030266 0.0 0.0 0.0 0.0
518 1 42.4021773025 78.534430266 0.0 0.0 0.0 0.0
519 1 47.6757773025 79.085430266 0.0 0.0 0.0 0.0
520 1 54.5104773025 77.408430266 0.0 0.0 0.0 0.0
521 1 57.4940773025 77.125830266 0.0 0.0 0.0 0.0
522 1 62.4650773025 76.343330266 0.0 0.0 0.0 0.0
523 1 70.2239773025 78.888630266 0.0 0.0 0.0 0.0
524 1 75.0411773025 80.320630266 0.0 0.0 0.0 0.0
525 1 1.44428730247 81.656930266 0.0 0.0 0.0 0.0
526 1 4.25005730247 0.794229266003 0.0 0.0 0.0 0.0
527 1 9.23057730247 0.186545266003 0.0 0.0 0.0 0.0
528 1 14.0801773025 0.684474266003 0.0 0.0 0.0 0.0
529 1 16.8837773025 81.534430266 0.0 0.0 0.0 0.0
530 1 23.7528773025 78.038930266 0.0 0.0 0.0 0.0
531 1 28.9354773025 80.237330266 0.0 0.0 0.0 0.0
532 1 34.1626773025 77.768930266 0.0 0.0 0.0 0.0
533 1 39.4222773025 79.294230266 0.0 0.0 0.0 0.0
534 1 44.8986773025 80.273430266 0.0 0.0 0.0 0.0
535 1 50.4554773025 80.240930266 0.0 0.0 0.0 0.0
536 1 53.4630773025 80.215330266 0.0 0.0 0.0 0.0
537 1 60.2364773025 78.353530266 0.0 0.0 0.0 0.0
538 1 67.2251773025 79.208930266 0.0 0.0 0.0 0.0
539 1 72.1662773025 81.193530266 0.0 0.0 0.0 0.0
540 1 77.1454773025 0.535926266003 0.0 0.0 0.0 0.0
541 2 4.81045730247 4.814210266 0.0 0.0 0.0 0.0
542 2 4.81642730247 2.189990266 0.0 0.0 0.0 0.0
543 2 7.05705730247 3.385670266 0.0 0.0 0.0 0.0
544 2 8.96776730247 1.676220266 0.0 0.0 0.0 0.0
545 2 9.56174730247 4.242880266 0.0 0.0 0.0 0.0
546 2 13.5613773025 2.095790266 0.0 0.0 0.0 0.0
547 2 14.6501773025 4.019530266 0.0 0.0 0.0 0.0
548 2 11.9748773025 4.428400266 0.0 0.0 0.0 0.0
549 2 17.7263773025 0.828030266003 0.0 0.0 0.0 0.0
550 2 19.6981773025 2.772540266 0.0 0.0 0.0 0.0
551 2 17.2095773025 3.286120266 0.0 0.0 0.0 0.0
552 2 24.8163773025 2.417260266 0.0 0.0 0.0 0.0
553 2 25.5793773025 81.627630266 0.0 0.0 0.0 0.0
554 2 27.1453773025 1.345170266 0.0 0.0 0.0 0.0
555 2 29.3186773025 2.613020266 0.0 0.0 0.0 0.0
556 2 31.5090773025 3.256100266 0.0 0.0 0.0 0.0
557 2 29.9958773025 5.415110266 0.0 0.0 0.0 0.0
558 2 35.5522773025 81.096330266 0.0 0.0 0.0 0.0
559 2 36.0708773025 1.343200266 0.0 0.0 0.0 0.0
560 2 33.7725773025 1.573910266 0.0 0.0 0.0 0.0
561 2 39.6302773025 80.787630266 0.0 0.0 0.0 0.0
562 2 40.9575773025 1.133840266 0.0 0.0 0.0 0.0
563 2 38.5361773025 1.209690266 0.0 0.0 0.0 0.0
564 2 45.0502773025 81.777430266 0.0 0.0 0.0 0.0
565 2 43.5452773025 1.602620266 0.0 0.0 0.0 0.0
566 2 45.5417773025 2.722570266 0.0 0.0 0.0 0.0
567 2 50.4398773025 81.746630266 0.0 0.0 0.0 0.0
568 2 51.9175773025 2.015260266 0.0 0.0 0.0 0.0
569 2 49.5833773025 2.318640266 0.0 0.0 0.0 0.0
570 2 54.3396773025 81.444330266 0.0 0.0 0.0 0.0
571 2 56.6609773025 0.768321266003 0.0 0.0 0.0 0.0
572 2 54.2658773025 1.993440266 0.0 0.0 0.0 0.0
573 2 60.5232773025 79.819830266 0.0 0.0 0.0 0.0
574 2 62.1665773025 81.847130266 0.0 0.0 0.0 0.0
575 2 59.4220773025 0.0298502660026 0.0 0.0 0.0 0.0
576 2 66.8443773025 80.668130266 0.0 0.0 0.0 0.0
577 2 64.9879773025 0.352826266003 0.0 0.0 0.0 0.0
578 2 67.5412773025 1.267560266 0.0 0.0 0.0 0.0
579 2 71.8767773025 0.692213266003 0.0 0.0 0.0 0.0
580 2 72.8223773025 3.056410266 0.0 0.0 0.0 0.0
581 2 70.0844773025 2.316500266 0.0 0.0 0.0 0.0
582 2 78.3705773025 4.358970266 0.0 0.0 0.0 0.0
583 2 77.0950773025 2.039260266 0.0 0.0 0.0 0.0
584 2 75.5622773025 3.789710266 0.0 0.0 0.0 0.0
585 2 0.530552302468 6.709810266 0.0 0.0 0.0 0.0
586 2 1.22743730247 9.199850266 0.0 0.0 0.0 0.0
587 2 77.2693773025 8.437900266 0.0 0.0 0.0 0.0
588 2 4.68245730247 7.422350266 0.0 0.0 0.0 0.0
589 2 6.02838730247 10.140630266 0.0 0.0 0.0 0.0
590 2 3.75479730247 9.500870266 0.0 0.0 0.0 0.0
591 2 10.6194773025 6.763850266 0.0 0.0 0.0 0.0
592 2 12.2896773025 8.509200266 0.0 0.0 0.0 0.0
593 2 10.1863773025 9.667700266 0.0 0.0 0.0 0.0
594 2 16.2784773025 5.811570266 0.0 0.0 0.0 0.0
595 2 17.6307773025 8.006040266 0.0 0.0 0.0 0.0
596 2 14.9976773025 8.039570266 0.0 0.0 0.0 0.0
597 2 20.9156773025 5.051150266 0.0 0.0 0.0 0.0
598 2 22.6417773025 6.746290266 0.0 0.0 0.0 0.0
599 2 20.0984773025 7.591110266 0.0 0.0 0.0 0.0
600 2 22.4992773025 3.424410266 0.0 0.0 0.0 0.0
601 2 24.3071773025 5.175570266 0.0 0.0 0.0 0.0
602 2 33.3051773025 4.360280266 0.0 0.0 0.0 0.0
603 2 34.3280773025 6.857030266 0.0 0.0 0.0 0.0
604 2 31.8445773025 6.502480266 0.0 0.0 0.0 0.0
605 2 37.2990773025 3.600880266 0.0 0.0 0.0 0.0
606 2 38.5625773025 5.879380266 0.0 0.0 0.0 0.0
607 2 36.4128773025 6.283510266 0.0 0.0 0.0 0.0
608 2 42.1053773025 3.540790266 0.0 0.0 0.0 0.0
609 2 43.3524773025 5.918650266 0.0 0.0 0.0 0.0
610 2 40.9532773025 5.876820266 0.0 0.0 0.0 0.0
611 2 47.4588773025 3.988170266 0.0 0.0 0.0 0.0
612 2 45.4413773025 5.585880266 0.0 0.0 0.0 0.0