ITEM: TIMESTEP
0
ITEM: NUMBER OF ATOMS
1350
ITEM: BOX BOUNDS xy xz yz pp pp pp
0.0 78.0888750604 0
0.0 82.1495770706 0
-10.0 10.0 0
ITEM: ATOMS id type x y z vx vy vz
1 1 2.53281530703 1.29198853529 0.0 0.0 0.0 0.0
2 1 5.51867530703 0.909768535293 0.0 0.0 0.0 0.0
3 1 10.578075307 82.1342885353 0.0 0.0 0.0 0.0
4 1 15.645975307 0.466497535293 0.0 0.0 0.0 0.0
5 1 20.839775307 0.852543535293 0.0 0.0 0.0 0.0
6 1 26.419175307 0.790243535293 0.0 0.0 0.0 0.0
7 1 33.410975307 81.6878885353 0.0 0.0 0.0 0.0
8 1 40.290375307 0.312324535293 0.0 0.0 0.0 0.0
9 1 42.990475307 1.69956853529 0.0 0.0 0.0 0.0
10 1 51.465075307 3.34950853529 0.0 0.0 0.0 0.0
11 1 54.465175307 2.94378853529 0.0 0.0 0.0 0.0
12 1 60.138175307 2.81327853529 0.0 0.0 0.0 0.0
13 1 64.784075307 4.45095853529 0.0 0.0 0.0 0.0
14 1 70.050875307 1.83179853529 0.0 0.0 0.0 0.0
15 1 74.918875307 2.10733853529 0.0 0.0 0.0 0.0
16 1 77.276875307 7.26444853529 0.0 0.0 0.0 0.0
17 1 4.09005530703 6.17374853529 0.0 0.0 0.0 0.0
18 1 9.38172530703 4.86390853529 0.0 0.0 0.0 0.0
19 1 14.973475307 6.50813853529 0.0 0.0 0.0 0.0
20 1 17.663675307 5.13558853529 0.0 0.0 0.0 0.0
21 1 22.064275307 3.60709853529 0.0 0.0 0.0 0.0
22 1 28.907075307 2.56181853529 0.0 0.0 0.0 0.0
23 1 34.124075307 4.03621853529 0.0 0.0 0.0 0.0
24 1 39.116675307 5.54529853529 0.0 0.0 0.0 0.0
25 1 43.979175307 4.59116853529 0.0 0.0 0.0 0.0
26 1 50.890475307 8.20429853529 0.0 0.0 0.0 0.0
27 1 57.530075307 7.11725853529 0.0 0.0 0.0 0.0
28 1 63.256175307 7.04620853529 0.0 0.0 0.0 0.0
29 1 68.227275307 6.68801853529 0.0 0.0 0.0 0.0
30 1 72.476975307 9.19905853529 0.0 0.0 0.0 0.0
31 1 3.27491530703 11.0227885353 0.0 0.0 0.0 0.0
32 1 7.67942530703 12.0356885353 0.0 0.0 0.0 0.0
33 1 13.566875307 11.4210885353 0.0 0.0 0.0 0.0
34 1 17.398575307 12.0022885353 0.0 0.0 0.0 0.0
35 1 21.536775307 9.01059853529 0.0 0.0 0.0 0.0
36 1 26.875675307 8.98396853529 0.0 0.0 0.0 0.0
37 1 31.191675307 8.18026853529 0.0 0.0 0.0 0.0
38 1 36.268975307 9.21829853529 0.0 0.0 0.0 0.0
39 1 41.739075307 9.77481853529 0.0 0.0 0.0 0.0
40 1 49.142775307 11.6105885353 0.0 0.0 0.0 0.0
41 1 53.115175307 10.2440885353 0.0 0.0 0.0 0.0
42 1 59.851875307 11.0096885353 0.0 0.0 0.0 0.0
43 1 65.208875307 11.4830885353 0.0 0.0 0.0 0.0
44 1 71.449875307 11.9940885353 0.0 0.0 0.0 0.0
45 1 76.811675307 12.2682885353 0.0 0.0 0.0 0.0
46 1 0.790865307029 16.3799885353 0.0 0.0 0.0 0.0
47 1 8.06169530703 14.9924885353 0.0 0.0 0.0 0.0
48 1 11.027875307 14.7258885353 0.0 0.0 0.0 0.0
49 1 17.828075307 17.8757885353 0.0 0.0 0.0 0.0
50 1 22.087275307 14.2562885353 0.0 0.0 0.0 0.0
51 1 26.702375307 15.6693885353 0.0 0.0 0.0 0.0
52 1 30.606575307 13.3833885353 0.0 0.0 0.0 0.0
53 1 35.255775307 15.7944885353 0.0 0.0 0.0 0.0
54 1 39.706475307 13.5756885353 0.0 0.0 0.0 0.0
55 1 44.652875307 14.8477885353 0.0 0.0 0.0 0.0
56 1 52.040275307 16.0093885353 0.0 0.0 0.0 0.0
57 1 57.053275307 15.6644885353 0.0 0.0 0.0 0.0
58 1 61.972075307 15.5065885353 0.0 0.0 0.0 0.0
59 1 66.426575307 14.2164885353 0.0 0.0 0.0 0.0
60 1 73.518275307 16.3804885353 0.0 0.0 0.0 0.0
61 1 1.86444530703 19.1792885353 0.0 0.0 0.0 0.0
62 1 9.18216530703 20.1583885353 0.0 0.0 0.0 0.0
63 1 17.414575307 20.8562885353 0.0 0.0 0.0 0.0
64 1 20.572275307 19.0675885353 0.0 0.0 0.0 0.0
65 1 25.547575307 18.4382885353 0.0 0.0 0.0 0.0
66 1 29.972175307 19.2327885353 0.0 0.0 0.0 0.0
67 1 34.671075307 18.7571885353 0.0 0.0 0.0 0.0
68 1 39.616075307 18.8934885353 0.0 0.0 0.0 0.0
69 1 46.153675307 17.4569885353 0.0 0.0 0.0 0.0
70 1 47.594175307 21.4713885353 0.0 0.0 0.0 0.0
71 1 55.159275307 20.5917885353 0.0 0.0 0.0 0.0
72 1 61.355375307 19.8175885353 0.0 0.0 0.0 0.0
73 1 67.067675307 21.0214885353 0.0 0.0 0.0 0.0
74 1 69.814575307 19.7978885353 0.0 0.0 0.0 0.0
75 1 75.428575307 20.6056885353 0.0 0.0 0.0 0.0
76 1 0.710385307029 24.5841885353 0.0 0.0 0.0 0.0
77 1 5.61844530703 24.6437885353 0.0 0.0 0.0 0.0
78 1 10.806375307 23.9663885353 0.0 0.0 0.0 0.0
79 1 17.437275307 27.4682885353 0.0 0.0 0.0 0.0
80 1 22.115975307 24.3795885353 0.0 0.0 0.0 0.0
81 1 27.402775307 23.8233885353 0.0 0.0 0.0 0.0
82 1 32.836275307 23.8678885353 0.0 0.0 0.0 0.0
83 1 37.389175307 23.5172885353 0.0 0.0 0.0 0.0
84 1 41.396575307 26.2942885353 0.0 0.0 0.0 0.0
85 1 46.868775307 24.3630885353 0.0 0.0 0.0 0.0
86 1 50.440475307 22.4438885353 0.0 0.0 0.0 0.0
87 1 57.430375307 22.5939885353 0.0 0.0 0.0 0.0
88 1 64.018875307 26.9555885353 0.0 0.0 0.0 0.0
89 1 66.959875307 26.3774885353 0.0 0.0 0.0 0.0
90 1 73.336575307 26.2080885353 0.0 0.0 0.0 0.0
91 1 3.77256530703 29.2710885353 0.0 0.0 0.0 0.0
92 1 10.272575307 28.0215885353 0.0 0.0 0.0 0.0
93 1 12.682575307 26.2951885353 0.0 0.0 0.0 0.0
94 1 20.799875307 29.7700885353 0.0 0.0 0.0 0.0
95 1 25.584675307 28.5126885353 0.0 0.0 0.0 0.0
96 1 30.390475307 28.1630885353 0.0 0.0 0.0 0.0
97 1 35.591775307 28.7031885353 0.0 0.0 0.0 0.0
98 1 41.960175307 29.2428885353 0.0 0.0 0.0 0.0
99 1 44.929975307 28.8722885353 0.0 0.0 0.0 0.0
100 1 50.424775307 28.2336885353 0.0 0.0 0.0 0.0
101 1 54.093375307 26.0253885353 0.0 0.0 0.0 0.0
102 1 59.293875307 30.7455885353 0.0 0.0 0.0 0.0
103 1 64.947475307 29.8038885353 0.0 0.0 0.0 0.0
104 1 72.347475307 29.0329885353 0.0 0.0 0.0 0.0
105 1 77.409375307 29.0844885353 0.0 0.0 0.0 0.0
106 1 1.14714530703 34.1681885353 0.0 0.0 0.0 0.0
107 1 5.75476530703 34.1892885353 0.0 0.0 0.0 0.0
108 1 10.991875307 32.9040885353 0.0 0.0 0.0 0.0
109 1 16.775675307 33.2360885353 0.0 0.0 0.0 0.0
110 1 24.146375307 33.7383885353 0.0 0.0 0.0 0.0
111 1 29.120775307 33.0087885353 0.0 0.0 0.0 0.0
112 1 33.685375307 32.7842885353 0.0 0.0 0.0 0.0
113 1 36.477275307 31.6102885353 0.0 0.0 0.0 0.0
114 1 44.395375307 33.9520885353 0.0 0.0 0.0 0.0
115 1 48.587575307 32.5541885353 0.0 0.0 0.0 0.0
116 1 53.531075307 32.0295885353 0.0 0.0 0.0 0.0
117 1 57.750775307 33.3343885353 0.0 0.0 0.0 0.0
118 1 61.425375307 32.8735885353 0.0 0.0 0.0 0.0
119 1 71.487675307 33.8626885353 0.0 0.0 0.0 0.0
120 1 74.462875307 33.5791885353 0.0 0.0 0.0 0.0
121 1 3.18949530703 39.0812885353 0.0 0.0 0.0 0.0
122 1 10.533475307 37.1067885353 0.0 0.0 0.0 0.0
123 1 13.498375307 36.7812885353 0.0 0.0 0.0 0.0
124 1 17.392575307 36.1841885353 0.0 0.0 0.0 0.0
125 1 23.468675307 39.2218885353 0.0 0.0 0.0 0.0
126 1 27.556475307 37.9189885353 0.0 0.0 0.0 0.0
127 1 30.797375307 40.8351885353 0.0 0.0 0.0 0.0
128 1 39.450175307 38.9476885353 0.0 0.0 0.0 0.0
129 1 43.111175307 36.6348885353 0.0 0.0 0.0 0.0
130 1 49.842875307 36.6329885353 0.0 0.0 0.0 0.0
131 1 54.544875307 37.6506885353 0.0 0.0 0.0 0.0
132 1 59.660875307 38.4516885353 0.0 0.0 0.0 0.0
133 1 64.553675307 37.9065885353 0.0 0.0 0.0 0.0
134 1 68.520875307 36.8751885353 0.0 0.0 0.0 0.0
135 1 76.024375307 38.5847885353 0.0 0.0 0.0 0.0
136 1 0.416454307029 43.2600885353 0.0 0.0 0.0 0.0
137 1 4.84361530703 41.5817885353 0.0 0.0 0.0 0.0
138 1 12.612975307 41.7158885353 0.0 0.0 0.0 0.0
139 1 15.620575307 41.7445885353 0.0 0.0 0.0 0.0
140 1 20.197075307 43.4747885353 0.0 0.0 0.0 0.0
141 1 25.349275307 43.4917885353 0.0 0.0 0.0 0.0
142 1 33.785175307 40.8824885353 0.0 0.0 0.0 0.0
143 1 37.081375307 42.8462885353 0.0 0.0 0.0 0.0
144 1 44.059275307 42.6168885353 0.0 0.0 0.0 0.0
145 1 46.792175307 41.4198885353 0.0 0.0 0.0 0.0
146 1 51.611475307 42.0157885353 0.0 0.0 0.0 0.0
147 1 56.918075307 42.6430885353 0.0 0.0 0.0 0.0
148 1 64.210075307 42.2417885353 0.0 0.0 0.0 0.0
149 1 67.238275307 42.4693885353 0.0 0.0 0.0 0.0
150 1 72.840975307 42.4302885353 0.0 0.0 0.0 0.0
151 1 5.32026530703 46.4542885353 0.0 0.0 0.0 0.0
152 1 8.18635530703 47.5276885353 0.0 0.0 0.0 0.0
153 1 13.837175307 47.4625885353 0.0 0.0 0.0 0.0
154 1 16.853675307 47.2706885353 0.0 0.0 0.0 0.0
155 1 23.176175307 48.0393885353 0.0 0.0 0.0 0.0
156 1 27.562875307 45.5206885353 0.0 0.0 0.0 0.0
157 1 33.351475307 48.8012885353 0.0 0.0 0.0 0.0
158 1 38.732575307 47.6481885353 0.0 0.0 0.0 0.0
159 1 43.756175307 50.0117885353 0.0 0.0 0.0 0.0
160 1 48.604575307 46.6021885353 0.0 0.0 0.0 0.0
161 1 54.059675307 46.8134885353 0.0 0.0 0.0 0.0
162 1 59.245575307 47.4714885353 0.0 0.0 0.0 0.0
163 1 64.263575307 47.0090885353 0.0 0.0 0.0 0.0
164 1 70.048475307 46.6441885353 0.0 0.0 0.0 0.0
165 1 75.607575307 46.8692885353 0.0 0.0 0.0 0.0
166 1 78.011175307 51.3350885353 0.0 0.0 0.0 0.0
167 1 4.65323530703 51.2153885353 0.0 0.0 0.0 0.0
168 1 8.95391530703 54.6932885353 0.0 0.0 0.0 0.0
169 1 15.645975307 51.4651885353 0.0 0.0 0.0 0.0
170 1 18.322075307 49.9504885353 0.0 0.0 0.0 0.0
171 1 26.690575307 51.2150885353 0.0 0.0 0.0 0.0
172 1 32.584075307 51.7208885353 0.0 0.0 0.0 0.0
173 1 38.015475307 51.8798885353 0.0 0.0 0.0 0.0
174 1 43.090075307 53.8186885353 0.0 0.0 0.0 0.0
175 1 48.276875307 51.5165885353 0.0 0.0 0.0 0.0
176 1 53.940575307 52.5413885353 0.0 0.0 0.0 0.0
177 1 56.859375307 51.6723885353 0.0 0.0 0.0 0.0
178 1 62.383175307 51.8784885353 0.0 0.0 0.0 0.0
179 1 67.527475307 50.7395885353 0.0 0.0 0.0 0.0
180 1 73.116675307 50.9696885353 0.0 0.0 0.0 0.0
181 1 1.68777530703 56.0509885353 0.0 0.0 0.0 0.0
182 1 6.72912530703 56.7310885353 0.0 0.0 0.0 0.0
183 1 13.258175307 59.7690885353 0.0 0.0 0.0 0.0
184 1 17.335175307 55.9528885353 0.0 0.0 0.0 0.0
185 1 24.187075307 55.4116885353 0.0 0.0 0.0 0.0
186 1 29.496775307 55.2915885353 0.0 0.0 0.0 0.0
187 1 34.784875307 56.2168885353 0.0 0.0 0.0 0.0
188 1 41.410475307 56.2956885353 0.0 0.0 0.0 0.0
189 1 46.325775307 56.6431885353 0.0 0.0 0.0 0.0
190 1 51.792175307 57.5964885353 0.0 0.0 0.0 0.0
191 1 56.974475307 56.3505885353 0.0 0.0 0.0 0.0
192 1 59.990375307 56.0863885353 0.0 0.0 0.0 0.0
193 1 67.300375307 55.0391885353 0.0 0.0 0.0 0.0
194 1 70.325675307 54.9586885353 0.0 0.0 0.0 0.0
195 1 76.786675307 55.6148885353 0.0 0.0 0.0 0.0
196 1 76.820275307 60.8069885353 0.0 0.0 0.0 0.0
197 1 5.22846530703 60.7674885353 0.0 0.0 0.0 0.0
198 1 7.94686530703 59.4648885353 0.0 0.0 0.0 0.0
199 1 18.509475307 60.2240885353 0.0 0.0 0.0 0.0
200 1 19.893275307 57.5654885353 0.0 0.0 0.0 0.0
201 1 26.907175307 59.7960885353 0.0 0.0 0.0 0.0
202 1 32.076475307 60.1000885353 0.0 0.0 0.0 0.0
203 1 36.184175307 58.9019885353 0.0 0.0 0.0 0.0
204 1 41.597875307 63.0895885353 0.0 0.0 0.0 0.0
205 1 47.027075307 60.7367885353 0.0 0.0 0.0 0.0
206 1 54.657275307 62.6656885353 0.0 0.0 0.0 0.0
207 1 58.891275307 61.5028885353 0.0 0.0 0.0 0.0
208 1 61.879575307 61.4213885353 0.0 0.0 0.0 0.0
209 1 64.818275307 59.5840885353 0.0 0.0 0.0 0.0
210 1 71.335975307 61.9097885353 0.0 0.0 0.0 0.0
211 1 0.441745307029 65.9096885353 0.0 0.0 0.0 0.0
212 1 7.38978530703 67.8489885353 0.0 0.0 0.0 0.0
213 1 12.369575307 64.5294885353 0.0 0.0 0.0 0.0
214 1 18.393275307 65.8679885353 0.0 0.0 0.0 0.0
215 1 24.263675307 64.0199885353 0.0 0.0 0.0 0.0
216 1 29.750875307 64.4785885353 0.0 0.0 0.0 0.0
217 1 34.712175307 64.6204885353 0.0 0.0 0.0 0.0
218 1 39.549875307 65.3237885353 0.0 0.0 0.0 0.0
219 1 45.478075307 65.4176885353 0.0 0.0 0.0 0.0
220 1 48.426975307 65.6689885353 0.0 0.0 0.0 0.0
221 1 52.946175307 69.1198885353 0.0 0.0 0.0 0.0
222 1 58.381375307 66.8294885353 0.0 0.0 0.0 0.0
223 1 66.356175307 65.2086885353 0.0 0.0 0.0 0.0
224 1 70.840475307 64.8496885353 0.0 0.0 0.0 0.0
225 1 73.777375307 65.3513885353 0.0 0.0 0.0 0.0
226 1 75.967475307 70.3946885353 0.0 0.0 0.0 0.0
227 1 2.26818530703 68.3131885353 0.0 0.0 0.0 0.0
228 1 11.882575307 68.0849885353 0.0 0.0 0.0 0.0
229 1 14.471575307 66.6747885353 0.0 0.0 0.0 0.0
230 1 20.525975307 67.9296885353 0.0 0.0 0.0 0.0
231 1 26.629175307 68.4555885353 0.0 0.0 0.0 0.0
232 1 31.636975307 69.2782885353 0.0 0.0 0.0 0.0
233 1 36.580475307 69.8096885353 0.0 0.0 0.0 0.0
234 1 41.474075307 70.4939885353 0.0 0.0 0.0 0.0
235 1 44.051875307 74.1824885353 0.0 0.0 0.0 0.0
236 1 51.054175307 71.4528885353 0.0 0.0 0.0 0.0
237 1 56.356975307 71.4941885353 0.0 0.0 0.0 0.0
238 1 61.308275307 70.5411885353 0.0 0.0 0.0 0.0
239 1 65.906075307 69.9721885353 0.0 0.0 0.0 0.0
240 1 70.690875307 69.5556885353 0.0 0.0 0.0 0.0
241 1 1.09862530703 74.0559885353 0.0 0.0 0.0 0.0
242 1 9.59897530703 73.4014885353 0.0 0.0 0.0 0.0
243 1 12.597575307 73.9201885353 0.0 0.0 0.0 0.0
244 1 20.224975307 73.3274885353 0.0 0.0 0.0 0.0
245 1 23.255175307 72.9021885353 0.0 0.0 0.0 0.0
246 1 27.869475307 73.2526885353 0.0 0.0 0.0 0.0
247 1 32.294475307 72.2249885353 0.0 0.0 0.0 0.0
248 1 39.205275307 74.7755885353 0.0 0.0 0.0 0.0
249 1 46.698475307 75.5354885353 0.0 0.0 0.0 0.0
250 1 50.158875307 76.5174885353 0.0 0.0 0.0 0.0
251 1 55.464575307 77.3157885353 0.0 0.0 0.0 0.0
252 1 60.341475307 75.2829885353 0.0 0.0 0.0 0.0
253 1 64.777075307 74.9623885353 0.0 0.0 0.0 0.0
254 1 69.210975307 74.4802885353 0.0 0.0 0.0 0.0
255 1 74.036175307 74.4040885353 0.0 0.0 0.0 0.0
256 1 76.963475307 4.29998853529 0.0 0.0 0.0 0.0
257 1 1.86200530703 4.18089853529 0.0 0.0 0.0 0.0
258 1 8.33816530703 2.01363853529 0.0 0.0 0.0 0.0
259 1 12.958075307 1.84020853529 0.0 0.0 0.0 0.0
260 1 18.121075307 2.15715853529 0.0 0.0 0.0 0.0
261 1 25.056375307 3.48174853529 0.0 0.0 0.0 0.0
262 1 31.847375307 2.08653853529 0.0 0.0 0.0 0.0
263 1 35.682675307 1.47834853529 0.0 0.0 0.0 0.0
264 1 38.435875307 2.63237853529 0.0 0.0 0.0 0.0
265 1 46.557875307 6.19755853529 0.0 0.0 0.0 0.0
266 1 49.493675307 5.57120853529 0.0 0.0 0.0 0.0
267 1 57.328675307 4.08236853529 0.0 0.0 0.0 0.0
268 1 63.099975307 1.99908853529 0.0 0.0 0.0 0.0
269 1 67.701275307 3.73040853529 0.0 0.0 0.0 0.0
270 1 72.375075307 3.72324853529 0.0 0.0 0.0 0.0
271 1 1.99521530703 8.32397853529 0.0 0.0 0.0 0.0
272 1 7.02954530703 6.79135853529 0.0 0.0 0.0 0.0
273 1 12.428375307 4.82377853529 0.0 0.0 0.0 0.0
274 1 15.784475307 9.43246853529 0.0 0.0 0.0 0.0
275 1 20.486575307 6.17854853529 0.0 0.0 0.0 0.0
276 1 26.727875307 5.99426853529 0.0 0.0 0.0 0.0
277 1 29.681675307 5.51334853529 0.0 0.0 0.0 0.0
278 1 36.188875307 6.22886853529 0.0 0.0 0.0 0.0
279 1 41.875475307 6.75960853529 0.0 0.0 0.0 0.0
280 1 47.956375307 8.87237853529 0.0 0.0 0.0 0.0
281 1 56.087475307 9.80617853529 0.0 0.0 0.0 0.0
282 1 60.395475307 8.04603853529 0.0 0.0 0.0 0.0
283 1 65.857175307 8.55594853529 0.0 0.0 0.0 0.0
284 1 71.214875307 6.49353853529 0.0 0.0 0.0 0.0
285 1 75.441975307 9.60751853529 0.0 0.0 0.0 0.0
286 1 1.48629530703 13.4475885353 0.0 0.0 0.0 0.0
287 1 5.94486530703 9.61593853529 0.0 0.0 0.0 0.0
288 1 10.632375307 11.7523885353 0.0 0.0 0.0 0.0
289 1 13.977375307 14.4000885353 0.0 0.0 0.0 0.0
290 1 20.375475307 11.7816885353 0.0 0.0 0.0 0.0
291 1 24.226875307 10.3370885353 0.0 0.0 0.0 0.0
292 1 29.401275307 10.6040885353 0.0 0.0 0.0 0.0
293 1 33.449975307 10.2114885353 0.0 0.0 0.0 0.0
294 1 38.879275307 10.7012885353 0.0 0.0 0.0 0.0
295 1 47.530575307 14.0917885353 0.0 0.0 0.0 0.0
296 1 51.836275307 12.9713885353 0.0 0.0 0.0 0.0
297 1 57.293775307 12.6005885353 0.0 0.0 0.0 0.0
298 1 62.409575307 12.5443885353 0.0 0.0 0.0 0.0
299 1 69.405475307 14.1718885353 0.0 0.0 0.0 0.0
300 1 74.066175307 13.4520885353 0.0 0.0 0.0 0.0
301 1 4.82424530703 19.5382885353 0.0 0.0 0.0 0.0
302 1 7.27626530703 17.8561885353 0.0 0.0 0.0 0.0
303 1 16.896475307 14.9961885353 0.0 0.0 0.0 0.0
304 1 22.843675307 17.1579885353 0.0 0.0 0.0 0.0
305 1 24.904275307 13.2595885353 0.0 0.0 0.0 0.0
306 1 29.639775307 16.2302885353 0.0 0.0 0.0 0.0
307 1 33.602275307 13.2392885353 0.0 0.0 0.0 0.0
308 1 38.252575307 16.2002885353 0.0 0.0 0.0 0.0
309 1 42.565975307 12.6745885353 0.0 0.0 0.0 0.0
310 1 49.072875307 16.6562885353 0.0 0.0 0.0 0.0
311 1 54.668575307 17.5620885353 0.0 0.0 0.0 0.0
312 1 59.596475307 17.3362885353 0.0 0.0 0.0 0.0
313 1 64.724975307 16.6838885353 0.0 0.0 0.0 0.0
314 1 70.582775307 16.9173885353 0.0 0.0 0.0 0.0
315 1 76.185975307 17.7056885353 0.0 0.0 0.0 0.0
316 1 0.145800307029 21.6439885353 0.0 0.0 0.0 0.0
317 1 6.70243530703 21.8557885353 0.0 0.0 0.0 0.0
318 1 11.977075307 21.2186885353 0.0 0.0 0.0 0.0
319 1 14.786675307 22.2825885353 0.0 0.0 0.0 0.0
320 1 20.196975307 22.0324885353 0.0 0.0 0.0 0.0
321 1 27.401975307 20.8037885353 0.0 0.0 0.0 0.0
322 1 32.511175307 20.8526885353 0.0 0.0 0.0 0.0
323 1 37.096975307 20.5283885353 0.0 0.0 0.0 0.0
324 1 41.919475307 20.8454885353 0.0 0.0 0.0 0.0
325 1 44.877275307 20.1670885353 0.0 0.0 0.0 0.0
326 1 53.377675307 23.0482885353 0.0 0.0 0.0 0.0
327 1 60.433075307 22.6859885353 0.0 0.0 0.0 0.0
328 1 64.377675307 19.6573885353 0.0 0.0 0.0 0.0
329 1 68.353875307 23.7326885353 0.0 0.0 0.0 0.0
330 1 72.478875307 21.2015885353 0.0 0.0 0.0 0.0
331 1 3.15104530703 26.3299885353 0.0 0.0 0.0 0.0
332 1 8.39245530703 25.7128885353 0.0 0.0 0.0 0.0
333 1 15.455575307 25.2181885353 0.0 0.0 0.0 0.0
334 1 20.355675307 26.8105885353 0.0 0.0 0.0 0.0
335 1 24.918975307 25.5458885353 0.0 0.0 0.0 0.0
336 1 30.111575307 25.1639885353 0.0 0.0 0.0 0.0
337 1 35.280975307 25.6742885353 0.0 0.0 0.0 0.0
338 1 40.393975307 23.4643885353 0.0 0.0 0.0 0.0
339 1 44.359475307 25.9511885353 0.0 0.0 0.0 0.0
340 1 49.677475307 25.3402885353 0.0 0.0 0.0 0.0
341 1 57.055375307 25.5938885353 0.0 0.0 0.0 0.0
342 1 61.350075307 25.5720885353 0.0 0.0 0.0 0.0
343 1 67.879775307 29.2297885353 0.0 0.0 0.0 0.0
344 1 71.349375307 23.9674885353 0.0 0.0 0.0 0.0
345 1 76.340975307 26.2848885353 0.0 0.0 0.0 0.0
346 1 1.46317530703 31.1742885353 0.0 0.0 0.0 0.0
347 1 6.04757530703 31.2092885353 0.0 0.0 0.0 0.0
348 1 8.99653530703 30.6994885353 0.0 0.0 0.0 0.0
349 1 17.884375307 30.4406885353 0.0 0.0 0.0 0.0
350 1 23.611175307 30.7835885353 0.0 0.0 0.0 0.0
351 1 28.135575307 30.1383885353 0.0 0.0 0.0 0.0
352 1 32.842075307 29.8978885353 0.0 0.0 0.0 0.0
353 1 39.044175307 33.2385885353 0.0 0.0 0.0 0.0
354 1 41.890775307 32.2372885353 0.0 0.0 0.0 0.0
355 1 47.805775307 29.6829885353 0.0 0.0 0.0 0.0
356 1 53.324775307 28.9821885353 0.0 0.0 0.0 0.0
357 1 59.211075307 27.7043885353 0.0 0.0 0.0 0.0
358 1 64.409175307 32.7413885353 0.0 0.0 0.0 0.0
359 1 70.204975307 31.1298885353 0.0 0.0 0.0 0.0
360 1 74.867675307 30.6301885353 0.0 0.0 0.0 0.0
361 1 3.44842530703 36.0918885353 0.0 0.0 0.0 0.0
362 1 8.67563530703 34.8011885353 0.0 0.0 0.0 0.0
363 1 13.844375307 33.8021885353 0.0 0.0 0.0 0.0
364 1 19.985275307 37.6417885353 0.0 0.0 0.0 0.0
365 1 22.669175307 36.3402885353 0.0 0.0 0.0 0.0
366 1 26.866375307 34.9916885353 0.0 0.0 0.0 0.0
367 1 31.498875307 34.8860885353 0.0 0.0 0.0 0.0
368 1 40.151375307 36.0422885353 0.0 0.0 0.0 0.0
369 1 47.171975307 35.1729885353 0.0 0.0 0.0 0.0
370 1 51.213575307 33.9439885353 0.0 0.0 0.0 0.0
371 1 55.057975307 34.6414885353 0.0 0.0 0.0 0.0
372 1 59.885375307 35.4416885353 0.0 0.0 0.0 0.0
373 1 65.989075307 35.2831885353 0.0 0.0 0.0 0.0
374 1 71.503775307 36.8751885353 0.0 0.0 0.0 0.0
375 1 76.624975307 35.6438885353 0.0 0.0 0.0 0.0
376 1 0.429535307029 40.2553885353 0.0 0.0 0.0 0.0
377 1 7.82189530703 41.9108885353 0.0 0.0 0.0 0.0
378 1 10.139975307 40.0349885353 0.0 0.0 0.0 0.0
379 1 15.773575307 38.7248885353 0.0 0.0 0.0 0.0
380 1 20.776975307 40.5273885353 0.0 0.0 0.0 0.0
381 1 26.127075307 40.5741885353 0.0 0.0 0.0 0.0
382 1 30.550475307 37.7950885353 0.0 0.0 0.0 0.0
383 1 36.608575307 39.9005885353 0.0 0.0 0.0 0.0
384 1 42.134675307 40.3399885353 0.0 0.0 0.0 0.0
385 1 44.868475307 39.0698885353 0.0 0.0 0.0 0.0
386 1 51.800275307 38.9626885353 0.0 0.0 0.0 0.0
387 1 56.871975307 39.6078885353 0.0 0.0 0.0 0.0
388 1 62.316775307 39.8783885353 0.0 0.0 0.0 0.0
389 1 67.096675307 39.4871885353 0.0 0.0 0.0 0.0
390 1 73.137575307 39.4204885353 0.0 0.0 0.0 0.0
391 1 3.31698530703 44.1680885353 0.0 0.0 0.0 0.0
392 1 11.001875307 46.4640885353 0.0 0.0 0.0 0.0
393 1 10.289175307 43.5902885353 0.0 0.0 0.0 0.0
394 1 17.299475307 44.2730885353 0.0 0.0 0.0 0.0
395 1 22.761675307 45.0509885353 0.0 0.0 0.0 0.0
396 1 30.079675307 43.8295885353 0.0 0.0 0.0 0.0
397 1 34.286175307 43.8405885353 0.0 0.0 0.0 0.0
398 1 39.358875307 44.7359885353 0.0 0.0 0.0 0.0
399 1 42.316075307 44.9909885353 0.0 0.0 0.0 0.0
400 1 48.973875307 43.5442885353 0.0 0.0 0.0 0.0
401 1 54.101575307 43.7742885353 0.0 0.0 0.0 0.0
402 1 59.370475307 44.4592885353 0.0 0.0 0.0 0.0
403 1 62.398375307 44.6263885353 0.0 0.0 0.0 0.0
404 1 70.046375307 43.6285885353 0.0 0.0 0.0 0.0
405 1 75.532275307 43.8613885353 0.0 0.0 0.0 0.0
406 1 0.173115307029 48.3425885353 0.0 0.0 0.0 0.0
407 1 3.19110530703 48.5749885353 0.0 0.0 0.0 0.0
408 1 9.80787530703 50.0779885353 0.0 0.0 0.0 0.0
409 1 12.848575307 50.2863885353 0.0 0.0 0.0 0.0
410 1 21.385775307 50.4875885353 0.0 0.0 0.0 0.0
411 1 26.195675307 48.2306885353 0.0 0.0 0.0 0.0
412 1 32.210675307 45.9919885353 0.0 0.0 0.0 0.0
413 1 36.311775307 49.3882885353 0.0 0.0 0.0 0.0
414 1 41.705175307 47.8833885353 0.0 0.0 0.0 0.0
415 1 46.646775307 48.9720885353 0.0 0.0 0.0 0.0
416 1 51.286575307 48.0333885353 0.0 0.0 0.0 0.0
417 1 56.477775307 48.6651885353 0.0 0.0 0.0 0.0
418 1 61.919075307 48.8992885353 0.0 0.0 0.0 0.0
419 1 67.216175307 47.7435885353 0.0 0.0 0.0 0.0
420 1 72.789475307 47.9700885353 0.0 0.0 0.0 0.0
421 1 2.34311530703 53.1206885353 0.0 0.0 0.0 0.0
422 1 7.55170530703 52.0452885353 0.0 0.0 0.0 0.0
423 1 11.884975307 55.4513885353 0.0 0.0 0.0 0.0
424 1 14.762875307 54.3573885353 0.0 0.0 0.0 0.0
425 1 23.839575307 52.3707885353 0.0 0.0 0.0 0.0
426 1 29.570675307 52.2784885353 0.0 0.0 0.0 0.0
427 1 35.268375307 53.2287885353 0.0 0.0 0.0 0.0
428 1 41.105675307 51.5888885353 0.0 0.0 0.0 0.0
429 1 46.113175307 53.6439885353 0.0 0.0 0.0 0.0
430 1 51.277875307 51.0589885353 0.0 0.0 0.0 0.0
431 1 54.042575307 55.5515885353 0.0 0.0 0.0 0.0
432 1 59.598475307 53.0783885353 0.0 0.0 0.0 0.0
433 1 65.295175307 52.7678885353 0.0 0.0 0.0 0.0
434 1 70.287075307 51.9632885353 0.0 0.0 0.0 0.0
435 1 75.452775307 52.8966885353 0.0 0.0 0.0 0.0
436 1 75.252475307 58.1949885353 0.0 0.0 0.0 0.0
437 1 4.00432530703 57.9927885353 0.0 0.0 0.0 0.0
438 1 10.702275307 58.2466885353 0.0 0.0 0.0 0.0
439 1 15.996975307 58.6151885353 0.0 0.0 0.0 0.0
440 1 22.851975307 58.1471885353 0.0 0.0 0.0 0.0
441 1 26.878575307 56.7716885353 0.0 0.0 0.0 0.0
442 1 31.913075307 57.0916885353 0.0 0.0 0.0 0.0
443 1 39.115875307 58.2199885353 0.0 0.0 0.0 0.0
444 1 43.730775307 58.1903885353 0.0 0.0 0.0 0.0
445 1 48.824975307 58.2920885353 0.0 0.0 0.0 0.0
446 1 53.855775307 59.7844885353 0.0 0.0 0.0 0.0
447 1 56.816675307 59.3261885353 0.0 0.0 0.0 0.0
448 1 62.037675307 58.3939885353 0.0 0.0 0.0 0.0
449 1 67.365975307 58.0285885353 0.0 0.0 0.0 0.0
450 1 72.380375307 57.1893885353 0.0 0.0 0.0 0.0
451 1 0.928595307029 62.9255885353 0.0 0.0 0.0 0.0
452 1 3.90569530703 63.4998885353 0.0 0.0 0.0 0.0
453 1 14.510075307 62.4704885353 0.0 0.0 0.0 0.0
454 1 17.466475307 63.0183885353 0.0 0.0 0.0 0.0
455 1 24.118775307 60.9456885353 0.0 0.0 0.0 0.0
456 1 29.411775307 61.4834885353 0.0 0.0 0.0 0.0
457 1 34.715975307 61.5618885353 0.0 0.0 0.0 0.0
458 1 41.434275307 60.1143885353 0.0 0.0 0.0 0.0
459 1 44.583775307 62.5545885353 0.0 0.0 0.0 0.0
460 1 49.199075307 62.7840885353 0.0 0.0 0.0 0.0
461 1 51.956675307 63.8765885353 0.0 0.0 0.0 0.0
462 1 57.316175307 64.0343885353 0.0 0.0 0.0 0.0
463 1 64.677775307 62.6117885353 0.0 0.0 0.0 0.0
464 1 70.135175307 59.1782885353 0.0 0.0 0.0 0.0
465 1 74.288775307 62.4096885353 0.0 0.0 0.0 0.0
466 1 75.937375307 67.4019885353 0.0 0.0 0.0 0.0
467 1 4.67739530703 66.4712885353 0.0 0.0 0.0 0.0
468 1 9.75357530703 65.9946885353 0.0 0.0 0.0 0.0
469 1 16.870175307 68.4519885353 0.0 0.0 0.0 0.0
470 1 23.319175307 66.9305885353 0.0 0.0 0.0 0.0
471 1 26.909675307 65.4547885353 0.0 0.0 0.0 0.0
472 1 32.177175307 66.2837885353 0.0 0.0 0.0 0.0
473 1 36.869475307 66.7549885353 0.0 0.0 0.0 0.0
474 1 41.569775307 67.5296885353 0.0 0.0 0.0 0.0
475 1 44.480775307 68.2240885353 0.0 0.0 0.0 0.0
476 1 51.176475307 66.7453885353 0.0 0.0 0.0 0.0
477 1 55.904975307 68.5470885353 0.0 0.0 0.0 0.0
478 1 61.309575307 67.5499885353 0.0 0.0 0.0 0.0
479 1 64.319275307 67.4041885353 0.0 0.0 0.0 0.0
480 1 68.841575307 67.0588885353 0.0 0.0 0.0 0.0
481 1 0.837195307029 71.0193885353 0.0 0.0 0.0 0.0
482 1 8.97676530703 70.4643885353 0.0 0.0 0.0 0.0
483 1 11.953975307 71.0109885353 0.0 0.0 0.0 0.0
484 1 19.036075307 70.5395885353 0.0 0.0 0.0 0.0
485 1 24.017875307 69.9131885353 0.0 0.0 0.0 0.0
486 1 28.862175307 70.4153885353 0.0 0.0 0.0 0.0
487 1 35.255675307 72.5427885353 0.0 0.0 0.0 0.0
488 1 38.821875307 71.8037885353 0.0 0.0 0.0 0.0
489 1 44.369775307 71.2071885353 0.0 0.0 0.0 0.0
490 1 49.075075307 73.7177885353 0.0 0.0 0.0 0.0
491 1 53.695875307 72.8386885353 0.0 0.0 0.0 0.0
492 1 59.128875307 72.5652885353 0.0 0.0 0.0 0.0
493 1 63.843175307 72.1229885353 0.0 0.0 0.0 0.0
494 1 68.465875307 71.5571885353 0.0 0.0 0.0 0.0
495 1 73.139275307 71.4616885353 0.0 0.0 0.0 0.0
496 1 76.722875307 75.8777885353 0.0 0.0 0.0 0.0
497 1 3.98105530703 75.0341885353 0.0 0.0 0.0 0.0
498 1 6.98755530703 74.8095885353 0.0 0.0 0.0 0.0
499 1 15.170875307 75.5504885353 0.0 0.0 0.0 0.0
500 1 18.246075307 75.6602885353 0.0 0.0 0.0 0.0
501 1 25.459975307 75.0476885353 0.0 0.0 0.0 0.0
502 1 30.509775307 74.6599885353 0.0 0.0 0.0 0.0
503 1 36.287875307 75.3995885353 0.0 0.0 0.0 0.0
504 1 41.840775307 76.2048885353 0.0 0.0 0.0 0.0
505 1 47.799775307 78.3288885353 0.0 0.0 0.0 0.0
506 1 52.996275307 75.7146885353 0.0 0.0 0.0 0.0
507 1 58.407975307 77.5282885353 0.0 0.0 0.0 0.0
508 1 62.702175307 77.0926885353 0.0 0.0 0.0 0.0
509 1 67.191875307 76.7033885353 0.0 0.0 0.0 0.0
510 1 71.635175307 76.2414885353 0.0 0.0 0.0 0.0
511 1 5.31307530703 77.7237885353 0.0 0.0 0.0 0.0
512 1 8.29862530703 77.5331885353 0.0 0.0 0.0 0.0
513 1 13.840275307 78.2626885353 0.0 0.0 0.0 0.0
514 1 19.304575307 78.5277885353 0.0 0.0 0.0 0.0
515 1 26.944575307 77.7548885353 0.0 0.0 0.0 0.0
516 1 30.065575307 77.6417885353 0.0 0.0 0.0 0.0
517 1 36.053375307 78.4125885353 0.0 0.0 0.0 0.0
518 1 41.892275307 79.2042885353 0.0 0.0 0.0 0.0
519 1 47.330775307 81.2978885353 0.0 0.0 0.0 0.0
520 1 54.796475307 80.2023885353 0.0 0.0 0.0 0.0
521 1 57.749975307 80.4292885353 0.0 0.0 0.0 0.0
522 1 62.567975307 80.0781885353 0.0 0.0 0.0 0.0
523 1 67.310975307 79.7148885353 0.0 0.0 0.0 0.0
524 1 71.784975307 81.5065885353 0.0 0.0 0.0 0.0
525 1 76.805375307 78.9536885353 0.0 0.0 0.0 0.0
526 1 1.14577530703 80.7732885353 0.0 0.0 0.0 0.0
527 1 4.11773530703 80.4197885353 0.0 0.0 0.0 0.0
528 1 10.905775307 79.1167885353 0.0 0.0 0.0 0.0
529 1 16.496375307 79.7243885353 0.0 0.0 0.0 0.0
530 1 21.930775307 80.1623885353 0.0 0.0 0.0 0.0
531 1 25.036875307 80.1839885353 0.0 0.0 0.0 0.0
532 1 32.973975307 78.7232885353 0.0 0.0 0.0 0.0
533 1 38.883375307 79.7649885353 0.0 0.0 0.0 0.0
534 1 44.285575307 81.1342885353 0.0 0.0 0.0 0.0
535 1 49.950875307 0.727678535293 0.0 0.0 0.0 0.0
536 1 52.926675307 0.339494535293 0.0 0.0 0.0 0.0
537 1 60.255475307 81.9869885353 0.0 0.0 0.0 0.0
538 1 65.031375307 81.7608885353 0.0 0.0 0.0 0.0
539 1 70.245675307 78.9432885353 0.0 0.0 0.0 0.0
540 1 74.793275307 81.2405885353 0.0 0.0 0.0 0.0
541 2 2.16570530703 2.72486853529 0.0 0.0 0.0 0.0
542 2 1.63504530703 0.077420535293 0.0 0.0 0.0 0.0
543 2 4.04797530703 1.26666853529 0.0 0.0 0.0 0.0
544 2 6.90232530703 1.50732853529 0.0 0.0 0.0 0.0
545 2 5.00058530703 81.6307885353 0.0 0.0 0.0 0.0
546 2 11.794075307 0.882202535293 0.0 0.0 0.0 0.0
547 2 10.708275307 80.6256885353 0.0 0.0 0.0 0.0
548 2 9.39633530703 0.932548535293 0.0 0.0 0.0 0.0
549 2 16.078675307 81.1769885353 0.0 0.0 0.0 0.0
550 2 16.867275307 1.33831853529 0.0 0.0 0.0 0.0
551 2 14.301375307 1.14731853529 0.0 0.0 0.0 0.0
552 2 21.395775307 81.5976885353 0.0 0.0 0.0 0.0
553 2 21.523275307 2.20454853529 0.0 0.0 0.0 0.0
554 2 19.432075307 1.41900853529 0.0 0.0 0.0 0.0
555 2 25.763275307 81.5581885353 0.0 0.0 0.0 0.0
556 2 27.753975307 1.57421853529 0.0 0.0 0.0 0.0
557 2 25.647175307 2.10017853529 0.0 0.0 0.0 0.0
558 2 33.102575307 80.2346885353 0.0 0.0 0.0 0.0
559 2 32.497875307 0.732333535293 0.0 0.0 0.0 0.0
560 2 34.714875307 0.324500535293 0.0 0.0 0.0 0.0
561 2 39.386075307 1.49599853529 0.0 0.0 0.0 0.0
562 2 39.484275307 81.1826885353 0.0 0.0 0.0 0.0
563 2 41.638675307 1.00824853529 0.0 0.0 0.0 0.0
564 2 43.764075307 0.400281535293 0.0 0.0 0.0 0.0
565 2 43.522975307 3.13509853529 0.0 0.0 0.0 0.0
566 2 50.462475307 4.44611853529 0.0 0.0 0.0 0.0
567 2 50.576875307 2.11271853529 0.0 0.0 0.0 0.0
568 2 52.980475307 3.38508853529 0.0 0.0 0.0 0.0
569 2 53.833675307 1.55450853529 0.0 0.0 0.0 0.0
570 2 55.897375307 3.48532853529 0.0 0.0 0.0 0.0
571 2 60.079375307 1.30631853529 0.0 0.0 0.0 0.0
572 2 58.754575307 3.48387853529 0.0 0.0 0.0 0.0
573 2 61.662475307 2.52804853529 0.0 0.0 0.0 0.0
574 2 63.934775307 3.23251853529 0.0 0.0 0.0 0.0
575 2 66.217175307 3.99019853529 0.0 0.0 0.0 0.0
576 2 63.963975307 5.71188853529 0.0 0.0 0.0 0.0
577 2 68.759775307 2.64311853529 0.0 0.0 0.0 0.0
578 2 71.191075307 2.80925853529 0.0 0.0 0.0 0.0
579 2 70.833675307 0.538058535293 0.0 0.0 0.0 0.0
580 2 73.653075307 2.93630853529 0.0 0.0 0.0 0.0
581 2 75.990375307 3.17018853529 0.0 0.0 0.0 0.0
582 2 75.007175307 0.606592535293 0.0 0.0 0.0 0.0
583 2 76.944175307 5.80853853529 0.0 0.0 0.0 0.0
584 2 76.305275307 8.39110853529 0.0 0.0 0.0 0.0
585 2 0.597525307029 7.78971853529 0.0 0.0 0.0 0.0
586 2 5.57938530703 6.32020853529 0.0 0.0 0.0 0.0
587 2 3.03758530703 5.10196853529 0.0 0.0 0.0 0.0
588 2 3.11597530703 7.32452853529 0.0 0.0 0.0 0.0
589 2 10.902575307 4.97997853529 0.0 0.0 0.0 0.0
590 2 8.82137530703 3.44877853529 0.0 0.0 0.0 0.0
591 2 8.25740530703 5.90523853529 0.0 0.0 0.0 0.0
592 2 15.388275307 7.97533853529 0.0 0.0 0.0 0.0
593 2 13.652575307 5.74333853529 0.0 0.0 0.0 0.0
594 2 16.309375307 5.78897853529 0.0 0.0 0.0 0.0
595 2 19.030575307 5.78526853529 0.0 0.0 0.0 0.0
596 2 17.879975307 3.64476853529 0.0 0.0 0.0 0.0
597 2 23.564575307 3.59540853529 0.0 0.0 0.0 0.0
598 2 21.317775307 4.91676853529 0.0 0.0 0.0 0.0
599 2 30.363675307 2.17172853529 0.0 0.0 0.0 0.0
600 2 29.341875307 4.03031853529 0.0 0.0 0.0 0.0
601 2 34.942575307 2.78246853529 0.0 0.0 0.0 0.0
602 2 35.049875307 5.23239853529 0.0 0.0 0.0 0.0
603 2 32.814475307 3.26691853529 0.0 0.0 0.0 0.0
604 2 38.869275307 4.05841853529 0.0 0.0 0.0 0.0
605 2 40.474375307 6.18284853529 0.0 0.0 0.0 0.0
606 2 37.666975307 5.94273853529 0.0 0.0 0.0 0.0
607 2 42.937475307 5.69249853529 0.0 0.0 0.0 0.0
608 2 45.309575307 5.34890853529 0.0 0.0 0.0 0.0