# input file

1350 atoms
2 atom types

0.0 78.2917097964 xlo xhi
0.0 82.1604669008 ylo yhi
-10.0 10.0 zlo zhi
0.0 0.0 0.0 xy xz yz

Masses

1 28.0855 #Si
2 15.9994 #O

Atoms

1 1 2.42628267506 82.1435334504 0.0
2 1 7.27201267506 0.878964450394 0.0
3 1 14.2148926751 3.16833345039 0.0
4 1 18.4582926751 1.74274345039 0.0
5 1 23.2036926751 2.61257345039 0.0
6 1 28.6556926751 0.942453450394 0.0
7 1 33.9906926751 1.48913345039 0.0
8 1 39.4501926751 2.32839345039 0.0
9 1 44.4837926751 2.58500345039 0.0
10 1 51.9357926751 2.16467345039 0.0
11 1 56.1253926751 1.54436345039 0.0
12 1 60.9530926751 0.925583450394 0.0
13 1 63.8439926751 1.85708345039 0.0
14 1 69.8123926751 2.39845345039 0.0
15 1 75.0705926751 0.631361450394 0.0
16 1 0.266480675056 4.22084345039 0.0
17 1 3.20865267506 4.76874345039 0.0
18 1 7.51165267506 6.36023345039 0.0
19 1 11.4430926751 4.25635345039 0.0
20 1 21.2925926751 4.94442345039 0.0
21 1 25.8799926751 5.71768345039 0.0
22 1 30.9838926751 5.62420345039 0.0
23 1 36.0956926751 6.09131345039 0.0
24 1 41.3535926751 7.13388345039 0.0
25 1 47.9731926751 7.18526345039 0.0
26 1 50.9682926751 7.04370345039 0.0
27 1 55.6996926751 6.64621345039 0.0
28 1 60.3986926751 5.55628345039 0.0
29 1 65.0175926751 4.64793345039 0.0
30 1 71.9955926751 5.74103345039 0.0
31 1 0.599452675056 8.86623345039 0.0
32 1 7.57838267506 11.5345334504 0.0
33 1 12.8568926751 11.2259334504 0.0
34 1 16.7024926751 11.2440334504 0.0
35 1 22.3303926751 10.0678334504 0.0
36 1 27.9247926751 10.2155334504 0.0
37 1 33.3705926751 10.4377334504 0.0
38 1 38.1675926751 10.9354334504 0.0
39 1 42.1073926751 10.0694334504 0.0
40 1 49.3912926751 12.4805334504 0.0
41 1 54.8572926751 11.3935334504 0.0
42 1 60.1696926751 10.3357334504 0.0
43 1 63.2066926751 10.0050334504 0.0
44 1 68.5797926751 10.4728334504 0.0
45 1 74.5919926751 10.8206334504 0.0
46 1 0.306595675056 14.2778334504 0.0
47 1 8.39820267506 14.4089334504 0.0
48 1 11.3895926751 13.8879334504 0.0
49 1 15.6564926751 14.0935334504 0.0
50 1 19.5833926751 17.2198334504 0.0
51 1 24.4534926751 14.1822334504 0.0
52 1 31.3170926751 14.4954334504 0.0
53 1 36.4956926751 15.3625334504 0.0
54 1 40.7768926751 15.7312334504 0.0
55 1 46.0308926751 16.5574334504 0.0
56 1 51.7507926751 15.9883334504 0.0
57 1 56.9514926751 17.4304334504 0.0
58 1 61.2864926751 16.7543334504 0.0
59 1 66.1206926751 14.7569334504 0.0
60 1 70.2112926751 13.0699334504 0.0
61 1 1.43434267506 18.1588334504 0.0
62 1 6.38193267506 19.2325334504 0.0
63 1 12.5569926751 19.0583334504 0.0
64 1 18.0154926751 19.7760334504 0.0
65 1 24.6044926751 18.4747334504 0.0
66 1 26.5851926751 16.2622334504 0.0
67 1 33.3442926751 19.2984334504 0.0
68 1 38.1228926751 20.7209334504 0.0
69 1 43.7389926751 20.4708334504 0.0
70 1 49.0071926751 20.1413334504 0.0
71 1 52.2807926751 23.1688334504 0.0
72 1 59.6520926751 22.0957334504 0.0
73 1 65.0854926751 20.1244334504 0.0
74 1 70.1376926751 18.6860334504 0.0
75 1 76.7260926751 18.0336334504 0.0
76 1 77.1207926751 23.3259334504 0.0
77 1 3.58538267506 23.2350334504 0.0
78 1 7.96384267506 21.8060334504 0.0
79 1 14.8282926751 23.5564334504 0.0
80 1 18.9004926751 22.6364334504 0.0
81 1 25.8448926751 24.0562334504 0.0
82 1 30.3141926751 22.6760334504 0.0
83 1 32.7013926751 26.7021334504 0.0
84 1 39.4487926751 23.4628334504 0.0
85 1 46.2489926751 27.2442334504 0.0
86 1 51.0554926751 25.8822334504 0.0
87 1 55.0730926751 24.1837334504 0.0
88 1 61.6683926751 24.3001334504 0.0
89 1 68.0853926751 23.8529334504 0.0
90 1 72.8723926751 23.6476334504 0.0
91 1 2.35423267506 27.9169334504 0.0
92 1 7.13383267506 29.5864334504 0.0
93 1 12.2336926751 27.5633334504 0.0
94 1 17.5264926751 28.1871334504 0.0
95 1 22.8865926751 28.4940334504 0.0
96 1 28.3689926751 28.1103334504 0.0
97 1 35.6506926751 27.1001334504 0.0
98 1 38.7809926751 29.3911334504 0.0
99 1 44.0432926751 29.2760334504 0.0
100 1 51.6130926751 29.9247334504 0.0
101 1 54.6360926751 29.7681334504 0.0
102 1 60.0752926751 29.8285334504 0.0
103 1 65.5872926751 28.8354334504 0.0
104 1 70.8818926751 28.4986334504 0.0
105 1 76.2357926751 28.4470334504 0.0
106 1 0.306187675056 33.3108334504 0.0
107 1 6.90320267506 32.5771334504 0.0
108 1 9.90869267506 32.7333334504 0.0
109 1 15.3433926751 32.2541334504 0.0
110 1 20.8959926751 32.5995334504 0.0
111 1 25.8553926751 32.4829334504 0.0
112 1 30.7114926751 32.2685334504 0.0
113 1 35.2055926751 32.9792334504 0.0
114 1 39.2881926751 32.3713334504 0.0
115 1 45.8381926751 31.6478334504 0.0
116 1 51.0328926751 35.8534334504 0.0
117 1 56.0827926751 33.9301334504 0.0
118 1 63.1104926751 33.5623334504 0.0
119 1 70.2773926751 32.4722334504 0.0
120 1 73.2958926751 32.8299334504 0.0
121 1 2.34252267506 38.7755334504 0.0
122 1 6.79295267506 37.5249334504 0.0
123 1 11.4819926751 35.3090334504 0.0
124 1 19.6708926751 38.1717334504 0.0
125 1 24.9504926751 36.8325334504 0.0
126 1 27.9664926751 37.1161334504 0.0
127 1 33.0085926751 37.5211334504 0.0
128 1 37.1804926751 40.2844334504 0.0
129 1 45.1282926751 36.7399334504 0.0
130 1 47.5996926751 40.7862334504 0.0
131 1 54.1038926751 39.1067334504 0.0
132 1 57.9636926751 36.2499334504 0.0
133 1 64.4269926751 36.2720334504 0.0
134 1 71.4108926751 37.7069334504 0.0
135 1 76.1036926751 37.5579334504 0.0
136 1 77.7924926751 43.0221334504 0.0
137 1 3.61585267506 41.5493334504 0.0
138 1 11.2862926751 43.1230334504 0.0
139 1 18.9792926751 41.0787334504 0.0
140 1 21.2255926751 43.0500334504 0.0
141 1 25.1036926751 44.2407334504 0.0
142 1 30.3163926751 42.0232334504 0.0
143 1 35.9496926751 43.0200334504 0.0
144 1 39.5866926751 42.0640334504 0.0
145 1 46.1788926751 43.4043334504 0.0
146 1 50.1858926751 42.3248334504 0.0
147 1 57.9236926751 41.9815334504 0.0
148 1 62.1547926751 43.5159334504 0.0
149 1 70.5336926751 42.2193334504 0.0
150 1 73.5172926751 42.4862334504 0.0
151 1 2.29449267506 47.3565334504 0.0
152 1 10.1857926751 45.9176334504 0.0
153 1 15.2310926751 46.3914334504 0.0
154 1 18.2111926751 46.3565334504 0.0
155 1 22.7749926751 48.7185334504 0.0
156 1 26.8657926751 46.6816334504 0.0
157 1 33.3103926751 48.8554334504 0.0
158 1 38.8833926751 47.8106334504 0.0
159 1 43.9049926751 47.4876334504 0.0
160 1 49.3476926751 49.1063334504 0.0
161 1 54.9699926751 46.8160334504 0.0
162 1 61.7259926751 46.4787334504 0.0
163 1 64.6997926751 46.6049334504 0.0
164 1 69.5554926751 49.1138334504 0.0
165 1 75.1273926751 47.8892334504 0.0
166 1 77.4506926751 52.0030334504 0.0
167 1 6.21864267506 51.4898334504 0.0
168 1 9.97969267506 50.2263334504 0.0
169 1 12.9487926751 50.6772334504 0.0
170 1 18.4982926751 51.6874334504 0.0
171 1 26.5941926751 52.4141334504 0.0
172 1 32.3422926751 51.7015334504 0.0
173 1 37.4728926751 54.3203334504 0.0
174 1 42.2062926751 52.2922334504 0.0
175 1 47.8432926751 51.7269334504 0.0
176 1 53.0027926751 51.1004334504 0.0
177 1 57.3824926751 53.9308334504 0.0
178 1 62.5079926751 51.3534334504 0.0
179 1 68.0615926751 51.7310334504 0.0
180 1 72.3249926751 54.8734334504 0.0
181 1 1.79365267506 56.9519334504 0.0
182 1 6.37305267506 56.1825334504 0.0
183 1 11.0299926751 55.1220334504 0.0
184 1 16.2236926751 55.1421334504 0.0
185 1 21.8853926751 56.0332334504 0.0
186 1 30.3652926751 55.9193334504 0.0
187 1 36.2179926751 57.0444334504 0.0
188 1 40.7511926751 57.8013334504 0.0
189 1 45.2798926751 56.0954334504 0.0
190 1 50.8092926751 55.8536334504 0.0
191 1 56.2234926751 56.7022334504 0.0
192 1 61.6083926751 56.1351334504 0.0
193 1 65.2559926751 58.7909334504 0.0
194 1 70.6085926751 57.3621334504 0.0
195 1 75.5775926751 57.0908334504 0.0
196 1 78.2731926751 61.9395334504 0.0
197 1 5.54804267506 61.1853334504 0.0
198 1 10.6794926751 59.9836334504 0.0
199 1 15.6771926751 62.0196334504 0.0
200 1 22.6856926751 58.9673334504 0.0
201 1 25.4257926751 57.6971334504 0.0
202 1 32.7228926751 59.8701334504 0.0
203 1 38.6486926751 64.6972334504 0.0
204 1 45.5258926751 61.0485334504 0.0
205 1 48.4094926751 60.1112334504 0.0
206 1 53.9730926751 61.4533334504 0.0
207 1 59.8921926751 60.5923334504 0.0
208 1 63.3313926751 63.7903334504 0.0
209 1 69.9083926751 61.8196334504 0.0
210 1 72.9248926751 61.8718334504 0.0
211 1 3.74892267506 65.4987334504 0.0
212 1 9.02661267506 64.9410334504 0.0
213 1 14.2048926751 64.6751334504 0.0
214 1 18.6013926751 65.5788334504 0.0
215 1 23.3062926751 64.4434334504 0.0
216 1 31.0976926751 63.5744334504 0.0
217 1 33.9640926751 62.5904334504 0.0
218 1 41.3992926751 67.5709334504 0.0
219 1 45.9503926751 66.6708334504 0.0
220 1 53.2574926751 64.3578334504 0.0
221 1 56.2332926751 64.3707334504 0.0
222 1 61.3787926751 66.1177334504 0.0
223 1 65.6238926751 67.8300334504 0.0
224 1 70.8800926751 67.2187334504 0.0
225 1 76.5707926751 66.1247334504 0.0
226 1 1.67669267506 69.9164334504 0.0
227 1 6.73327267506 69.5944334504 0.0
228 1 11.5707926751 69.3673334504 0.0
229 1 15.9097926751 72.4341334504 0.0
230 1 21.2271926751 69.7936334504 0.0
231 1 26.5648926751 68.7239334504 0.0
232 1 31.7564926751 70.9950334504 0.0
233 1 37.6416926751 70.6512334504 0.0
234 1 43.2361926751 71.8925334504 0.0
235 1 50.1747926751 70.5964334504 0.0
236 1 52.8597926751 69.2695334504 0.0
237 1 57.6847926751 69.3055334504 0.0
238 1 61.7876926751 71.8003334504 0.0
239 1 69.0064926751 71.8020334504 0.0
240 1 72.6708926751 69.6758334504 0.0
241 1 4.60672267506 74.3282334504 0.0
242 1 8.97563267506 76.5481334504 0.0
243 1 14.5102926751 75.1516334504 0.0
244 1 19.7924926751 74.5969334504 0.0
245 1 25.0551926751 73.4155334504 0.0
246 1 30.3888926751 73.7007334504 0.0
247 1 34.9937926751 74.6677334504 0.0
248 1 39.9883926751 75.3535334504 0.0
249 1 44.9064926751 76.5971334504 0.0
250 1 48.4726926751 74.8281334504 0.0
251 1 56.0768926751 76.2451334504 0.0
252 1 61.6730926751 74.7765334504 0.0
253 1 66.8652926751 75.8993334504 0.0
254 1 70.7839926751 74.1915334504 0.0
255 1 77.5603926751 74.3315334504 0.0
256 1 78.0025926751 1.28877345039 0.0
257 1 4.53896267506 2.09372345039 0.0
258 1 8.54294267506 3.56615345039 0.0
259 1 18.2922926751 4.74281345039 0.0
260 1 21.1621926751 0.442440450394 0.0
261 1 26.2041926751 2.71990345039 0.0
262 1 31.1803926751 2.60884345039 0.0
263 1 36.5351926751 3.11764345039 0.0
264 1 41.8795926751 4.14036345039 0.0
265 1 46.8663926751 4.41632345039 0.0
266 1 49.8526926751 4.26024345039 0.0
267 1 54.3584926751 3.94499345039 0.0
268 1 58.7992926751 2.98827345039 0.0
269 1 68.0309926751 4.86781345039 0.0
270 1 72.8155926751 2.77844345039 0.0
271 1 76.8616926751 6.67484345039 0.0
272 1 6.05006267506 8.97758345039 0.0
273 1 10.4194926751 7.04397345039 0.0
274 1 15.5227926751 5.92168345039 0.0
275 1 23.2487926751 7.20185345039 0.0
276 1 28.4522926751 7.25490345039 0.0
277 1 33.4025926751 7.42202345039 0.0
278 1 38.4606926751 7.94146345039 0.0
279 1 44.8444926751 11.2560334504 0.0
280 1 47.5879926751 10.1122334504 0.0
281 1 53.5087926751 8.68625345039 0.0
282 1 58.4711926751 7.83958345039 0.0
283 1 63.0801926751 6.96394345039 0.0
284 1 69.4983926751 7.51263345039 0.0
285 1 74.1176926751 7.85618345039 0.0
286 1 77.5159926751 11.4997334504 0.0
287 1 3.35384267506 7.75016345039 0.0
288 1 10.1489926751 10.0036334504 0.0
289 1 14.8306926751 8.90526345039 0.0
290 1 19.6954926751 11.5719334504 0.0
291 1 25.0936926751 11.2605334504 0.0
292 1 30.5987926751 11.5892334504 0.0
293 1 35.6077926751 12.4706334504 0.0
294 1 40.5966926751 12.6928334504 0.0
295 1 46.6226926751 13.6469334504 0.0
296 1 52.3407926751 13.0537334504 0.0
297 1 58.7923926751 15.0579334504 0.0
298 1 57.7937926751 12.2124334504 0.0
299 1 65.7733926751 11.7026334504 0.0
300 1 73.2141926751 13.4831334504 0.0
301 1 3.02018267506 15.6133334504 0.0
302 1 5.99410267506 16.2400334504 0.0
303 1 13.3851926751 16.1251334504 0.0
304 1 18.6392926751 14.3861334504 0.0
305 1 22.4564926751 16.4100334504 0.0
306 1 29.4921926751 16.8547334504 0.0
307 1 33.6788926751 16.3278334504 0.0
308 1 38.4566926751 17.6728334504 0.0
309 1 43.1936926751 17.5228334504 0.0
310 1 48.9687926751 17.1531334504 0.0
311 1 53.9948926751 17.9732334504 0.0
312 1 59.4276926751 19.1090334504 0.0
313 1 64.2781926751 17.1822334504 0.0
314 1 68.9643926751 15.8398334504 0.0
315 1 75.7122926751 15.2144334504 0.0
316 1 75.5070926751 20.7652334504 0.0
317 1 3.56206267506 20.2512334504 0.0
318 1 10.9683926751 21.6634334504 0.0
319 1 15.1378926751 20.5678334504 0.0
320 1 21.8563926751 22.9205334504 0.0
321 1 24.4382926751 21.4395334504 0.0
322 1 30.3810926751 19.7033334504 0.0
323 1 35.2451926751 21.6112334504 0.0
324 1 42.4390926751 23.1673334504 0.0
325 1 46.4613926751 21.7357334504 0.0
326 1 52.0006926751 20.2116334504 0.0
327 1 58.0114926751 24.5825334504 0.0
328 1 64.3872926751 23.0868334504 0.0
329 1 68.0070926751 20.8272334504 0.0
330 1 72.4938926751 20.6400334504 0.0
331 1 1.25504267506 25.1061334504 0.0
332 1 6.35250267506 24.3685334504 0.0
333 1 12.0005926751 24.5285334504 0.0
334 1 17.3345926751 25.1888334504 0.0
335 1 23.2613926751 25.5416334504 0.0
336 1 28.6159926751 25.1308334504 0.0
337 1 33.1092926751 23.7272334504 0.0
338 1 38.5571926751 26.3694334504 0.0
339 1 45.1632926751 24.4386334504 0.0
340 1 49.1357926751 28.1643334504 0.0
341 1 53.8751926751 26.8993334504 0.0
342 1 60.0188926751 26.8072334504 0.0
343 1 65.7791926751 25.7791334504 0.0
344 1 70.5566926751 25.5233334504 0.0
345 1 75.1818926751 25.6000334504 0.0
346 1 0.401308675056 30.2413334504 0.0
347 1 5.30169267506 27.2052334504 0.0
348 1 10.1331926751 29.7305334504 0.0
349 1 14.7239926751 29.2973334504 0.0
350 1 20.1422926751 29.6885334504 0.0
351 1 25.7115926751 29.4977334504 0.0
352 1 31.1207926751 29.2790334504 0.0
353 1 35.8701926751 30.0640334504 0.0
354 1 42.1667926751 31.6209334504 0.0
355 1 48.2627926751 33.3164334504 0.0
356 1 51.1859926751 32.8702334504 0.0
357 1 57.3195926751 31.1598334504 0.0
358 1 63.0411926751 30.5347334504 0.0
359 1 68.3543926751 30.1275334504 0.0
360 1 73.5799926751 29.8452334504 0.0
361 1 2.21100267506 35.7110334504 0.0
362 1 5.13673267506 35.0137334504 0.0
363 1 14.4824926751 35.1400334504 0.0
364 1 18.0568926751 33.5269334504 0.0
365 1 23.4326926751 34.2265334504 0.0
366 1 28.3560926751 34.1285334504 0.0
367 1 32.6627926751 34.5377334504 0.0
368 1 37.5403926751 34.8472334504 0.0
369 1 43.9784926751 33.9848334504 0.0
370 1 48.0871926751 36.2975334504 0.0
371 1 53.9927926751 36.1097334504 0.0
372 1 60.8439926751 35.5200334504 0.0
373 1 67.2454926751 37.2576334504 0.0
374 1 69.5620926751 35.3677334504 0.0
375 1 75.8213926751 34.5338334504 0.0
376 1 77.8941926751 39.9853334504 0.0
377 1 6.43331267506 40.5095334504 0.0
378 1 9.78009267506 37.7869334504 0.0
379 1 17.2217926751 36.3973334504 0.0
380 1 23.8077926751 41.5387334504 0.0
381 1 22.6483926751 38.7564334504 0.0
382 1 30.3515926751 38.9939334504 0.0
383 1 36.0471926751 37.4922334504 0.0
384 1 42.5398926751 41.6642334504 0.0
385 1 44.8126926751 39.6918334504 0.0
386 1 53.1706926751 41.9578334504 0.0
387 1 57.0789926751 39.1140334504 0.0
388 1 62.1445926751 38.2207334504 0.0
389 1 69.0947926751 39.5949334504 0.0
390 1 73.8156926751 39.4862334504 0.0
391 1 2.24348267506 44.2836334504 0.0
392 1 9.42525267506 40.7655334504 0.0
393 1 14.2617926751 43.5561334504 0.0
394 1 17.2452926751 43.4864334504 0.0
395 1 22.5105926751 45.7321334504 0.0
396 1 29.2599926751 44.8581334504 0.0
397 1 32.9847926751 43.3945334504 0.0
398 1 38.3613926751 44.8180334504 0.0
399 1 43.4161926751 44.5277334504 0.0
400 1 48.7212926751 44.9405334504 0.0
401 1 55.5332926751 43.8396334504 0.0
402 1 60.7323926751 40.8966334504 0.0
403 1 65.1235926751 43.6348334504 0.0
404 1 68.0811926751 43.8980334504 0.0
405 1 75.3836926751 44.8543334504 0.0
406 1 77.9698926751 48.9943334504 0.0
407 1 5.05726267506 48.6860334504 0.0
408 1 7.98427267506 47.9454334504 0.0
409 1 12.5902926751 47.7193334504 0.0
410 1 19.7770926751 48.9558334504 0.0
411 1 25.6974926751 49.4978334504 0.0
412 1 31.9378926751 46.1916334504 0.0
413 1 36.2739926751 49.3421334504 0.0
414 1 41.5120926751 49.3371334504 0.0
415 1 46.9335926751 47.3507334504 0.0
416 1 52.2548926751 48.2033334504 0.0
417 1 57.3943926751 48.6516334504 0.0
418 1 60.3932926751 49.1543334504 0.0
419 1 67.6510926751 46.8437334504 0.0
420 1 72.5331926751 49.5324334504 0.0
421 1 1.44669267506 53.9695334504 0.0
422 1 4.44282267506 53.8726334504 0.0
423 1 8.86614267506 52.9797334504 0.0
424 1 15.5422926751 52.2172334504 0.0
425 1 24.6526926751 54.7825334504 0.0
426 1 29.5894926751 53.0012334504 0.0
427 1 35.3311926751 52.1984334504 0.0
428 1 40.4518926751 54.7716334504 0.0
429 1 45.1250926751 53.0799334504 0.0
430 1 50.5988926751 52.8880334504 0.0
431 1 55.9819926751 51.2951334504 0.0
432 1 60.3451926751 53.4336334504 0.0
433 1 65.1991926751 52.8284334504 0.0
434 1 71.0498926751 52.1807334504 0.0
435 1 75.2543926751 54.1088334504 0.0
436 1 77.8944926751 58.9715334504 0.0
437 1 4.40867267506 58.4172334504 0.0
438 1 9.11666267506 57.4127334504 0.0
439 1 13.6389926751 56.6883334504 0.0
440 1 19.1964926751 54.6252334504 0.0
441 1 28.3931926751 58.2153334504 0.0
442 1 33.2116926751 56.9213334504 0.0
443 1 38.1442926751 59.3711334504 0.0
444 1 43.6602926751 58.6445334504 0.0
445 1 48.0944926751 57.1307334504 0.0
446 1 53.3004926751 57.4921334504 0.0
447 1 59.0584926751 57.7240334504 0.0
448 1 64.5989926751 55.8249334504 0.0
449 1 68.2612926751 59.2728334504 0.0
450 1 73.1810926751 58.8927334504 0.0
451 1 2.91533267506 62.6311334504 0.0
452 1 8.45175267506 61.9987334504 0.0
453 1 13.6869926751 59.7200334504 0.0
454 1 18.6777926751 62.5634334504 0.0
455 1 21.6534926751 61.8549334504 0.0
456 1 29.8901926751 60.8197334504 0.0
457 1 36.9672926751 62.1846334504 0.0
458 1 41.6618926751 64.5900334504 0.0
459 1 44.6108926751 63.9413334504 0.0
460 1 51.4338926751 59.8667334504 0.0
461 1 56.9946926751 61.4829334504 0.0
462 1 62.9301926751 60.7930334504 0.0
463 1 66.1298926751 64.8859334504 0.0
464 1 69.1516926751 64.7293334504 0.0
465 1 75.5828926751 63.2958334504 0.0
466 1 1.15203267506 66.9717334504 0.0
467 1 6.53346267506 66.6058334504 0.0
468 1 11.6822926751 66.3378334504 0.0
469 1 15.9989926751 67.0866334504 0.0
470 1 21.3583926751 66.7678334504 0.0
471 1 26.0731926751 65.7465334504 0.0
472 1 29.1058926751 65.8436334504 0.0
473 1 38.4107926751 67.7198334504 0.0
474 1 44.0258926751 68.9916334504 0.0
475 1 48.6720926751 67.9821334504 0.0
476 1 51.3728926751 66.6752334504 0.0
477 1 58.3923926751 66.3994334504 0.0
478 1 64.4958926751 70.5855334504 0.0
479 1 68.4158926751 68.8849334504 0.0
480 1 75.5549926751 68.9382334504 0.0
481 1 4.29837267506 71.3461334504 0.0
482 1 9.20856267506 71.2805334504 0.0
483 1 14.5594926751 69.7441334504 0.0
484 1 18.8786926751 71.7382334504 0.0
485 1 24.1605926751 70.5467334504 0.0
486 1 29.5925926751 68.8305334504 0.0
487 1 34.7518926751 71.6491334504 0.0
488 1 40.2121926751 72.3330334504 0.0
489 1 45.6665926751 73.7037334504 0.0
490 1 51.1455926751 73.4491334504 0.0
491 1 55.2527926751 71.0857334504 0.0
492 1 60.6695926751 69.0472334504 0.0
493 1 66.2805926751 72.9730334504 0.0
494 1 73.3279926751 72.6526334504 0.0
495 1 77.3493926751 71.3407334504 0.0
496 1 1.91150267506 75.7588334504 0.0
497 1 7.61863267506 73.8728334504 0.0
498 1 12.0060926751 76.9340334504 0.0
499 1 17.3004926751 76.2913334504 0.0
500 1 22.7207926751 75.3009334504 0.0
501 1 27.6422926751 74.9556334504 0.0
502 1 32.3077926751 76.0191334504 0.0
503 1 37.2741926751 76.6473334504 0.0
504 1 42.0701926751 77.5436334504 0.0
505 1 47.6777926751 77.7279334504 0.0
506 1 54.1479926751 73.9002334504 0.0
507 1 59.0836926751 76.2392334504 0.0
508 1 64.0006926751 76.6750334504 0.0
509 1 69.6543926751 76.9556334504 0.0
510 1 74.7341926751 75.3344334504 0.0
511 1 6.65512267506 78.5228334504 0.0
512 1 11.8660926751 79.9679334504 0.0
513 1 18.4193926751 79.0677334504 0.0
514 1 23.9363926751 78.0453334504 0.0
515 1 26.9518926751 77.9019334504 0.0
516 1 31.8542926751 79.0033334504 0.0
517 1 37.2418926751 79.6735334504 0.0
518 1 42.5568926751 80.5193334504 0.0
519 1 48.1684926751 80.7026334504 0.0
520 1 56.3112926751 79.2592334504 0.0
521 1 60.8241926751 78.6965334504 0.0
522 1 63.6817926751 79.6375334504 0.0
523 1 71.0851926751 79.5821334504 0.0
524 1 73.8209926751 78.2377334504 0.0
525 1 0.785682675056 78.5735334504 0.0
526 1 3.70971267506 79.4241334504 0.0
527 1 8.89653267506 80.5290334504 0.0
528 1 13.7887926751 0.156942450394 0.0
529 1 16.6673926751 81.5044334504 0.0
530 1 21.3769926751 79.6209334504 0.0
531 1 29.0329926751 80.0975334504 0.0
532 1 34.3825926751 80.6616334504 0.0
533 1 39.6874926751 81.4795334504 0.0
534 1 45.3116926751 81.8270334504 0.0
535 1 51.1425926751 81.4349334504 0.0
536 1 54.1793926751 81.3533334504 0.0
537 1 58.8518926751 80.9102334504 0.0
538 1 65.8375926751 81.7493334504 0.0
539 1 68.8802926751 81.6872334504 0.0
540 1 76.2968926751 79.9664334504 0.0
541 2 0.999762675056 0.495890450394 0.0
542 2 3.45200267506 1.07107345039 0.0
543 2 3.16359267506 80.8391334504 0.0
544 2 8.12286267506 81.8206334504 0.0
545 2 7.97228267506 2.20161345039 0.0
546 2 5.87503267506 1.42605345039 0.0
547 2 12.7939926751 3.66735345039 0.0
548 2 14.0102926751 1.66224345039 0.0
549 2 14.8974926751 4.53069345039 0.0
550 2 17.4887926751 0.603509450394 0.0
551 2 19.8207926751 1.11019345039 0.0
552 2 18.2677926751 3.22548345039 0.0
553 2 22.2793926751 1.43342345039 0.0
554 2 24.7006926751 2.52790345039 0.0
555 2 22.2574926751 3.78623345039 0.0
556 2 29.9286926751 1.76216345039 0.0
557 2 28.7898926751 81.5942334504 0.0
558 2 27.3904926751 1.78663345039 0.0
559 2 35.2706926751 2.29354345039 0.0
560 2 34.1775926751 82.1552334504 0.0
561 2 32.5850926751 2.04715345039 0.0
562 2 40.6495926751 3.25133345039 0.0
563 2 39.5705926751 0.823801450394 0.0
564 2 37.9917926751 2.72775345039 0.0
565 2 45.6749926751 3.52388345039 0.0
566 2 44.9102926751 1.13776345039 0.0
567 2 43.1797926751 3.35649345039 0.0
568 2 50.7992926751 3.12638345039 0.0
569 2 51.4831926751 0.745737450394 0.0
570 2 53.1156926751 3.09311345039 0.0
571 2 55.1672926751 0.368033450394 0.0
572 2 55.2985926751 2.78582345039 0.0
573 2 57.4992926751 2.20058345039 0.0
574 2 59.9396926751 2.02362345039 0.0
575 2 59.8900926751 82.0060334504 0.0
576 2 62.4081926751 1.35302345039 0.0
577 2 64.9049926751 0.782091450394 0.0
578 2 64.3885926751 3.26808345039 0.0
579 2 69.3271926751 0.969343450394 0.0
580 2 71.3210926751 2.48404345039 0.0
581 2 68.9188926751 3.62848345039 0.0
582 2 73.9263926751 1.68712345039 0.0
583 2 76.5293926751 1.04196345039 0.0
584 2 75.6043926751 81.3374334504 0.0
585 2 77.6000926751 5.37198345039 0.0
586 2 78.2419926751 2.76773345039 0.0
587 2 1.73306267506 4.50456345039 0.0
588 2 4.01369267506 3.50495345039 0.0
589 2 3.40364267506 6.25078345039 0.0
590 2 7.78277267506 4.87247345039 0.0
591 2 8.95808267506 6.73625345039 0.0
592 2 6.73794267506 7.63670345039 0.0
593 2 10.0347926751 3.74460345039 0.0
594 2 11.1560926751 5.74276345039 0.0
595 2 22.1810926751 6.14988345039 0.0
596 2 19.7868926751 4.96635345039 0.0
597 2 26.1154926751 4.23094345039 0.0
598 2 27.1618926751 6.49331345039 0.0
599 2 24.5927926751 6.50711345039 0.0
600 2 31.0641926751 4.11881345039 0.0
601 2 29.7155926751 6.44074345039 0.0
602 2 32.1966926751 6.52123345039 0.0
603 2 36.3040926751 4.60724345039 0.0
604 2 37.2847926751 7.01244345039 0.0
605 2 34.7432926751 6.74150345039 0.0
606 2 39.8769926751 7.45317345039 0.0
607 2 41.8421926751 8.58080345039 0.0
608 2 41.7103926751 5.65745345039 0.0
609 2 47.6919926751 8.63811345039 0.0
610 2 47.2013926751 5.90049345039 0.0
611 2 49.4784926751 7.25483345039 0.0
612 2 52.1876926751 7.93157345039 0.0
613 2 50.5972926751 5.57268345039 0.0
614 2 55.0336926751 5.28953345039 0.0
615 2 57.0708926751 7.26841345039 0.0
616 2 54.6089926751 7.66989345039 0.0
617 2 59.5683926751 4.29442345039 0.0
618 2 61.7621926751 6.21016345039 0.0
619 2 59.4178926751 6.68638345039 0.0
620 2 66.5239926751 4.75499345039 0.0
621 2 64.1247926751 5.86443345039 0.0
622 2 72.5087926751 4.30049345039 0.0
623 2 70.7710926751 6.65852345039 0.0
624 2 73.0583926751 6.81311345039 0.0
625 2 77.8768926751 7.77484345039 0.0
626 2 2.01304267506 8.39524345039 0.0
627 2 0.0185876750559 10.2338334504 0.0
628 2 6.65053267506 10.3469334504 0.0
629 2 7.84350267506 12.9988334504 0.0
630 2 8.88431267506 10.7844334504 0.0
631 2 11.4947926751 10.6122334504 0.0
632 2 13.7967926751 10.0342334504 0.0
633 2 12.2504926751 12.6342334504 0.0
634 2 15.9080926751 9.97373345039 0.0
635 2 18.2164926751 11.2265334504 0.0
636 2 15.9654926751 12.5848334504 0.0
637 2 22.7317926751 8.61193345039 0.0
638 2 23.7134926751 10.6678334504 0.0
639 2 21.0020926751 10.8056334504 0.0
640 2 28.2092926751 8.73862345039 0.0
641 2 29.2368926751 10.9633334504 0.0
642 2 26.5083926751 10.7373334504 0.0
643 2 33.4114926751 8.92952345039 0.0
644 2 34.4457926751 11.4994334504 0.0
645 2 31.9575926751 10.9536334504 0.0
646 2 38.3005926751 9.43985345039 0.0
647 2 39.3125926751 11.9032334504 0.0
648 2 36.8587926751 11.6425334504 0.0
649 2 43.5129926751 10.6089334504 0.0
650 2 41.4070926751 11.4122334504 0.0
651 2 48.6444926751 11.1698334504 0.0
652 2 50.8730926751 12.6661334504 0.0
653 2 48.0792926751 13.2429334504 0.0
654 2 54.1682926751 10.0422334504 0.0
655 2 56.3226926751 11.7935334504 0.0
656 2 53.6313926751 12.2951334504 0.0
657 2 59.0249926751 11.3359334504 0.0
658 2 59.2964926751 9.09390345039 0.0
659 2 61.6941926751 10.3041334504 0.0
660 2 64.4627926751 10.8840334504 0.0
661 2 63.2367926751 8.47418345039 0.0
662 2 69.0570926751 8.99648345039 0.0
663 2 69.4622926751 11.7366334504 0.0
664 2 67.1368926751 11.0026334504 0.0
665 2 73.8258926751 12.1040334504 0.0
666 2 76.0530926751 11.1773334504 0.0
667 2 74.2281926751 9.35908345039 0.0
668 2 1.72914267506 14.7894334504 0.0
669 2 78.1850926751 12.8288334504 0.0
670 2 77.1603926751 14.7668334504 0.0
671 2 7.23034267506 15.3662334504 0.0
672 2 9.90109267506 14.2232334504 0.0
673 2 12.3021926751 15.0815334504 0.0
674 2 17.1377926751 14.3667334504 0.0
675 2 14.5919926751 15.1690334504 0.0
676 2 19.0808926751 15.8103334504 0.0
677 2 21.0417926751 16.8728334504 0.0
678 2 18.8054926751 18.5014334504 0.0
679 2 24.7838926751 12.7325334504 0.0
680 2 25.6444926751 15.1051334504 0.0
681 2 23.2888926751 15.1464334504 0.0
682 2 30.9108926751 13.0631334504 0.0
683 2 32.5758926751 15.3149334504 0.0
684 2 30.3526926751 15.6429334504 0.0
685 2 36.1025926751 13.8959334504 0.0
686 2 37.4520926751 16.5265334504 0.0
687 2 35.0901926751 15.8797334504 0.0
688 2 40.7150926751 14.2092334504 0.0
689 2 42.0230926751 16.5900334504 0.0
690 2 39.6558926751 16.7409334504 0.0
691 2 46.2249926751 15.0725334504 0.0
692 2 47.4961926751 16.8776334504 0.0
693 2 44.6214926751 17.0431334504 0.0
694 2 52.9255926751 16.9180334504 0.0
695 2 52.1157926751 14.5387334504 0.0
696 2 50.3317926751 16.5047334504 0.0
697 2 57.7406926751 16.1465334504 0.0
698 2 58.0842926751 18.4251334504 0.0
699 2 55.4744926751 17.7190334504 0.0
700 2 60.1590926751 15.7304334504 0.0
701 2 62.7833926751 16.9048334504 0.0
702 2 60.4766926751 18.0356334504 0.0
703 2 65.8728926751 13.2406334504 0.0
704 2 67.5165926751 15.3618334504 0.0
705 2 65.1563926751 15.9444334504 0.0
706 2 71.7171926751 13.3031334504 0.0
707 2 69.6366926751 14.4761334504 0.0
708 2 78.2328926751 18.1079334504 0.0
709 2 2.41099267506 19.2973334504 0.0
710 2 2.24986267506 16.9061334504 0.0
711 2 6.30386267506 17.7230334504 0.0
712 2 7.25573267506 20.4642334504 0.0
713 2 4.96125267506 19.7242334504 0.0
714 2 12.9149926751 17.5731334504 0.0
715 2 13.8897926751 19.7596334504 0.0
716 2 11.6572926751 20.2983334504 0.0
717 2 18.5035926751 21.1954334504 0.0
718 2 16.5355926751 20.0282334504 0.0
719 2 24.5904926751 19.9619334504 0.0
720 2 23.4290926751 17.5517334504 0.0
721 2 25.7268926751 17.4941334504 0.0
722 2 28.0428926751 16.5144334504 0.0
723 2 33.5427926751 17.8151334504 0.0
724 2 34.3352926751 20.4109334504 0.0
725 2 31.8721926751 19.5449334504 0.0
726 2 38.3484926751 19.2022334504 0.0
727 2 38.8311926751 22.0751334504 0.0
728 2 36.6825926751 21.1958334504 0.0
729 2 43.3495926751 19.0237334504 0.0
730 2 45.1674926751 20.9602334504 0.0
731 2 42.9347926751 21.7400334504 0.0
732 2 47.7848926751 21.0191334504 0.0
733 2 50.5002926751 20.2242334504 0.0
734 2 48.9411926751 18.6486334504 0.0
735 2 52.1684926751 21.6949334504 0.0
736 2 53.7480926751 23.5067334504 0.0
737 2 51.4451926751 24.4223334504 0.0
738 2 60.7617926751 23.1002334504 0.0
739 2 59.5576926751 20.6042334504 0.0
740 2 58.6782926751 23.2386334504 0.0
741 2 64.6500926751 18.6667334504 0.0
742 2 64.6394926751 21.5909334504 0.0
743 2 66.5724926751 20.3826334504 0.0
744 2 69.6104926751 17.2408334504 0.0
745 2 71.3994926751 19.5796334504 0.0
746 2 69.0639926751 19.7577334504 0.0
747 2 76.1191926751 19.3970334504 0.0
748 2 76.0520926751 16.6941334504 0.0
749 2 76.3745926751 22.0069334504 0.0
750 2 0.0847506750559 24.1622334504 0.0
751 2 76.1778926751 24.4849334504 0.0
752 2 2.43296267506 24.1734334504 0.0
753 2 4.96856267506 23.7839334504 0.0
754 2 3.48382267506 21.7423334504 0.0
755 2 9.46052267506 21.7068334504 0.0
756 2 7.27177267506 23.1614334504 0.0
757 2 14.9919926751 22.0630334504 0.0
758 2 16.0186926751 24.4581334504 0.0
759 2 13.4443926751 24.1044334504 0.0
760 2 20.3894926751 22.7407334504 0.0
761 2 18.2008926751 23.9578334504 0.0
762 2 25.3281926751 22.6426334504 0.0
763 2 27.2259926751 24.5772334504 0.0
764 2 24.6339926751 24.9341334504 0.0
765 2 30.1354926751 21.1849334504 0.0
766 2 31.7392926751 23.1241334504 0.0
767 2 29.4767926751 23.9143334504 0.0
768 2 34.1943926751 26.8298334504 0.0
769 2 32.8097926751 25.1996334504 0.0
770 2 31.9437926751 28.0077334504 0.0
771 2 40.9582926751 23.3825334504 0.0
772 2 39.0122926751 24.9244334504 0.0
773 2 45.7471926751 25.8197334504 0.0
774 2 47.6697926751 27.7750334504 0.0
775 2 45.0331926751 28.1454334504 0.0
776 2 52.4170926751 26.5344334504 0.0
777 2 49.9692926751 26.8974334504 0.0
778 2 56.5479926751 24.3136334504 0.0
779 2 54.5973926751 25.6069334504 0.0
780 2 63.0131926751 23.6788334504 0.0
781 2 61.0364926751 25.6715334504 0.0
782 2 68.0776926751 22.3429334504 0.0
783 2 69.3259926751 24.6843334504 0.0
784 2 67.0101926751 24.8988334504 0.0
785 2 73.9927926751 24.6639334504 0.0
786 2 72.5766926751 22.1682334504 0.0
787 2 71.7041926751 24.5793334504 0.0