# input file

1350 atoms
2 atom types

0.0 78.2348497413 xlo xhi
0.0 81.1384273041 ylo yhi
-10.0 10.0 zlo zhi
0.0 0.0 0.0 xy xz yz

Masses

1 28.0855 #Si
2 15.9994 #O

Atoms

1 1 3.39482264749 1.85988365204 0.0
2 1 8.11386264749 1.15932365204 0.0
3 1 13.0462626475 0.244189652044 0.0
4 1 18.5504626475 0.950933652044 0.0
5 1 23.9191626475 0.870163652044 0.0
6 1 29.5148626475 1.12757365204 0.0
7 1 34.5705626475 1.30772365204 0.0
8 1 39.3052626475 0.279541652044 0.0
9 1 47.5880626475 0.724863652044 0.0
10 1 50.5530626475 1.20043365204 0.0
11 1 55.9679626475 3.25904365204 0.0
12 1 61.0736626475 3.43229365204 0.0
13 1 65.9458626475 4.91348365204 0.0
14 1 70.8834626475 2.42890365204 0.0
15 1 76.2908626475 2.15389365204 0.0
16 1 1.03709264749 6.37509365204 0.0
17 1 6.24657264749 6.33701365204 0.0
18 1 12.1162626475 5.04731365204 0.0
19 1 15.0829626475 4.63924365204 0.0
20 1 19.3504626475 3.90415365204 0.0
21 1 26.4332626475 5.13601365204 0.0
22 1 31.8721626475 5.83051365204 0.0
23 1 37.0224626475 5.55080365204 0.0
24 1 41.3414626475 4.51132365204 0.0
25 1 46.2512626475 4.81730365204 0.0
26 1 51.6115626475 5.70861365204 0.0
27 1 57.5974626475 7.88575365204 0.0
28 1 64.7150626475 7.66769365204 0.0
29 1 71.2370626475 6.74708365204 0.0
30 1 74.2445626475 6.57478365204 0.0
31 1 3.34564264749 10.856813652 0.0
32 1 8.38887264749 11.460013652 0.0
33 1 13.3365626475 10.216513652 0.0
34 1 17.8314626475 11.795613652 0.0
35 1 23.0840626475 9.28074365204 0.0
36 1 28.7644626475 9.70001365204 0.0
37 1 34.4919626475 10.237913652 0.0
38 1 44.1735626475 10.903413652 0.0
39 1 42.0348626475 8.80115365204 0.0
40 1 49.3032626475 9.41851365204 0.0
41 1 54.8428626475 12.520713652 0.0
42 1 59.5287626475 10.186313652 0.0
43 1 66.4867626475 12.268913652 0.0
44 1 71.7708626475 12.072413652 0.0
45 1 0.322208647492 10.658913652 0.0
46 1 0.634502647492 16.094513652 0.0
47 1 5.91464264749 15.835413652 0.0
48 1 11.0959626475 15.512213652 0.0
49 1 16.4866626475 14.554513652 0.0
50 1 21.5993626475 14.332113652 0.0
51 1 26.1795626475 13.518813652 0.0
52 1 31.5135626475 13.895913652 0.0
53 1 36.0318626475 15.267313652 0.0
54 1 39.5487626475 13.220813652 0.0
55 1 47.7254626475 14.431813652 0.0
56 1 52.9835626475 14.913713652 0.0
57 1 57.9571626475 15.698113652 0.0
58 1 62.9598626475 15.528313652 0.0
59 1 68.5151626475 16.482313652 0.0
60 1 73.8814626475 16.424713652 0.0
61 1 3.09859264749 20.460213652 0.0
62 1 8.01598264749 20.307913652 0.0
63 1 14.0760626475 19.432913652 0.0
64 1 19.5721626475 19.006713652 0.0
65 1 25.9381626475 18.306713652 0.0
66 1 28.9345626475 18.040413652 0.0
67 1 33.5204626475 21.460813652 0.0
68 1 40.9968626475 18.285813652 0.0
69 1 44.0166626475 18.203913652 0.0
70 1 49.3898626475 19.068913652 0.0
71 1 54.7589626475 19.906513652 0.0
72 1 60.2343626475 20.265713652 0.0
73 1 65.4880626475 20.010913652 0.0
74 1 70.9147626475 20.748913652 0.0
75 1 76.1312626475 20.899113652 0.0
76 1 78.0155626475 25.065013652 0.0
77 1 5.78950264749 25.187613652 0.0
78 1 9.78546264749 22.759913652 0.0
79 1 16.6179626475 23.401613652 0.0
80 1 21.5020626475 23.711713652 0.0
81 1 26.3373626475 23.875313652 0.0
82 1 31.9011626475 24.018313652 0.0
83 1 37.2593626475 24.578913652 0.0
84 1 41.8161626475 22.763613652 0.0
85 1 46.3848626475 25.055313652 0.0
86 1 51.9244626475 23.826813652 0.0
87 1 57.2670626475 24.345713652 0.0
88 1 64.4561626475 24.186613652 0.0
89 1 67.4440626475 24.530013652 0.0
90 1 72.5989626475 25.175313652 0.0
91 1 1.60073264749 27.443313652 0.0
92 1 9.19946264749 28.614613652 0.0
93 1 14.3186626475 27.949713652 0.0
94 1 19.0641626475 28.246313652 0.0
95 1 23.2832626475 30.709913652 0.0
96 1 28.6391626475 28.164313652 0.0
97 1 34.4621626475 28.620213652 0.0
98 1 41.8877626475 27.769313652 0.0
99 1 44.8912626475 27.667713652 0.0
100 1 49.4517626475 28.415913652 0.0
101 1 54.6928626475 28.462913652 0.0
102 1 59.3172626475 29.242113652 0.0
103 1 63.9536626475 29.177113652 0.0
104 1 69.4605626475 29.345213652 0.0
105 1 75.3946626475 29.407613652 0.0
106 1 0.327489647492 33.004513652 0.0
107 1 4.71963264749 31.009313652 0.0
108 1 11.7797626475 32.826413652 0.0
109 1 16.6856626475 33.005013652 0.0
110 1 21.6104626475 33.243913652 0.0
111 1 26.2553626475 33.086313652 0.0
112 1 31.6102626475 32.183813652 0.0
113 1 36.7678626475 32.788813652 0.0
114 1 41.4567626475 33.030413652 0.0
115 1 47.2536626475 32.913213652 0.0
116 1 52.5531626475 32.835113652 0.0
117 1 57.3878626475 33.640413652 0.0
118 1 61.8282626475 34.093713652 0.0
119 1 67.0151626475 33.421213652 0.0
120 1 71.0223626475 31.914213652 0.0
121 1 2.99516264749 36.710313652 0.0
122 1 8.28135264749 36.928913652 0.0
123 1 13.5867626475 37.638913652 0.0
124 1 18.7426626475 37.926413652 0.0
125 1 23.6134626475 38.059713652 0.0
126 1 29.0931626475 36.809513652 0.0
127 1 34.5404626475 36.888013652 0.0
128 1 39.7406626475 37.660413652 0.0
129 1 43.0683626475 35.583013652 0.0
130 1 49.9774626475 37.242413652 0.0
131 1 54.8537626475 37.916013652 0.0
132 1 59.7496626475 38.881213652 0.0
133 1 65.0102626475 38.152513652 0.0
134 1 70.4300626475 37.575613652 0.0
135 1 75.6800626475 37.384813652 0.0
136 1 78.1366626475 41.219413652 0.0
137 1 5.18901264749 41.313413652 0.0
138 1 10.0506626475 41.652513652 0.0
139 1 15.4005626475 42.337513652 0.0
140 1 21.3893626475 42.833813652 0.0
141 1 28.5693626475 40.686013652 0.0
142 1 31.5445626475 41.044313652 0.0
143 1 37.1350626475 41.652013652 0.0
144 1 43.8862626475 41.324313652 0.0
145 1 46.9037626475 41.426213652 0.0
146 1 51.9510626475 42.248213652 0.0
147 1 56.3532626475 44.980413652 0.0
148 1 64.3241626475 42.411513652 0.0
149 1 67.3551626475 42.105213652 0.0
150 1 72.8469626475 42.003813652 0.0
151 1 1.68403264749 45.619613652 0.0
152 1 7.02325264749 46.284313652 0.0
153 1 12.1999626475 46.318013652 0.0
154 1 16.7431626475 45.049313652 0.0
155 1 25.8850626475 46.659013652 0.0
156 1 28.5608626475 45.324413652 0.0
157 1 34.3288626475 45.372613652 0.0
158 1 38.7584626475 48.290113652 0.0
159 1 43.5440626475 46.804613652 0.0
160 1 48.9223626475 46.487613652 0.0
161 1 54.2184626475 47.138413652 0.0
162 1 59.5601626475 48.164713652 0.0
163 1 64.0216626475 47.252613652 0.0
164 1 69.6352626475 46.350513652 0.0
165 1 76.8861626475 45.815513652 0.0
166 1 76.1552626475 50.940113652 0.0
167 1 3.30229264749 50.254113652 0.0
168 1 10.5932626475 50.752413652 0.0
169 1 15.1615626475 50.527013652 0.0
170 1 19.7887626475 51.033213652 0.0
171 1 23.3041626475 49.873813652 0.0
172 1 31.0216626475 49.101613652 0.0
173 1 36.6873626475 50.432513652 0.0
174 1 41.0441626475 52.097513652 0.0
175 1 46.0389626475 51.046713652 0.0
176 1 50.7716626475 51.257813652 0.0
177 1 56.3505626475 51.834413652 0.0
178 1 62.4323626475 52.628613652 0.0
179 1 67.2013626475 50.829813652 0.0
180 1 71.2254626475 53.585713652 0.0
181 1 0.818672647492 54.954513652 0.0
182 1 5.56070264749 55.191213652 0.0
183 1 8.50454264749 52.888513652 0.0
184 1 17.0771626475 55.653613652 0.0
185 1 23.7773626475 55.279213652 0.0
186 1 30.5242626475 53.639113652 0.0
187 1 33.4908626475 53.344413652 0.0
188 1 38.7780626475 57.490713652 0.0
189 1 43.8424626475 56.142313652 0.0
190 1 47.5361626475 58.668013652 0.0
191 1 55.0043626475 55.179413652 0.0
192 1 57.8915626475 54.399413652 0.0
193 1 65.0284626475 56.245013652 0.0
194 1 69.9414626475 56.314213652 0.0
195 1 74.4663626475 56.232213652 0.0
196 1 77.1798626475 60.350013652 0.0
197 1 4.06257264749 59.725413652 0.0
198 1 9.10172264749 58.842013652 0.0
199 1 13.8061626475 58.481013652 0.0
200 1 18.4629626475 58.349613652 0.0
201 1 25.9761626475 59.083713652 0.0
202 1 30.9004626475 59.172213652 0.0
203 1 36.5952626475 59.600913652 0.0
204 1 40.8381626475 61.231413652 0.0
205 1 46.4398626475 61.494013652 0.0
206 1 51.8958626475 61.167513652 0.0
207 1 56.6614626475 62.594613652 0.0
208 1 62.2009626475 60.765013652 0.0
209 1 67.3473626475 61.022613652 0.0
210 1 72.3152626475 61.238213652 0.0
211 1 2.22966264749 64.479213652 0.0
212 1 7.37436264749 63.802013652 0.0
213 1 12.1486626475 63.499413652 0.0
214 1 16.9629626475 63.241213652 0.0
215 1 22.0707626475 62.956113652 0.0
216 1 27.7422626475 63.765713652 0.0
217 1 32.9142626475 63.277613652 0.0
218 1 35.0689626475 67.354313652 0.0
219 1 43.5840626475 65.480213652 0.0
220 1 48.1416626475 64.002113652 0.0
221 1 54.8445626475 67.218613652 0.0
222 1 60.2933626475 65.393913652 0.0
223 1 65.4930626475 65.418213652 0.0
224 1 70.2280626475 65.809013652 0.0
225 1 75.4802626475 65.456513652 0.0
226 1 1.91915264749 68.891713652 0.0
227 1 4.91251264749 68.621113652 0.0
228 1 9.97836264749 68.488613652 0.0
229 1 15.0425626475 68.175613652 0.0
230 1 19.7864626475 67.704113652 0.0
231 1 24.9230626475 67.359713652 0.0
232 1 30.3209626475 68.104913652 0.0
233 1 38.0458626475 67.744913652 0.0
234 1 41.5106626475 69.833013652 0.0
235 1 47.5469626475 69.269613652 0.0
236 1 53.0185626475 69.601013652 0.0
237 1 57.9304626475 70.106913652 0.0
238 1 62.9140626475 69.904513652 0.0
239 1 68.2476626475 70.478913652 0.0
240 1 73.4614626475 70.064413652 0.0
241 1 2.39547264749 74.085013652 0.0
242 1 7.64774264749 73.192213652 0.0
243 1 13.0587626475 72.946913652 0.0
244 1 18.2723626475 72.741313652 0.0
245 1 22.9160626475 72.059713652 0.0
246 1 27.3131626475 74.268313652 0.0
247 1 32.8421626475 72.666713652 0.0
248 1 38.0378626475 73.585313652 0.0
249 1 43.0836626475 72.354613652 0.0
250 1 49.8860626475 73.659613652 0.0
251 1 55.4991626475 74.500813652 0.0
252 1 61.7851626475 74.313413652 0.0
253 1 64.2217626475 72.591213652 0.0
254 1 70.6951626475 74.750113652 0.0
255 1 75.6779626475 74.770313652 0.0
256 1 0.801372647492 3.38025365204 0.0
257 1 6.02279264749 3.32503365204 0.0
258 1 10.8772626475 2.31455365204 0.0
259 1 15.6554626475 1.69936365204 0.0
260 1 22.3559626475 3.51411365204 0.0
261 1 26.6651626475 2.12645365204 0.0
262 1 31.9834626475 2.83585365204 0.0
263 1 37.3027626475 2.54124365204 0.0
264 1 41.9958626475 1.59411365204 0.0
265 1 44.9504626475 2.11639365204 0.0
266 1 52.9547626475 3.03612365204 0.0
267 1 58.4555626475 4.98441365204 0.0
268 1 64.0012626475 2.61028365204 0.0
269 1 68.9721626475 4.74657365204 0.0
270 1 73.6721626475 3.61460365204 0.0
271 1 3.65634264749 7.86246365204 0.0
272 1 8.39702264749 8.44980365204 0.0
273 1 11.3549626475 7.94584365204 0.0
274 1 17.5124626475 6.39343365204 0.0
275 1 23.6361626475 6.27378365204 0.0
276 1 28.9980626475 6.71056365204 0.0
277 1 34.5324626475 7.23382365204 0.0
278 1 39.6508626475 6.98090365204 0.0
279 1 43.7001626475 6.33162365204 0.0
280 1 48.7312626475 6.47918365204 0.0
281 1 52.1955626475 8.63902365204 0.0
282 1 62.5087626475 9.74071365204 0.0
283 1 67.1860626475 9.36868365204 0.0
284 1 70.1821626475 9.53221365204 0.0
285 1 76.8473626475 8.15055365204 0.0
286 1 77.4323626475 13.441113652 0.0
287 1 5.67875264749 12.809013652 0.0
288 1 11.2524626475 12.467013652 0.0
289 1 16.2417626475 9.21072365204 0.0
290 1 20.8628626475 11.396913652 0.0
291 1 25.8522626475 10.529913652 0.0
292 1 31.5459626475 10.900313652 0.0
293 1 36.6780626475 12.327313652 0.0
294 1 42.5479626475 13.406713652 0.0
295 1 47.1302626475 11.486913652 0.0
296 1 55.0544626475 9.51931365204 0.0
297 1 57.8509626475 12.702513652 0.0
298 1 63.5120626475 12.579613652 0.0
299 1 69.1795626475 13.578113652 0.0
300 1 74.4242626475 13.479913652 0.0
301 1 3.34116264749 17.438113652 0.0
302 1 8.58622264749 17.291413652 0.0
303 1 14.0098626475 16.383613652 0.0
304 1 19.1165626475 16.032913652 0.0
305 1 24.2351626475 15.801413652 0.0
306 1 28.7601626475 15.044813652 0.0
307 1 33.2403626475 16.348213652 0.0
308 1 38.8890626475 16.143113652 0.0
309 1 44.8539626475 15.332113652 0.0
310 1 50.2080626475 16.145613652 0.0
311 1 55.2121626475 16.933713652 0.0
312 1 60.5105626475 17.270213652 0.0
313 1 65.5659626475 17.022813652 0.0
314 1 71.2096626475 17.779913652 0.0
315 1 76.4807626475 17.919813652 0.0
316 1 0.611602647492 22.173613652 0.0
317 1 5.59756264749 22.146613652 0.0
318 1 12.7305626475 22.173413652 0.0
319 1 16.9148626475 20.416713652 0.0
320 1 22.0161626475 20.767813652 0.0
321 1 25.0032626475 21.158413652 0.0
322 1 31.7980626475 18.985713652 0.0
323 1 36.5552626475 21.658713652 0.0
324 1 39.4709626475 20.865513652 0.0
325 1 46.4742626475 19.953613652 0.0
326 1 51.8726626475 20.811613652 0.0
327 1 57.4165626475 21.345413652 0.0
328 1 62.9424626475 21.589213652 0.0
329 1 68.0406626475 21.595013652 0.0
330 1 73.4700626475 22.305213652 0.0
331 1 4.54269264749 27.963713652 0.0
332 1 8.75980264749 25.613313652 0.0
333 1 14.0360626475 24.914413652 0.0
334 1 18.9443626475 25.261013652 0.0
335 1 23.8477626475 25.570613652 0.0
336 1 29.0764626475 25.159613652 0.0
337 1 34.4456626475 25.632413652 0.0
338 1 40.1916626475 25.290713652 0.0
339 1 44.8322626475 22.485013652 0.0
340 1 49.3673626475 25.414713652 0.0
341 1 54.4710626475 25.456913652 0.0
342 1 59.5919626475 26.258713652 0.0
343 1 62.5820626475 26.507413652 0.0
344 1 69.8338626475 26.363213652 0.0
345 1 75.3229626475 26.415613652 0.0
346 1 0.0818026474919 30.021313652 0.0
347 1 7.70776264749 31.250013652 0.0
348 1 11.9520626475 29.811613652 0.0
349 1 16.5916626475 29.964913652 0.0
350 1 22.0590626475 27.992813652 0.0
351 1 26.2476626475 30.080713652 0.0
352 1 31.4907626475 29.197113652 0.0
353 1 37.2369626475 29.838213652 0.0
354 1 40.2316626475 30.267113652 0.0
355 1 46.8606626475 29.933013652 0.0
356 1 52.0641626475 29.880813652 0.0
357 1 56.7152626475 30.698813652 0.0
358 1 61.6651626475 31.101813652 0.0
359 1 66.6733626475 30.437313652 0.0
360 1 74.0048626475 32.056913652 0.0
361 1 3.24590264749 33.681413652 0.0
362 1 8.99641264749 33.980513652 0.0
363 1 14.1616626475 34.664013652 0.0
364 1 19.0587626475 34.885413652 0.0
365 1 23.9825626475 35.069113652 0.0
366 1 29.1340626475 33.838213652 0.0
367 1 34.0267626475 33.942613652 0.0
368 1 39.0192626475 34.751113652 0.0
369 1 46.0427626475 35.660813652 0.0
370 1 49.9285626475 34.246213652 0.0
371 1 54.6970626475 34.925713652 0.0
372 1 59.4191626475 35.872313652 0.0
373 1 64.6072626475 35.191613652 0.0
374 1 69.7577626475 34.636413652 0.0
375 1 75.8937626475 34.386813652 0.0
376 1 0.348743647492 38.232013652 0.0
377 1 5.57169264749 38.303813652 0.0
378 1 10.7373626475 38.700813652 0.0
379 1 16.0695626475 39.375813652 0.0
380 1 21.1360626475 39.799213652 0.0
381 1 26.5935626475 38.440713652 0.0
382 1 31.8053626475 38.076513652 0.0
383 1 36.9423626475 38.676813652 0.0
384 1 42.5873626475 38.574713652 0.0
385 1 47.2367626475 38.426813652 0.0
386 1 52.1776626475 39.260213652 0.0
387 1 56.9628626475 40.041813652 0.0
388 1 62.5926626475 39.937413652 0.0
389 1 67.8496626475 39.140013652 0.0
390 1 73.1039626475 38.984213652 0.0
391 1 2.51109264749 42.718413652 0.0
392 1 7.48914264749 43.275013652 0.0
393 1 12.5510626475 43.326413652 0.0
394 1 19.7384626475 45.366813652 0.0
395 1 24.0288626475 44.289013652 0.0
396 1 26.7115626475 42.991813652 0.0
397 1 34.2245626475 42.392513652 0.0
398 1 39.4439626475 43.568813652 0.0
399 1 42.4379626475 43.978013652 0.0
400 1 49.1671626475 43.460213652 0.0
401 1 54.9778626475 42.321913652 0.0
402 1 59.3889626475 45.177313652 0.0
403 1 62.3811626475 44.718613652 0.0
404 1 70.1157626475 43.367213652 0.0
405 1 75.7065626475 43.028213652 0.0
406 1 74.9677626475 48.163413652 0.0
407 1 4.16625264749 47.354913652 0.0
408 1 9.61806264749 47.878113652 0.0
409 1 14.9702626475 47.502613652 0.0
410 1 20.8058626475 48.204013652 0.0
411 1 26.2714626475 49.625713652 0.0
412 1 31.4346626475 46.149713652 0.0
413 1 37.3145626475 45.685313652 0.0
414 1 41.6181626475 49.131613652 0.0
415 1 46.3069626475 48.022813652 0.0
416 1 51.3807626475 48.267013652 0.0
417 1 56.6558626475 48.881613652 0.0
418 1 62.1734626475 49.630413652 0.0
419 1 66.9813626475 47.820813652 0.0
420 1 71.9370626475 48.300213652 0.0
421 1 0.775192647492 51.925413652 0.0
422 1 5.58698264749 52.205813652 0.0
423 1 12.9863626475 52.605413652 0.0
424 1 17.2869626475 52.651813652 0.0
425 1 22.2820626475 52.679213652 0.0
426 1 28.8462626475 51.154413652 0.0
427 1 33.7207626475 50.362313652 0.0
428 1 36.4587626475 53.412713652 0.0
429 1 43.8432626475 53.126413652 0.0
430 1 48.2965626475 53.036513652 0.0
431 1 53.4602626475 52.618713652 0.0
432 1 60.7980626475 55.167613652 0.0
433 1 65.3700626475 53.243413652 0.0
434 1 70.2056626475 50.772613652 0.0
435 1 74.2107626475 53.247713652 0.0
436 1 77.2280626475 57.342913652 0.0
437 1 3.11579264749 56.881513652 0.0
438 1 8.46865264749 55.893113652 0.0
439 1 14.0640626475 55.464413652 0.0
440 1 23.1288626475 58.203813652 0.0
441 1 26.6323626475 56.165313652 0.0
442 1 29.6057626475 56.469313652 0.0
443 1 39.2231626475 54.513313652 0.0
444 1 41.6736626475 58.310513652 0.0
445 1 46.8422626475 55.734613652 0.0
446 1 50.5244626475 58.524713652 0.0
447 1 53.3785626475 57.661513652 0.0
448 1 62.3977626475 57.728913652 0.0
449 1 67.4572626475 58.006913652 0.0
450 1 72.2376626475 58.235313652 0.0
451 1 1.68959264749 61.541413652 0.0
452 1 6.85417264749 60.836213652 0.0
453 1 11.5993626475 60.519313652 0.0
454 1 16.2016626475 60.315313652 0.0
455 1 20.8794626475 60.167113652 0.0
456 1 28.4001626475 60.842513652 0.0
457 1 33.6615626475 60.351513652 0.0
458 1 37.9643626475 62.290513652 0.0
459 1 43.5831626475 62.478913652 0.0
460 1 51.1545626475 64.044913652 0.0
461 1 54.7591626475 60.301613652 0.0
462 1 59.6858626475 62.453413652 0.0
463 1 64.7135626475 62.481913652 0.0
464 1 69.7658626475 62.826413652 0.0
465 1 75.0516626475 62.475913652 0.0
466 1 0.0549276474919 66.535113652 0.0
467 1 4.99826264749 65.625313652 0.0
468 1 9.87526264749 65.468413652 0.0
469 1 14.6595626475 65.172313652 0.0
470 1 19.6083626475 64.693013652 0.0
471 1 24.7719626475 64.350113652 0.0
472 1 30.4637626475 65.080313652 0.0
473 1 35.7158626475 64.380613652 0.0
474 1 40.9362626475 66.904713652 0.0
475 1 46.4254626475 66.475113652 0.0
476 1 54.1621626475 64.319313652 0.0
477 1 57.8430626475 67.129013652 0.0
478 1 62.8905626475 66.904813652 0.0
479 1 67.7219626475 67.481313652 0.0
480 1 72.9580626475 67.095913652 0.0
481 1 0.692002647492 71.613713652 0.0
482 1 7.48323264749 70.184213652 0.0
483 1 12.6155626475 69.956613652 0.0
484 1 17.6061626475 69.778713652 0.0
485 1 22.4530626475 69.086513652 0.0
486 1 27.4317626475 69.028913652 0.0
487 1 32.9652626475 69.594113652 0.0
488 1 38.6450626475 70.664813652 0.0
489 1 46.0258626475 71.856613652 0.0
490 1 50.2073626475 70.656613652 0.0
491 1 55.3062626475 71.525013652 0.0
492 1 60.4766626475 71.637513652 0.0
493 1 67.1131626475 73.289213652 0.0
494 1 70.9696626475 71.743913652 0.0
495 1 75.9289626475 71.782613652 0.0
496 1 0.147182647492 76.063613652 0.0
497 1 5.25259264749 75.024313652 0.0
498 1 10.4101626475 74.398013652 0.0
499 1 15.7355626475 74.374513652 0.0
500 1 20.8801626475 74.306413652 0.0
501 1 25.9002626475 71.630813652 0.0
502 1 30.3241626475 74.389213652 0.0
503 1 35.2075626475 74.590613652 0.0
504 1 40.9245626475 74.437913652 0.0
505 1 47.0451626475 74.673113652 0.0
506 1 52.5494626475 75.061013652 0.0
507 1 57.6688626475 76.584113652 0.0
508 1 60.6394626475 77.071913652 0.0
509 1 68.0415626475 76.168313652 0.0
510 1 73.1768626475 76.416813652 0.0
511 1 5.43680264749 78.033713652 0.0
512 1 10.5456626475 77.404313652 0.0
513 1 16.2191626475 77.364513652 0.0
514 1 21.2864626475 77.337513652 0.0
515 1 26.3618626475 77.135713652 0.0
516 1 31.0889626475 79.700513652 0.0
517 1 36.2952626475 77.419513652 0.0
518 1 41.9967626475 77.234313652 0.0
519 1 47.3577626475 78.879413652 0.0
520 1 52.9828626475 78.015113652 0.0
521 1 57.1273626475 0.499343652044 0.0
522 1 62.2473626475 79.610013652 0.0
523 1 67.5204626475 79.173013652 0.0
524 1 72.9373626475 79.404213652 0.0
525 1 0.291082647492 79.052413652 0.0
526 1 3.14841264749 79.998413652 0.0
527 1 8.17705264749 79.280713652 0.0
528 1 13.3840626475 78.406613652 0.0
529 1 18.7650626475 79.041713652 0.0
530 1 23.8867626475 78.935313652 0.0
531 1 29.3764626475 77.250213652 0.0
532 1 34.0940626475 79.486013652 0.0
533 1 39.1840626475 78.407613652 0.0
534 1 45.0393626475 76.952013652 0.0
535 1 50.3175626475 79.348613652 0.0
536 1 55.8279626475 78.946713652 0.0
537 1 60.1201626475 0.590353652044 0.0
538 1 64.9851626475 80.866913652 0.0
539 1 70.1791626475 80.634513652 0.0
540 1 75.8045626475 80.337913652 0.0
541 2 3.31864264749 0.356210652044 0.0
542 2 4.68722264749 2.62493365204 0.0
543 2 2.08938264749 2.60783365204 0.0
544 2 8.13221264749 80.790913652 0.0
545 2 9.48338264749 1.77943365204 0.0
546 2 7.07332264749 2.24438365204 0.0
547 2 13.1878626475 79.898313652 0.0
548 2 14.3825626475 0.923453652044 0.0
549 2 11.9196626475 1.23007365204 0.0
550 2 18.7660626475 80.571913652 0.0
551 2 19.0014626475 2.40496365204 0.0
552 2 17.0664626475 1.22590365204 0.0
553 2 23.8519626475 80.472413652 0.0
554 2 25.3367626475 1.41744365204 0.0
555 2 23.0472626475 2.13957365204 0.0
556 2 30.2436626475 80.945413652 0.0
557 2 30.6976626475 2.06336365204 0.0
558 2 28.0716626475 1.56055365204 0.0
559 2 34.4210626475 80.955213652 0.0
560 2 35.9260626475 1.93492365204 0.0
561 2 33.2932626475 2.09955365204 0.0
562 2 39.1950626475 79.922613652 0.0
563 2 38.3198626475 1.42551365204 0.0
564 2 40.7232626475 0.809323652044 0.0
565 2 46.2429626475 1.36462365204 0.0
566 2 47.3462626475 80.379813652 0.0
567 2 49.0235626475 1.19897365204 0.0
568 2 50.5615626475 80.834213652 0.0
569 2 51.7845626475 2.07031365204 0.0
570 2 56.4946626475 1.84910365204 0.0
571 2 57.1669626475 4.17644365204 0.0
572 2 54.4561626475 3.16690365204 0.0
573 2 60.5726626475 2.01422365204 0.0
574 2 62.5688626475 3.13330365204 0.0
575 2 59.8393626475 4.33940365204 0.0
576 2 65.0123626475 3.73424365204 0.0
577 2 67.4624626475 4.82855365204 0.0
578 2 65.2349626475 6.25058365204 0.0
579 2 70.4754626475 0.980123652044 0.0
580 2 72.2934626475 2.99312365204 0.0
581 2 69.8280626475 3.50153365204 0.0
582 2 76.0594626475 0.676813652044 0.0
583 2 77.6655626475 2.76124365204 0.0
584 2 74.9740626475 2.86705365204 0.0
585 2 0.922452647492 4.87803365204 0.0
586 2 2.35532264749 7.09961365204 0.0
587 2 78.0220626475 7.20343365204 0.0
588 2 6.19274264749 4.82626365204 0.0
589 2 7.36243264749 7.35421365204 0.0
590 2 4.93885264749 7.08342365204 0.0
591 2 11.7028626475 6.48297365204 0.0
592 2 11.3912626475 3.72855365204 0.0
593 2 13.6102626475 4.89943365204 0.0
594 2 15.4056626475 3.17711365204 0.0
595 2 16.2504626475 5.56786365204 0.0
596 2 20.8616626475 3.74598365204 0.0
597 2 18.5501626475 5.22850365204 0.0
598 2 26.5588626475 3.63250365204 0.0
599 2 27.7265626475 5.91123365204 0.0
600 2 25.0803626475 5.79606365204 0.0
601 2 31.9557626475 4.33159365204 0.0
602 2 33.1802626475 6.56922365204 0.0
603 2 30.4398626475 6.28037365204 0.0
604 2 37.2054626475 4.04900365204 0.0
605 2 38.2587626475 6.41505365204 0.0
606 2 35.7594626475 6.36767365204 0.0
607 2 41.5642626475 3.04015365204 0.0
608 2 42.6051626475 5.31389365204 0.0
609 2 40.3839626475 5.65850365204 0.0
610 2 45.6172626475 3.46825365204 0.0
611 2 47.5276626475 5.59366365204 0.0
612 2 45.0529626475 5.72098365204 0.0
613 2 52.3126626475 4.39823365204 0.0
614 2 52.0511626475 7.14076365204 0.0
615 2 50.1210626475 5.91802365204 0.0
616 2 58.0503626475 6.44754365204 0.0
617 2 58.6226626475 8.98877365204 0.0
618 2 56.2721626475 8.62808365204 0.0
619 2 65.9929626475 8.47036365204 0.0
620 2 63.5103626475 8.59920365204 0.0
621 2 70.7525626475 8.15927365204 0.0
622 2 70.0786626475 5.78033365204 0.0
623 2 72.7412626475 6.76148365204 0.0
624 2 74.0448626475 5.07302365204 0.0
625 2 75.4920626475 7.44676365204 0.0
626 2 3.60307264749 9.36406365204 0.0
627 2 4.46164264749 11.887713652 0.0
628 2 1.82919264749 10.817213652 0.0
629 2 8.30005264749 9.95161365204 0.0
630 2 9.80816264749 11.980813652 0.0
631 2 7.04719264749 12.157713652 0.0
632 2 12.3675626475 9.05051365204 0.0
633 2 14.7805626475 9.71771365204 0.0
634 2 12.3986626475 11.445813652 0.0
635 2 17.0601626475 10.489913652 0.0
636 2 19.3409626475 11.531513652 0.0
637 2 17.0642626475 13.126213652 0.0
638 2 23.2528626475 7.75442365204 0.0
639 2 24.4809626475 9.89631365204 0.0
640 2 21.9083626475 10.269213652 0.0
641 2 28.8709626475 8.20169365204 0.0
642 2 30.1551626475 10.308413652 0.0
643 2 27.3067626475 10.097713652 0.0
644 2 34.5998626475 8.73522365204 0.0
645 2 35.6358626475 11.232313652 0.0
646 2 33.0106626475 10.533013652 0.0
647 2 43.0675626475 9.88371365204 0.0
648 2 43.3553626475 12.151913652 0.0
649 2 45.6680626475 11.106713652 0.0
650 2 40.6747626475 8.10754365204 0.0
651 2 42.9832626475 7.63163365204 0.0
652 2 48.8550626475 7.97696365204 0.0
653 2 50.8086626475 9.24748365204 0.0
654 2 48.2488626475 10.481013652 0.0
655 2 54.8732626475 11.013413652 0.0
656 2 56.3466626475 12.650813652 0.0
657 2 53.7985626475 13.622313652 0.0
658 2 61.0063626475 9.89721365204 0.0
659 2 58.7617626475 11.496513652 0.0
660 2 66.7884626475 10.807213652 0.0
661 2 67.8156626475 12.950213652 0.0
662 2 65.0172626475 12.524313652 0.0
663 2 71.0807626475 10.734513652 0.0
664 2 73.1561626475 12.655013652 0.0
665 2 70.5155626475 12.912413652 0.0
666 2 77.9867626475 12.051013652 0.0
667 2 77.6087626475 9.47131365204 0.0
668 2 0.00818364749188 14.715213652 0.0
669 2 2.01380264749 16.700713652 0.0
670 2 77.7168626475 17.071513652 0.0
671 2 5.76089264749 14.323613652 0.0
672 2 7.25623264749 16.543213652 0.0
673 2 4.63105264749 16.649813652 0.0
674 2 11.1780626475 13.989113652 0.0
675 2 12.5501626475 15.961213652 0.0
676 2 9.85886264749 16.428313652 0.0
677 2 17.7713626475 15.363713652 0.0
678 2 15.2123626475 15.416513652 0.0
679 2 21.3338626475 12.844913652 0.0
680 2 22.8780626475 15.138113652 0.0
681 2 20.3573626475 15.184913652 0.0
682 2 25.9612626475 12.039513652 0.0
683 2 27.5074626475 14.227813652 0.0
684 2 25.1720626475 14.624113652 0.0
685 2 31.5704626475 12.406213652 0.0
686 2 32.4216626475 15.086313652 0.0
687 2 30.1072626475 14.407713652 0.0
688 2 36.2231626475 13.768513652 0.0
689 2 37.3900626475 15.924813652 0.0
690 2 34.6786626475 15.908413652 0.0
691 2 41.0559626475 13.211013652 0.0
692 2 39.2998626475 14.702513652 0.0
693 2 38.1957626475 12.529113652 0.0
694 2 47.5262626475 12.936213652 0.0
695 2 46.3066626475 14.945813652 0.0
696 2 48.9866626475 15.248113652 0.0
697 2 54.0606626475 15.970613652 0.0
698 2 51.5760626475 15.482413652 0.0
699 2 58.0472626475 14.196813652 0.0
700 2 59.2248626475 16.494813652 0.0
701 2 56.5995626475 16.347213652 0.0
702 2 63.0994626475 14.028913652 0.0
703 2 64.2872626475 16.247213652 0.0
704 2 61.7370626475 16.397613652 0.0
705 2 68.8891626475 15.036913652 0.0
706 2 69.8368626475 17.183213652 0.0
707 2 67.0393626475 16.727813652 0.0
708 2 74.0831626475 14.944013652 0.0
709 2 75.1658626475 17.194413652 0.0
710 2 72.5357626475 17.085513652 0.0
711 2 3.22274264749 18.951213652 0.0
712 2 4.32712264749 21.329913652 0.0
713 2 1.84586264749 21.314713652 0.0
714 2 8.34605264749 18.813713652 0.0
715 2 8.96320264749 21.495813652 0.0
716 2 6.75529264749 21.166113652 0.0
717 2 14.0073626475 17.914913652 0.0
718 2 15.5281626475 19.848013652 0.0
719 2 13.3177626475 20.765013652 0.0
720 2 20.8540626475 19.806113652 0.0
721 2 19.3699626475 17.519013652 0.0
722 2 18.2448626475 19.724413652 0.0
723 2 25.5167626475 19.746113652 0.0
724 2 25.0038626475 17.108213652 0.0
725 2 27.4470626475 18.280413652 0.0
726 2 28.8753626475 16.536513652 0.0
727 2 30.3154626475 18.661113652 0.0
728 2 32.6509626475 20.222913652 0.0
729 2 35.0455626475 21.458413652 0.0
730 2 32.6290626475 22.685913652 0.0
731 2 39.9556626475 17.191713652 0.0
732 2 40.1929626475 19.549613652 0.0
733 2 42.5043626475 18.293913652 0.0
734 2 44.4523626475 16.770013652 0.0
735 2 45.2484626475 19.063313652 0.0
736 2 49.8064626475 17.608113652 0.0
737 2 50.6136626475 19.971913652 0.0
738 2 47.9375626475 19.541913652 0.0
739 2 54.9778626475 18.415913652 0.0
740 2 56.0805626475 20.644113652 0.0
741 2 53.3168626475 20.350213652 0.0
742 2 60.3970626475 18.766513652 0.0
743 2 58.8260626475 20.800413652 0.0
744 2 61.5536626475 21.007513652 0.0
745 2 65.4915626475 18.520113652 0.0
746 2 66.7903626475 20.764113652 0.0
747 2 64.1736626475 20.721213652 0.0
748 2 71.1018626475 19.267513652 0.0
749 2 72.1916626475 21.518313652 0.0
750 2 69.4789626475 21.177713652 0.0
751 2 76.3016626475 19.407613652 0.0
752 2 77.4851626475 21.536013652 0.0
753 2 74.8148626475 21.631713652 0.0
754 2 0.270170647492 23.646913652 0.0
755 2 0.767052647492 26.201313652 0.0
756 2 76.6267626475 25.662113652 0.0
757 2 5.59321264749 23.671613652 0.0
758 2 7.27401264749 25.414213652 0.0
759 2 5.17338264749 26.578013652 0.0
760 2 11.2474626475 22.425913652 0.0
761 2 9.35959264749 24.219713652 0.0
762 2 16.7941626475 21.917413652 0.0
763 2 17.7834626475 24.331513652 0.0
764 2 15.3642626475 24.206713652 0.0
765 2 21.6553626475 22.229313652 0.0
766 2 22.7131626475 24.585013652 0.0
767 2 20.2256626475 24.487013652 0.0
768 2 25.7554626475 22.471913652 0.0
769 2 27.7429626475 24.428613652 0.0
770 2 25.1671626475 24.845113652 0.0
771 2 33.1354626475 24.895913652 0.0
772 2 30.4723626475 24.541513652 0.0
773 2 36.9262626475 23.115713652 0.0
774 2 38.6988626475 25.036413652 0.0
775 2 35.8765626475 25.167113652 0.0
776 2 40.6551626475 21.805013652 0.0
777 2 43.3183626475 22.580613652 0.0
778 2 41.0745626475 24.075613652 0.0
779 2 45.6109626475 23.772213652 0.0
780 2 47.8894626475 25.119913652 0.0
781 2 45.6132626475 26.348813652 0.0
782 2 51.8655626475 22.323813652 0.0
783 2 53.2048626475 24.634013652 0.0
784 2 50.6181626475 24.585313652 0.0
785 2 57.3690626475 22.850213652 0.0
786 2 58.4645626475 25.267713652 0.0
787 2 55.8621626475 24.878113652 0.0
788 2 63.5272626475 25.355613652 0.0
789 2 63.6353626475 22.925913652 0.0
790 2 65.9370626475 24.456713652 0.0
791 2 67.8064626475 23.072213652 0.0
792 2 68.5998626475 25.495013652 0.0
793 2 73.0266626475 23.735613652 0.0
794 2 73.9398626475 25.847313652 0.0
795 2 71.2193626475 25.769013652 0.0
796 2 3.07283264749 27.643213652 0.0
797 2 0.893812647492 28.768713652 0.0
798 2 9.02447264749 27.110913652 0.0
799 2 10.6051626475 29.149813652 0.0
800 2 8.38428264749 29.893913652 0.0
801 2 14.1225626475 26.437113652 0.0
802 2 15.4726626475 28.941713652 0.0
803 2 13.1174626475 28.866413652 0.0