# input file

1350 atoms
2 atom types

0.0 78.7756375106 xlo xhi
0.0 80.7178540915 ylo yhi
-10.0 10.0 zlo zhi
0.0 0.0 0.0 xy xz yz

Masses

1 28.0855 #Si
2 15.9994 #O

Atoms

1 1 2.85769653213 0.971597045755 0.0
2 1 7.87363653213 1.52524704575 0.0
3 1 12.8886565321 1.52136704575 0.0
4 1 18.0397565321 1.22800704575 0.0
5 1 23.8376565321 1.23940704575 0.0
6 1 31.2261565321 0.265107045755 0.0
7 1 34.2640565321 0.589097045755 0.0
8 1 39.4236565321 0.571047045755 0.0
9 1 45.0423565321 1.25308704575 0.0
10 1 49.8107565321 2.41013704575 0.0
11 1 55.1127565321 2.41562704575 0.0
12 1 60.9547565321 2.48251704575 0.0
13 1 68.5353565321 1.61125704575 0.0
14 1 71.5413565321 1.40565704575 0.0
15 1 76.6045565321 1.19294704575 0.0
16 1 0.26928753213 5.79459704575 0.0
17 1 5.42836653213 5.93175704575 0.0
18 1 10.5209565321 6.22730704575 0.0
19 1 15.3803565321 5.95479704575 0.0
20 1 20.5074565321 5.03287704575 0.0
21 1 25.8904565321 5.68667704575 0.0
22 1 31.4021565321 5.02839704575 0.0
23 1 38.8690565321 4.56080704575 0.0
24 1 41.9208565321 4.89507704575 0.0
25 1 46.4980565321 8.32417704575 0.0
26 1 52.2363565321 6.92449704575 0.0
27 1 57.6598565321 6.22862704575 0.0
28 1 63.2709565321 6.73078704575 0.0
29 1 68.3824565321 6.50499704575 0.0
30 1 73.7961565321 5.96778704575 0.0
31 1 3.05071653213 10.4575270458 0.0
32 1 8.15816653213 10.7268270458 0.0
33 1 13.2349565321 10.9061270458 0.0
34 1 19.7460565321 9.52582704575 0.0
35 1 22.7427565321 9.57542704575 0.0
36 1 27.1961565321 8.38523704575 0.0
37 1 34.8813565321 11.0845270458 0.0
38 1 39.4824565321 12.3307270458 0.0
39 1 45.1129565321 11.0395270458 0.0
40 1 50.1075565321 11.3693270458 0.0
41 1 56.9754565321 10.2699270458 0.0
42 1 59.9930565321 10.4788270458 0.0
43 1 65.6510565321 11.1698270458 0.0
44 1 71.1876565321 10.6007270458 0.0
45 1 76.4648565321 10.4241270458 0.0
46 1 0.72799253213 14.8414270458 0.0
47 1 5.81121653213 15.2281270458 0.0
48 1 10.7674565321 15.5001270458 0.0
49 1 15.8784565321 15.7533270458 0.0
50 1 20.8272565321 14.3285270458 0.0
51 1 26.1940565321 13.7422270458 0.0
52 1 34.3877565321 14.0252270458 0.0
53 1 37.4850565321 17.4993270458 0.0
54 1 42.7247565321 15.6414270458 0.0
55 1 47.6221565321 15.9062270458 0.0
56 1 52.3955565321 16.0266270458 0.0
57 1 57.4215565321 15.3547270458 0.0
58 1 62.5493565321 14.8352270458 0.0
59 1 68.1604565321 15.0551270458 0.0
60 1 74.1650565321 15.0131270458 0.0
61 1 3.12664653213 19.6684270458 0.0
62 1 8.28509653213 20.1315270458 0.0
63 1 13.5881565321 20.2376270458 0.0
64 1 21.0269565321 18.5646270458 0.0
65 1 24.0397565321 18.4009270458 0.0
66 1 28.5811565321 17.9470270458 0.0
67 1 31.8679565321 15.6637270458 0.0
68 1 39.8507565321 20.5739270458 0.0
69 1 45.1170565321 20.5336270458 0.0
70 1 50.3918565321 20.7778270458 0.0
71 1 55.5480565321 20.2214270458 0.0
72 1 60.7506565321 19.5939270458 0.0
73 1 65.5685565321 18.9817270458 0.0
74 1 69.6918565321 17.6426270458 0.0
75 1 76.5358565321 19.2953270458 0.0
76 1 78.1851565321 23.6876270458 0.0
77 1 4.77155653213 24.3982270458 0.0
78 1 10.3218565321 24.6909270458 0.0
79 1 16.7854565321 23.8718270458 0.0
80 1 21.9919565321 23.1455270458 0.0
81 1 28.7359565321 22.2700270458 0.0
82 1 31.7318565321 21.6449270458 0.0
83 1 35.8967565321 25.3323270458 0.0
84 1 41.8492565321 24.9390270458 0.0
85 1 47.5837565321 25.1230270458 0.0
86 1 54.9611565321 24.4275270458 0.0
87 1 57.9804565321 24.3256270458 0.0
88 1 65.1143565321 23.5019270458 0.0
89 1 68.1252565321 23.2972270458 0.0
90 1 72.8412565321 23.3629270458 0.0
91 1 1.71879653213 28.3243270458 0.0
92 1 5.70191653213 27.2732270458 0.0
93 1 12.1752565321 27.0452270458 0.0
94 1 19.4266565321 27.8654270458 0.0
95 1 24.1635565321 27.8208270458 0.0
96 1 29.0808565321 27.7426270458 0.0
97 1 34.2972565321 27.9286270458 0.0
98 1 39.2950565321 28.7492270458 0.0
99 1 44.5430565321 29.0105270458 0.0
100 1 50.0076565321 29.6197270458 0.0
101 1 54.7848565321 29.4590270458 0.0
102 1 59.8634565321 28.8831270458 0.0
103 1 65.0877565321 28.6361270458 0.0
104 1 70.2647565321 28.2969270458 0.0
105 1 75.2195565321 27.9065270458 0.0
106 1 77.5804565321 32.5104270458 0.0
107 1 4.31626653213 32.9506270458 0.0
108 1 11.3521565321 32.5330270458 0.0
109 1 16.5514565321 31.7575270458 0.0
110 1 20.3869565321 34.5131270458 0.0
111 1 25.6674565321 32.3577270458 0.0
112 1 31.8196565321 32.4805270458 0.0
113 1 36.7546565321 32.9315270458 0.0
114 1 41.9634565321 33.3400270458 0.0
115 1 47.2392565321 33.4785270458 0.0
116 1 52.6809565321 34.3379270458 0.0
117 1 58.8573565321 33.4438270458 0.0
118 1 61.8449565321 33.1296270458 0.0
119 1 67.1374565321 33.0175270458 0.0
120 1 74.5490565321 32.3648270458 0.0
121 1 3.34871653213 38.7460270458 0.0
122 1 6.94420653213 34.5046270458 0.0
123 1 15.8298565321 36.1051270458 0.0
124 1 18.6992565321 36.9797270458 0.0
125 1 23.0900565321 37.2670270458 0.0
126 1 27.2753565321 34.8785270458 0.0
127 1 34.1989565321 37.4311270458 0.0
128 1 38.9293565321 37.5848270458 0.0
129 1 45.8041565321 37.5602270458 0.0
130 1 48.7753565321 37.8973270458 0.0
131 1 53.8814565321 39.1569270458 0.0
132 1 59.5153565321 38.8742270458 0.0
133 1 64.2968565321 37.5026270458 0.0
134 1 68.4382565321 35.7433270458 0.0
135 1 75.3896565321 37.7166270458 0.0
136 1 77.8604565321 39.4031270458 0.0
137 1 6.93113653213 40.1535270458 0.0
138 1 11.4550565321 40.8039270458 0.0
139 1 15.9009565321 41.4473270458 0.0
140 1 20.8698565321 42.1602270458 0.0
141 1 27.6950565321 40.0842270458 0.0
142 1 29.9632565321 38.0986270458 0.0
143 1 35.8485565321 42.2860270458 0.0
144 1 40.6012565321 42.6878270458 0.0
145 1 45.6089565321 45.0316270458 0.0
146 1 50.8815565321 42.8974270458 0.0
147 1 55.5034565321 41.6794270458 0.0
148 1 63.1478565321 42.7325270458 0.0
149 1 67.4782565321 41.4655270458 0.0
150 1 71.3153565321 39.9115270458 0.0
151 1 5.04146653213 44.4734270458 0.0
152 1 7.96107653213 45.1842270458 0.0
153 1 13.2698565321 46.1210270458 0.0
154 1 17.9859565321 46.5089270458 0.0
155 1 23.1673565321 46.5233270458 0.0
156 1 28.2864565321 45.2664270458 0.0
157 1 32.8214565321 47.9980270458 0.0
158 1 38.2685565321 47.2835270458 0.0
159 1 44.1237565321 47.6295270458 0.0
160 1 49.4221565321 47.6798270458 0.0
161 1 54.3927565321 46.9288270458 0.0
162 1 59.9361565321 46.9615270458 0.0
163 1 67.9904565321 46.2007270458 0.0
164 1 70.9687565321 45.6197270458 0.0
165 1 76.1107565321 45.1994270458 0.0
166 1 0.17822253213 49.5497270458 0.0
167 1 4.82087653213 49.1287270458 0.0
168 1 9.87995653213 49.9121270458 0.0
169 1 14.9075565321 51.1939270458 0.0
170 1 20.7378565321 51.0909270458 0.0
171 1 26.1618565321 50.3122270458 0.0
172 1 31.4297565321 50.6672270458 0.0
173 1 35.8986565321 51.8802270458 0.0
174 1 41.6260565321 51.0895270458 0.0
175 1 47.2793565321 52.0076270458 0.0
176 1 52.5488565321 51.8935270458 0.0
177 1 57.2796565321 51.0664270458 0.0
178 1 61.5070565321 49.5223270458 0.0
179 1 68.0565565321 51.9965270458 0.0
180 1 73.9864565321 50.1189270458 0.0
181 1 2.82328653213 54.1983270458 0.0
182 1 7.39812653213 54.0728270458 0.0
183 1 11.8868565321 57.1351270458 0.0
184 1 16.1836565321 53.9434270458 0.0
185 1 23.6374565321 54.9208270458 0.0
186 1 28.7289565321 54.9046270458 0.0
187 1 33.4072565321 56.1096270458 0.0
188 1 37.3209565321 54.5278270458 0.0
189 1 44.5374565321 57.4373270458 0.0
190 1 50.4121565321 56.3358270458 0.0
191 1 56.9005565321 55.7428270458 0.0
192 1 59.8430565321 55.1598270458 0.0
193 1 64.4288565321 55.9479270458 0.0
194 1 70.1119565321 54.1877270458 0.0
195 1 78.6095565321 53.8100270458 0.0
196 1 78.7037565321 59.0643270458 0.0
197 1 5.40889653213 59.1437270458 0.0
198 1 10.7423565321 59.9225270458 0.0
199 1 15.5784565321 59.6235270458 0.0
200 1 20.9632565321 59.1748270458 0.0
201 1 26.5104565321 59.4708270458 0.0
202 1 31.5602565321 62.1772270458 0.0
203 1 37.0621565321 60.1841270458 0.0
204 1 42.5606565321 59.6971270458 0.0
205 1 47.5481565321 60.1852270458 0.0
206 1 52.6180565321 60.9422270458 0.0
207 1 57.1577565321 61.3360270458 0.0
208 1 62.2698565321 60.4086270458 0.0
209 1 66.4461565321 58.1663270458 0.0
210 1 73.5670565321 58.4509270458 0.0
211 1 2.26008653213 63.3820270458 0.0
212 1 7.88405653213 63.9569270458 0.0
213 1 13.4082565321 64.6057270458 0.0
214 1 18.4229565321 63.7606270458 0.0
215 1 23.6707565321 63.5124270458 0.0
216 1 30.4994565321 65.0049270458 0.0
217 1 35.4457565321 64.7816270458 0.0
218 1 41.6711565321 63.6485270458 0.0
219 1 44.5735565321 64.5099270458 0.0
220 1 49.7854565321 65.0251270458 0.0
221 1 52.9281565321 68.3944270458 0.0
222 1 60.8385565321 65.2971270458 0.0
223 1 67.1659565321 63.2755270458 0.0
224 1 70.1009565321 62.5901270458 0.0
225 1 75.0046565321 63.0952270458 0.0
226 1 76.5906565321 65.6185270458 0.0
227 1 4.57448653213 67.6015270458 0.0
228 1 8.83821653213 66.8472270458 0.0
229 1 16.0442565321 68.7785270458 0.0
230 1 22.6252565321 67.6718270458 0.0
231 1 25.1827565321 66.0978270458 0.0
232 1 33.5776565321 69.5374270458 0.0
233 1 37.9110565321 69.4776270458 0.0
234 1 42.9127565321 68.7643270458 0.0
235 1 48.0293565321 69.0977270458 0.0
236 1 55.9099565321 68.6514270458 0.0
237 1 59.3307565321 70.2758270458 0.0
238 1 63.7625565321 69.5564270458 0.0
239 1 68.4752565321 68.6626270458 0.0
240 1 73.9997565321 67.1106270458 0.0
241 1 2.39977653213 71.8088270458 0.0
242 1 6.93126653213 74.5134270458 0.0
243 1 12.4423565321 72.8068270458 0.0
244 1 17.7344565321 73.4749270458 0.0
245 1 22.7587565321 73.1848270458 0.0
246 1 27.5887565321 72.7387270458 0.0
247 1 31.0431565321 71.0965270458 0.0
248 1 40.2696565321 73.6485270458 0.0
249 1 45.7164565321 73.4716270458 0.0
250 1 50.9170565321 73.4735270458 0.0
251 1 55.9307565321 74.4740270458 0.0
252 1 61.1881565321 74.7834270458 0.0
253 1 66.0548565321 73.8646270458 0.0
254 1 71.2172565321 73.2136270458 0.0
255 1 76.1272565321 72.4252270458 0.0
256 1 0.40975253213 2.76035704575 0.0
257 1 5.19588653213 2.90617704575 0.0
258 1 10.3843565321 3.20364704575 0.0
259 1 15.5478565321 2.94053704575 0.0
260 1 20.9327565321 2.07405704575 0.0
261 1 26.4658565321 2.74330704575 0.0
262 1 29.4855565321 2.70457704575 0.0
263 1 36.9010565321 2.19704704575 0.0
264 1 42.1180565321 1.90774704575 0.0
265 1 46.9805565321 3.54437704575 0.0
266 1 52.4542565321 3.89987704575 0.0
267 1 58.0203565321 3.25834704575 0.0
268 1 63.6975565321 3.76983704575 0.0
269 1 66.7155565321 3.98801704575 0.0
270 1 74.1267565321 2.95477704575 0.0
271 1 2.81389653213 7.43901704575 0.0
272 1 7.89041653213 7.70585704575 0.0
273 1 13.0548565321 7.87788704575 0.0
274 1 18.2099565321 6.95015704575 0.0
275 1 23.0515565321 6.60039704575 0.0
276 1 30.1074565321 7.73577704575 0.0
277 1 34.1506565321 6.24981704575 0.0
278 1 37.0788565321 6.96976704575 0.0
279 1 44.8765565321 5.74944704575 0.0
280 1 49.5600565321 8.40381704575 0.0
281 1 55.1334565321 7.86901704575 0.0
282 1 60.3773565321 7.51559704575 0.0
283 1 65.8971565321 8.18793704575 0.0
284 1 71.2168565321 7.57097704575 0.0
285 1 76.4656565321 7.39266704575 0.0
286 1 0.36806353213 11.8423270458 0.0
287 1 5.52899653213 12.2088270458 0.0
288 1 10.6437565321 12.4656270458 0.0
289 1 15.6409565321 12.7477270458 0.0
290 1 18.6170565321 12.2843270458 0.0
291 1 25.4639565321 10.8334270458 0.0
292 1 32.8225565321 8.93501704575 0.0
293 1 37.6569565321 9.93072704575 0.0
294 1 42.5062565321 12.6221270458 0.0
295 1 47.5033565321 12.8883270458 0.0
296 1 52.6193565321 13.0369270458 0.0
297 1 55.6291565321 12.9377270458 0.0
298 1 62.6948565321 11.8430270458 0.0
299 1 68.5387565321 12.0764270458 0.0
300 1 73.8739565321 12.0017270458 0.0
301 1 3.15181653213 16.6446270458 0.0
302 1 8.19951653213 17.0942270458 0.0
303 1 13.2510565321 17.2329270458 0.0
304 1 18.8020565321 16.5394270458 0.0
305 1 23.6731565321 15.3949270458 0.0
306 1 28.9369565321 14.9790270458 0.0
307 1 37.3542565321 14.5002270458 0.0
308 1 40.4753565321 17.6448270458 0.0
309 1 45.0846565321 17.5123270458 0.0
310 1 49.9735565321 17.7890270458 0.0
311 1 55.1225565321 17.2669270458 0.0
312 1 60.1488565321 16.6377270458 0.0
313 1 65.3133565321 15.9969270458 0.0
314 1 72.6809565321 17.6417270458 0.0
315 1 76.8757565321 16.3031270458 0.0
316 1 0.33984453213 20.8293270458 0.0
317 1 5.56118653213 21.4717270458 0.0
318 1 10.8946565321 21.6980270458 0.0
319 1 16.5732565321 20.9086270458 0.0
320 1 19.6292565321 21.1945270458 0.0
321 1 26.5465565321 20.1372270458 0.0
322 1 31.4933565321 18.6446270458 0.0
323 1 36.8353565321 20.4477270458 0.0
324 1 42.4832565321 22.0073270458 0.0
325 1 47.6917565321 22.1137270458 0.0
326 1 53.1506565321 22.0173270458 0.0
327 1 58.3240565321 21.3523270458 0.0
328 1 63.3945565321 21.0307270458 0.0
329 1 68.2688565321 20.2872270458 0.0
330 1 73.7560565321 20.4628270458 0.0
331 1 1.91955653213 25.3278270458 0.0
332 1 8.68570653213 27.2320270458 0.0
333 1 15.0346565321 26.2706270458 0.0
334 1 19.5933565321 24.9052270458 0.0
335 1 24.5474565321 24.8272270458 0.0
336 1 27.5901565321 25.0710270458 0.0
337 1 34.6430565321 22.5590270458 0.0
338 1 38.9201565321 25.7686270458 0.0
339 1 44.6836565321 26.0171270458 0.0
340 1 50.2213565321 26.6284270458 0.0
341 1 53.2331565321 26.8710270458 0.0
342 1 60.5127565321 25.9636270458 0.0
343 1 63.5353565321 26.0501270458 0.0
344 1 70.4455565321 25.2424270458 0.0
345 1 75.4283565321 24.9046270458 0.0
346 1 77.7535565321 29.5185270458 0.0
347 1 4.25631653213 29.9215270458 0.0
348 1 10.5841565321 29.5847270458 0.0
349 1 16.5945565321 28.7972270458 0.0
350 1 21.7907565321 29.6676270458 0.0
351 1 26.6445565321 29.5085270458 0.0
352 1 31.6373565321 29.4131270458 0.0
353 1 36.5412565321 29.9367270458 0.0
354 1 41.8506565321 30.3379270458 0.0
355 1 47.1473565321 30.4943270458 0.0
356 1 52.4666565321 31.3485270458 0.0
357 1 57.5114565321 30.7441270458 0.0
358 1 62.5434565321 30.2240270458 0.0
359 1 67.7670565321 30.0363270458 0.0
360 1 72.8960565321 29.8137270458 0.0
361 1 1.44691653213 34.0260270458 0.0
362 1 9.91565653213 35.1981270458 0.0
363 1 14.1826565321 33.5843270458 0.0
364 1 19.5530565321 31.6699270458 0.0
365 1 23.3520565321 34.2722270458 0.0
366 1 30.2474565321 35.0756270458 0.0
367 1 34.1460565321 34.4042270458 0.0
368 1 39.2451565321 34.6038270458 0.0
369 1 44.5691565321 34.8336270458 0.0
370 1 49.7753565321 35.0812270458 0.0
371 1 54.9213565321 36.3442270458 0.0
372 1 57.9273565321 36.3034270458 0.0
373 1 64.5050565321 34.5019270458 0.0
374 1 71.1912565321 36.9003270458 0.0
375 1 73.6951565321 35.2457270458 0.0
376 1 0.92551653213 37.0136270458 0.0
377 1 5.98610653213 37.3372270458 0.0
378 1 11.5902565321 37.7908270458 0.0
379 1 14.4719565321 38.7598270458 0.0
380 1 20.7551565321 39.1568270458 0.0
381 1 26.0332565321 37.6141270458 0.0
382 1 32.3870565321 39.8319270458 0.0
383 1 36.5045565321 39.3408270458 0.0
384 1 41.0025565321 39.7230270458 0.0
385 1 43.9747565321 39.9051270458 0.0
386 1 50.9812565321 39.9126270458 0.0
387 1 58.4929565321 41.6989270458 0.0
388 1 62.3763565321 39.8059270458 0.0
389 1 67.1255565321 38.4628270458 0.0
390 1 74.2320565321 40.4679270458 0.0
391 1 4.29613653213 41.5720270458 0.0
392 1 8.92503653213 42.3595270458 0.0
393 1 13.4101565321 43.1028270458 0.0
394 1 18.1551565321 43.4745270458 0.0
395 1 23.5471565321 43.5385270458 0.0
396 1 26.4902565321 42.8463270458 0.0
397 1 32.8892565321 42.8027270458 0.0
398 1 38.0747565321 44.2938270458 0.0
399 1 43.5818565321 42.8545270458 0.0
400 1 48.5911565321 44.8097270458 0.0
401 1 53.6536565321 44.0293270458 0.0
402 1 60.4287565321 43.9993270458 0.0
403 1 65.8846565321 44.0062270458 0.0
404 1 70.2119565321 42.6959270458 0.0
405 1 76.6636565321 42.2013270458 0.0
406 1 0.0366985321296 46.5595270458 0.0
407 1 3.04662653213 46.6892270458 0.0
408 1 10.3805565321 46.9614270458 0.0
409 1 15.4712565321 48.2001270458 0.0
410 1 20.5698565321 48.0755270458 0.0
411 1 26.0753565321 47.3150270458 0.0
412 1 31.3100565321 45.3795270458 0.0
413 1 35.7120565321 48.8744270458 0.0
414 1 41.1554565321 48.1402270458 0.0
415 1 46.7646565321 49.0637270458 0.0
416 1 52.1545565321 48.9191270458 0.0
417 1 57.1560565321 48.0714270458 0.0
418 1 64.4181565321 50.1843270458 0.0
419 1 67.2161565321 49.1117270458 0.0
420 1 73.6688565321 47.0600270458 0.0
421 1 2.68592653213 51.2051270458 0.0
422 1 7.11658653213 51.0695270458 0.0
423 1 12.0097565321 52.0165270458 0.0
424 1 19.1833565321 53.6840270458 0.0
425 1 23.6252565321 51.9196270458 0.0
426 1 28.7036565321 51.8993270458 0.0
427 1 33.1736565321 53.1086270458 0.0
428 1 40.1805565321 53.7030270458 0.0
429 1 44.3173565321 52.3960270458 0.0
430 1 49.9504565321 53.3772270458 0.0
431 1 55.2275565321 53.2469270458 0.0
432 1 60.0686565321 52.1613270458 0.0
433 1 65.2522565321 53.0585270458 0.0
434 1 72.8510565321 52.9347270458 0.0
435 1 76.6856565321 51.4778270458 0.0
436 1 77.2301565321 56.4459270458 0.0
437 1 5.17144653213 56.1114270458 0.0
438 1 10.3728565321 54.5434270458 0.0
439 1 14.8684565321 56.6843270458 0.0
440 1 20.9047565321 56.1583270458 0.0
441 1 26.1896565321 56.4871270458 0.0
442 1 30.6337565321 57.2247270458 0.0
443 1 36.1640565321 57.3016270458 0.0
444 1 42.8559565321 54.9900270458 0.0
445 1 47.5345565321 57.2102270458 0.0
446 1 52.9501565321 57.9758270458 0.0
447 1 55.9079565321 58.5698270458 0.0
448 1 61.8188565321 57.4248270458 0.0
449 1 69.2523565321 57.0911270458 0.0
450 1 74.3561565321 55.5584270458 0.0
451 1 2.63983653213 60.3864270458 0.0
452 1 7.88977653213 60.9198270458 0.0
453 1 13.2623565321 61.5800270458 0.0
454 1 18.3795565321 60.7443270458 0.0
455 1 23.6812565321 60.5095270458 0.0
456 1 29.4770565321 59.9986270458 0.0
457 1 34.5783565321 61.9096270458 0.0
458 1 39.9397565321 61.1597270458 0.0
459 1 44.9046565321 61.5557270458 0.0
460 1 49.8564565321 62.0525270458 0.0
461 1 54.7076565321 63.0875270458 0.0
462 1 59.9961565321 62.3911270458 0.0
463 1 65.2468565321 60.9352270458 0.0
464 1 70.8243565321 59.6575270458 0.0
465 1 75.9603565321 60.2662270458 0.0
466 1 0.77538653213 66.0190270458 0.0
467 1 4.97152653213 64.6369270458 0.0
468 1 11.8258565321 67.1817270458 0.0
469 1 16.1782565321 65.7651270458 0.0
470 1 21.1184565321 65.0800270458 0.0
471 1 28.0944565321 66.8277270458 0.0
472 1 33.0522565321 66.5846270458 0.0
473 1 37.9011565321 66.4990270458 0.0
474 1 40.8997565321 66.5237270458 0.0
475 1 47.0466565321 66.2536270458 0.0
476 1 52.7685565321 65.4011270458 0.0
477 1 58.6320565321 67.3645270458 0.0
478 1 63.6003565321 66.5587270458 0.0
479 1 66.6158565321 66.2440270458 0.0
480 1 72.3889565321 64.5592270458 0.0
481 1 1.85346653213 68.8368270458 0.0
482 1 7.03344653213 69.2912270458 0.0
483 1 13.2231565321 69.8664270458 0.0
484 1 18.4702565321 70.5633270458 0.0
485 1 21.4838565321 70.4515270458 0.0
486 1 28.3325565321 69.8318270458 0.0
487 1 35.7789565321 71.5616270458 0.0
488 1 40.6383565321 70.6914270458 0.0
489 1 45.3807565321 70.4848270458 0.0
490 1 50.7251565321 70.4556270458 0.0
491 1 56.6368565321 71.5571270458 0.0
492 1 61.8500565321 71.8584270458 0.0
493 1 66.4435565321 70.8795270458 0.0
494 1 71.0921565321 70.2124270458 0.0
495 1 74.1219565321 70.1181270458 0.0
496 1 0.0890115321296 73.7923270458 0.0
497 1 5.44668653213 71.8813270458 0.0
498 1 9.96225653213 74.5643270458 0.0
499 1 14.9211565321 74.5451270458 0.0
500 1 20.3455565321 74.9664270458 0.0
501 1 25.3542565321 74.7318270458 0.0
502 1 30.3251565321 73.9906270458 0.0
503 1 37.3078565321 74.1320270458 0.0
504 1 43.0309565321 74.8058270458 0.0
505 1 48.3188565321 74.9907270458 0.0
506 1 53.1174565321 75.5384270458 0.0
507 1 58.4726565321 76.0806270458 0.0
508 1 63.9258565321 75.9975270458 0.0
509 1 68.8196565321 75.0071270458 0.0
510 1 73.9436565321 74.4925270458 0.0
511 1 5.60852653213 77.2424270458 0.0
512 1 10.3795565321 77.5545270458 0.0
513 1 15.3721565321 77.5278270458 0.0
514 1 20.8781565321 77.9203270458 0.0
515 1 26.4127565321 77.5733270458 0.0
516 1 31.5887565321 76.7216270458 0.0
517 1 36.9401565321 77.0941270458 0.0
518 1 42.6482565321 77.7641270458 0.0
519 1 48.2181565321 78.0025270458 0.0
520 1 52.9289565321 78.5551270458 0.0
521 1 58.3213565321 79.0820270458 0.0
522 1 63.8985565321 79.0056270458 0.0
523 1 69.1003565321 77.9842270458 0.0
524 1 74.3679565321 77.4709270458 0.0
525 1 0.47106653213 76.8357270458 0.0
526 1 2.91909653213 78.6349270458 0.0
527 1 7.87548653213 79.2242270458 0.0
528 1 12.8846565321 79.2233270458 0.0
529 1 18.0382565321 78.9428270458 0.0
530 1 23.7243565321 78.9553270458 0.0
531 1 29.2780565321 78.6427270458 0.0
532 1 34.1846565321 78.2845270458 0.0
533 1 39.6893565321 78.3142270458 0.0
534 1 45.3856565321 79.0026270458 0.0
535 1 50.3513565321 80.1376270458 0.0
536 1 55.4904565321 80.1464270458 0.0
537 1 61.1249565321 80.2047270458 0.0
538 1 66.7819565321 79.8881270458 0.0
539 1 71.8712565321 79.1416270458 0.0
540 1 77.0171565321 78.8974270458 0.0
541 2 2.87791653213 80.1645270458 0.0
542 2 4.03690653213 1.93314704575 0.0
543 2 1.62132653213 1.85353704575 0.0
544 2 7.87760653213 0.0140070457546 0.0
545 2 9.11906653213 2.37754704575 0.0
546 2 6.53914653213 2.21742704575 0.0
547 2 12.8747565321 0.0120550457546 0.0
548 2 14.2218565321 2.22319704575 0.0
549 2 11.6428565321 2.36830704575 0.0
550 2 17.9669565321 80.4447270458 0.0
551 2 19.5023565321 1.59804704575 0.0
552 2 16.8148565321 2.11289704575 0.0
553 2 23.8166565321 80.4546270458 0.0
554 2 25.1743565321 1.95346704575 0.0
555 2 22.3825565321 1.66482704575 0.0
556 2 30.3454565321 1.48285704575 0.0
557 2 30.2102565321 79.8463270458 0.0
558 2 32.7239565321 0.547227045755 0.0
559 2 34.3034565321 79.7845270458 0.0
560 2 35.5166565321 1.49458704575 0.0
561 2 39.5246565321 79.8027270458 0.0
562 2 40.7819565321 1.22539704575 0.0
563 2 38.1111565321 1.28468704575 0.0
564 2 45.2837565321 80.4975270458 0.0
565 2 46.0526565321 2.35122704575 0.0
566 2 43.5622565321 1.51796704575 0.0
567 2 50.0640565321 0.905367045755 0.0
568 2 51.1240565321 3.16922704575 0.0
569 2 48.4314565321 3.06360704575 0.0
570 2 55.2370565321 0.910487045755 0.0
571 2 56.5762565321 2.81076704575 0.0
572 2 53.7944565321 3.17184704575 0.0
573 2 61.0674565321 0.984477045755 0.0
574 2 62.3441565321 3.09165704575 0.0
575 2 59.4854565321 2.86744704575 0.0
576 2 67.6450565321 2.81180704575 0.0
577 2 67.6121565321 0.421717045755 0.0
578 2 70.0426565321 1.60837704575 0.0
579 2 71.7799565321 80.6372270458 0.0
580 2 72.7968565321 2.22908704575 0.0
581 2 76.8268565321 80.4059270458 0.0
582 2 77.8866565321 1.99161704575 0.0
583 2 75.3582565321 2.06652704575 0.0
584 2 0.35151053213 4.27837704575 0.0
585 2 1.53755653213 6.62589704575 0.0
586 2 77.7462565321 6.58029704575 0.0
587 2 5.30071653213 4.42037704575 0.0
588 2 6.66095653213 6.81789704575 0.0
589 2 4.11781653213 6.68077704575 0.0
590 2 10.4635565321 4.71342704575 0.0
591 2 11.7771565321 7.06759704575 0.0
592 2 9.20739653213 6.96528704575 0.0
593 2 15.4447565321 4.44649704575 0.0
594 2 16.7788565321 6.52136704575 0.0
595 2 14.2333565321 6.92681704575 0.0
596 2 20.7156565321 3.56103704575 0.0
597 2 21.7965565321 5.79780704575 0.0
598 2 19.2953565321 5.90813704575 0.0
599 2 26.2084565321 4.22987704575 0.0
600 2 26.5945565321 7.00978704575 0.0
601 2 24.4382565321 6.05792704575 0.0
602 2 30.4539565321 3.86518704575 0.0
603 2 32.8853565321 5.39510704575 0.0
604 2 30.6391565321 6.33059704575 0.0
605 2 38.0375565321 5.82200704575 0.0
606 2 37.8153565321 3.43584704575 0.0
607 2 40.3746565321 4.85275704575 0.0
608 2 42.0508565321 3.39986704575 0.0
609 2 43.3613565321 5.46204704575 0.0
610 2 45.6322565321 7.07537704575 0.0
611 2 48.0349565321 8.26372704575 0.0
612 2 45.7249565321 9.64422704575 0.0
613 2 52.3337565321 5.40988704575 0.0
614 2 53.6666565321 7.48309704575 0.0
615 2 50.8726565321 7.61120704575 0.0
616 2 57.8407565321 4.74867704575 0.0
617 2 59.0310565321 6.85784704575 0.0
618 2 56.3406565321 6.94373704575 0.0
619 2 63.4503565321 5.24992704575 0.0
620 2 64.5636565321 7.48828704575 0.0
621 2 61.8212565321 7.11221704575 0.0
622 2 67.6004565321 5.21238704575 0.0
623 2 69.8188565321 6.97142704575 0.0
624 2 67.1960565321 7.44265704575 0.0
625 2 73.9580565321 4.46022704575 0.0
626 2 75.1233565321 6.69404704575 0.0
627 2 72.4920565321 6.74955704575 0.0
628 2 2.94420653213 8.94731704575 0.0
629 2 4.28493653213 11.3390270458 0.0
630 2 1.69960653213 11.1327270458 0.0
631 2 8.02421653213 9.21642704575 0.0
632 2 9.40106653213 11.5950270458 0.0
633 2 6.84330653213 11.4671270458 0.0
634 2 13.1721565321 9.38862704575 0.0
635 2 14.4683565321 11.7938270458 0.0
636 2 11.9394565321 11.6832270458 0.0
637 2 19.1167565321 10.8753270458 0.0
638 2 18.9116565321 8.27986704575 0.0
639 2 21.2453565321 9.64822704575 0.0
640 2 22.9421565321 8.08827704575 0.0
641 2 24.0402565321 10.3327270458 0.0
642 2 28.6804565321 8.16438704575 0.0
643 2 26.4058565321 9.65672704575 0.0
644 2 33.7631565321 10.0877270458 0.0
645 2 36.2759565321 10.5398270458 0.0
646 2 34.5062565321 12.5275270458 0.0
647 2 38.6920565321 11.0310270458 0.0
648 2 40.9974565321 12.3925270458 0.0
649 2 38.4651565321 13.4681270458 0.0
650 2 46.2713565321 12.0189270458 0.0
651 2 43.7476565321 11.7379270458 0.0
652 2 49.8974565321 9.88152704575 0.0
653 2 51.4118565321 12.1371270458 0.0
654 2 48.8227565321 12.1573270458 0.0
655 2 56.2887565321 11.5998270458 0.0
656 2 55.9860565321 9.12769704575 0.0
657 2 58.4780565321 10.4633270458 0.0
658 2 60.2429565321 9.00145704575 0.0
659 2 61.3270565321 11.1940270458 0.0
660 2 65.7827565321 9.67322704575 0.0
661 2 67.0856565321 11.6501270458 0.0
662 2 64.1761565321 11.5171270458 0.0
663 2 71.2151565321 9.08696704575 0.0
664 2 72.5232565321 11.3181270458 0.0
665 2 69.8571565321 11.3353270458 0.0
666 2 76.4654565321 8.90848704575 0.0
667 2 77.8032565321 11.1399270458 0.0
668 2 75.1654565321 11.2071270458 0.0
669 2 0.55798753213 13.3434270458 0.0
670 2 78.1912565321 15.5838270458 0.0
671 2 1.94555653213 15.7327270458 0.0
672 2 5.67626653213 13.7180270458 0.0
673 2 7.00190653213 16.1631270458 0.0
674 2 4.48285653213 15.9437270458 0.0
675 2 10.7052565321 13.9833270458 0.0
676 2 12.0142565321 16.3630270458 0.0
677 2 9.48929653213 16.3051270458 0.0
678 2 15.6754565321 14.2585270458 0.0
679 2 17.3149565321 16.2527270458 0.0
680 2 14.5892565321 16.5267270458 0.0
681 2 19.7960565321 15.4180270458 0.0
682 2 22.2750565321 14.7833270458 0.0
683 2 19.8026565321 13.2157270458 0.0
684 2 27.6158565321 14.2477270458 0.0
685 2 25.8719565321 12.2712270458 0.0
686 2 24.9320565321 14.5639270458 0.0
687 2 33.1326565321 14.8470270458 0.0
688 2 35.8613565321 14.2932270458 0.0
689 2 37.3366565321 16.0057270458 0.0
690 2 38.9892565321 17.4698270458 0.0
691 2 36.9331565321 18.9163270458 0.0
692 2 42.6588565321 14.1371270458 0.0
693 2 43.9167565321 16.5640270458 0.0
694 2 41.5557565321 16.6057270458 0.0
695 2 47.5599565321 14.3989270458 0.0
696 2 48.7902565321 16.8579270458 0.0
697 2 46.3562565321 16.7144270458 0.0
698 2 52.4109565321 14.5293270458 0.0
699 2 53.7517565321 16.6692270458 0.0
700 2 51.1980565321 16.9176270458 0.0
701 2 56.6050565321 14.0876270458 0.0
702 2 58.8047565321 15.9485270458 0.0
703 2 56.3119565321 16.3677270458 0.0
704 2 62.5627565321 13.3419270458 0.0
705 2 63.9411565321 15.4033270458 0.0
706 2 61.3413565321 15.7203270458 0.0
707 2 68.4663565321 13.5880270458 0.0
708 2 68.9750565321 16.3189270458 0.0
709 2 66.6972565321 15.4250270458 0.0
710 2 73.9599565321 13.5178270458 0.0
711 2 75.5651565321 15.5722270458 0.0
712 2 73.3514565321 16.2903270458 0.0
713 2 3.14471653213 18.1558270458 0.0
714 2 4.34948653213 20.5562270458 0.0
715 2 1.73620653213 20.2700270458 0.0
716 2 8.23539653213 18.6113270458 0.0
717 2 9.59518653213 20.8984270458 0.0
718 2 6.93753653213 20.8405270458 0.0
719 2 13.3692565321 18.7358270458 0.0
720 2 15.0959565321 20.5148270458 0.0
721 2 12.2706565321 21.0293270458 0.0
722 2 20.3385565321 19.8818270458 0.0
723 2 19.8673565321 17.6019270458 0.0
724 2 22.5334565321 18.5781270458 0.0
725 2 23.9507565321 16.8792270458 0.0
726 2 25.1988565321 19.3921270458 0.0
727 2 28.6092565321 16.4515270458 0.0
728 2 30.0076565321 18.4039270458 0.0
729 2 27.5120565321 18.9807270458 0.0
730 2 30.4515565321 15.1045270458 0.0
731 2 31.9038565321 17.1814270458 0.0
732 2 40.3260565321 19.1424270458 0.0
733 2 41.1351565321 21.3444270458 0.0
734 2 38.3417565321 20.7118270458 0.0
735 2 45.0912565321 19.0224270458 0.0
736 2 46.4118565321 21.3119270458 0.0
737 2 43.8084565321 21.2891270458 0.0
738 2 50.1825565321 19.2796270458 0.0
739 2 51.7441565321 21.4615270458 0.0
740 2 49.0563565321 21.4752270458 0.0
741 2 55.3409565321 18.7425270458 0.0
742 2 56.9444565321 20.7606270458 0.0
743 2 54.3106565321 21.0559270458 0.0
744 2 60.4563565321 18.1145270458 0.0
745 2 62.0427565321 20.3687270458 0.0
746 2 59.5433565321 20.4890270458 0.0
747 2 65.4018565321 17.4964270458 0.0
748 2 66.8990565321 19.6632270458 0.0
749 2 64.4364565321 19.9512270458 0.0
750 2 71.1834565321 17.6103270458 0.0
751 2 69.0839565321 19.0193270458 0.0
752 2 76.7118565321 17.7991270458 0.0
753 2 77.8432565321 20.0292270458 0.0
754 2 75.1979565321 19.9834270458 0.0
755 2 76.7979565321 24.2711270458 0.0
756 2 0.64761653213 24.5403270458 0.0
757 2 78.6546565321 22.2615270458 0.0
758 2 5.24214653213 22.9602270458 0.0
759 2 5.29155653213 25.8191270458 0.0
760 2 3.30127653213 24.7485270458 0.0
761 2 10.6001565321 23.2020270458 0.0
762 2 11.3697565321 25.7786270458 0.0
763 2 9.31906653213 25.8499270458 0.0
764 2 16.5415565321 22.4153270458 0.0
765 2 18.2188565321 24.3096270458 0.0
766 2 15.8184565321 25.0081270458 0.0
767 2 20.8707565321 22.1010270458 0.0
768 2 23.3612565321 23.8479270458 0.0
769 2 20.8676565321 24.1528270458 0.0
770 2 28.2334565321 23.6996270458 0.0
771 2 27.5550565321 21.2839270458 0.0
772 2 30.2532565321 22.0415270458 0.0
773 2 31.7589565321 20.1233270458 0.0
774 2 33.1618565321 22.1898270458 0.0
775 2 35.2360565321 23.9594270458 0.0
776 2 37.4261565321 25.4502270458 0.0
777 2 35.0039565321 26.5750270458 0.0
778 2 42.1884565321 23.4729270458 0.0
779 2 43.2578565321 25.5135270458 0.0
780 2 40.3700565321 25.2842270458 0.0
781 2 47.6540565321 23.6158270458 0.0
782 2 48.9245565321 25.8447270458 0.0
783 2 46.1306565321 25.5579270458 0.0
784 2 53.9861565321 23.2735270458 0.0
785 2 54.1317565321 25.6734270458 0.0
786 2 56.4721565321 24.4649270458 0.0
787 2 58.2433565321 22.8452270458 0.0