ITEM: TIMESTEP
0
ITEM: NUMBER OF ATOMS
1350
ITEM: BOX BOUNDS xy xz yz pp pp pp
0.0 78.1002458588 0
0.0 81.0924239916 0
-10.0 10.0 0
ITEM: ATOMS id type x y z vx vy vz
1 1 1.86855070626 0.42988199578 0.0 0.0 0.0 0.0
2 1 7.43728070626 1.38986199578 0.0 0.0 0.0 0.0
3 1 11.9833607063 1.96979199578 0.0 0.0 0.0 0.0
4 1 17.7195607063 0.25361599578 0.0 0.0 0.0 0.0
5 1 23.7788607063 0.0484439957802 0.0 0.0 0.0 0.0
6 1 26.7855607063 80.8767119958 0.0 0.0 0.0 0.0
7 1 31.5687607063 0.93332199578 0.0 0.0 0.0 0.0
8 1 36.7888607063 2.30282199578 0.0 0.0 0.0 0.0
9 1 43.3317607063 2.56017199578 0.0 0.0 0.0 0.0
10 1 49.3286607063 2.62278199578 0.0 0.0 0.0 0.0
11 1 54.5331607063 2.87899199578 0.0 0.0 0.0 0.0
12 1 59.1979607063 5.85809199578 0.0 0.0 0.0 0.0
13 1 64.4882607063 3.57468199578 0.0 0.0 0.0 0.0
14 1 69.7794607063 1.60048199578 0.0 0.0 0.0 0.0
15 1 75.3939607063 1.13520199578 0.0 0.0 0.0 0.0
16 1 1.89316070626 5.06711199578 0.0 0.0 0.0 0.0
17 1 7.09369070626 4.38326199578 0.0 0.0 0.0 0.0
18 1 10.1036607063 4.33508199578 0.0 0.0 0.0 0.0
19 1 14.5918607063 4.53904199578 0.0 0.0 0.0 0.0
20 1 16.6735607063 7.94514199578 0.0 0.0 0.0 0.0
21 1 24.2477607063 5.20040199578 0.0 0.0 0.0 0.0
22 1 29.0477607063 7.22519199578 0.0 0.0 0.0 0.0
23 1 33.9331607063 5.90597199578 0.0 0.0 0.0 0.0
24 1 38.5861607063 4.70682199578 0.0 0.0 0.0 0.0
25 1 46.9950607063 6.09788199578 0.0 0.0 0.0 0.0
26 1 52.6606607063 7.21031199578 0.0 0.0 0.0 0.0
27 1 57.8133607063 8.55988199578 0.0 0.0 0.0 0.0
28 1 62.2758607063 8.65762199578 0.0 0.0 0.0 0.0
29 1 69.4100607063 5.97959199578 0.0 0.0 0.0 0.0
30 1 72.3910607063 5.47167199578 0.0 0.0 0.0 0.0
31 1 1.19835070626 9.93261199578 0.0 0.0 0.0 0.0
32 1 5.82853070626 9.15326199578 0.0 0.0 0.0 0.0
33 1 11.2920607063 9.29355199578 0.0 0.0 0.0 0.0
34 1 19.5352607063 8.81928199578 0.0 0.0 0.0 0.0
35 1 23.0456607063 10.4214119958 0.0 0.0 0.0 0.0
36 1 28.3434607063 10.1421119958 0.0 0.0 0.0 0.0
37 1 33.1409607063 10.9130119958 0.0 0.0 0.0 0.0
38 1 37.4577607063 9.95001199578 0.0 0.0 0.0 0.0
39 1 42.0015607063 7.99635199578 0.0 0.0 0.0 0.0
40 1 49.1117607063 10.3916119958 0.0 0.0 0.0 0.0
41 1 54.1835607063 12.2728119958 0.0 0.0 0.0 0.0
42 1 59.8901607063 13.7131119958 0.0 0.0 0.0 0.0
43 1 64.8884607063 12.6723119958 0.0 0.0 0.0 0.0
44 1 69.6556607063 11.0068119958 0.0 0.0 0.0 0.0
45 1 74.6044607063 10.1126119958 0.0 0.0 0.0 0.0
46 1 1.16681070626 16.5184119958 0.0 0.0 0.0 0.0
47 1 6.10872070626 15.7312119958 0.0 0.0 0.0 0.0
48 1 10.8132607063 15.2501119958 0.0 0.0 0.0 0.0
49 1 15.5732607063 12.4883119958 0.0 0.0 0.0 0.0
50 1 22.1177607063 15.6267119958 0.0 0.0 0.0 0.0
51 1 27.1696607063 16.4477119958 0.0 0.0 0.0 0.0
52 1 31.9137607063 17.4268119958 0.0 0.0 0.0 0.0
53 1 37.6062607063 14.8496119958 0.0 0.0 0.0 0.0
54 1 40.3373607063 13.5499119958 0.0 0.0 0.0 0.0
55 1 45.8341607063 14.0028119958 0.0 0.0 0.0 0.0
56 1 50.3215607063 16.9904119958 0.0 0.0 0.0 0.0
57 1 55.2811607063 15.1072119958 0.0 0.0 0.0 0.0
58 1 63.7666607063 17.5763119958 0.0 0.0 0.0 0.0
59 1 69.0873607063 16.0376119958 0.0 0.0 0.0 0.0
60 1 73.7702607063 14.8387119958 0.0 0.0 0.0 0.0
61 1 5.69279070626 18.7446119958 0.0 0.0 0.0 0.0
62 1 10.2772607063 18.2089119958 0.0 0.0 0.0 0.0
63 1 15.0918607063 17.6389119958 0.0 0.0 0.0 0.0
64 1 20.6197607063 18.2329119958 0.0 0.0 0.0 0.0
65 1 25.3470607063 18.8320119958 0.0 0.0 0.0 0.0
66 1 30.1017607063 19.8027119958 0.0 0.0 0.0 0.0
67 1 34.7508607063 21.8552119958 0.0 0.0 0.0 0.0
68 1 38.3605607063 20.7750119958 0.0 0.0 0.0 0.0
69 1 42.8438607063 17.9718119958 0.0 0.0 0.0 0.0
70 1 48.1098607063 19.0038119958 0.0 0.0 0.0 0.0
71 1 52.9103607063 20.3801119958 0.0 0.0 0.0 0.0
72 1 58.7518607063 19.1900119958 0.0 0.0 0.0 0.0
73 1 68.9289607063 19.9962119958 0.0 0.0 0.0 0.0
74 1 71.9366607063 20.1497119958 0.0 0.0 0.0 0.0
75 1 0.616260706259 19.5101119958 0.0 0.0 0.0 0.0
76 1 2.98251070626 23.6904119958 0.0 0.0 0.0 0.0
77 1 9.21023070626 23.2407119958 0.0 0.0 0.0 0.0
78 1 12.1371607063 22.5753119958 0.0 0.0 0.0 0.0
79 1 17.1480607063 21.9932119958 0.0 0.0 0.0 0.0
80 1 22.5487607063 23.3417119958 0.0 0.0 0.0 0.0
81 1 26.7557607063 23.9337119958 0.0 0.0 0.0 0.0
82 1 31.2096607063 26.8906119958 0.0 0.0 0.0 0.0
83 1 37.0962607063 26.6491119958 0.0 0.0 0.0 0.0
84 1 44.7502607063 25.1707119958 0.0 0.0 0.0 0.0
85 1 43.7260607063 22.3535119958 0.0 0.0 0.0 0.0
86 1 50.2622607063 24.2260119958 0.0 0.0 0.0 0.0
87 1 55.9447607063 24.3893119958 0.0 0.0 0.0 0.0
88 1 62.3342607063 22.7303119958 0.0 0.0 0.0 0.0
89 1 69.4644607063 24.9074119958 0.0 0.0 0.0 0.0
90 1 73.8999607063 22.4473119958 0.0 0.0 0.0 0.0
91 1 3.90181070626 28.5356119958 0.0 0.0 0.0 0.0
92 1 9.08456070626 28.9549119958 0.0 0.0 0.0 0.0
93 1 15.6724607063 26.7592119958 0.0 0.0 0.0 0.0
94 1 20.2058607063 29.1222119958 0.0 0.0 0.0 0.0
95 1 25.0957607063 28.6677119958 0.0 0.0 0.0 0.0
96 1 29.9088607063 29.5791119958 0.0 0.0 0.0 0.0
97 1 34.1633607063 32.6520119958 0.0 0.0 0.0 0.0
98 1 38.0916607063 29.5478119958 0.0 0.0 0.0 0.0
99 1 45.2665607063 30.1345119958 0.0 0.0 0.0 0.0
100 1 50.8855607063 29.4717119958 0.0 0.0 0.0 0.0
101 1 56.2416607063 27.3979119958 0.0 0.0 0.0 0.0
102 1 61.1447607063 29.8073119958 0.0 0.0 0.0 0.0
103 1 67.0958607063 29.4118119958 0.0 0.0 0.0 0.0
104 1 72.3220607063 28.1251119958 0.0 0.0 0.0 0.0
105 1 77.3325607063 27.5795119958 0.0 0.0 0.0 0.0
106 1 0.652560706259 32.8375119958 0.0 0.0 0.0 0.0
107 1 5.96221070626 33.1858119958 0.0 0.0 0.0 0.0
108 1 10.6681607063 31.5487119958 0.0 0.0 0.0 0.0
109 1 18.0528607063 31.1874119958 0.0 0.0 0.0 0.0
110 1 22.4150607063 33.5630119958 0.0 0.0 0.0 0.0
111 1 26.7577607063 33.8244119958 0.0 0.0 0.0 0.0
112 1 31.9069607063 34.6022119958 0.0 0.0 0.0 0.0
113 1 36.9158607063 35.4903119958 0.0 0.0 0.0 0.0
114 1 42.7619607063 35.1419119958 0.0 0.0 0.0 0.0
115 1 50.5857607063 32.4522119958 0.0 0.0 0.0 0.0
116 1 53.5848607063 32.3460119958 0.0 0.0 0.0 0.0
117 1 59.8210607063 32.5301119958 0.0 0.0 0.0 0.0
118 1 65.0337607063 33.0249119958 0.0 0.0 0.0 0.0
119 1 71.5062607063 32.7770119958 0.0 0.0 0.0 0.0
120 1 74.5011607063 32.4820119958 0.0 0.0 0.0 0.0
121 1 3.87315070626 37.3091119958 0.0 0.0 0.0 0.0
122 1 7.77201070626 35.5691119958 0.0 0.0 0.0 0.0
123 1 14.8604607063 34.8350119958 0.0 0.0 0.0 0.0
124 1 18.5973607063 38.9640119958 0.0 0.0 0.0 0.0
125 1 23.9261607063 38.7426119958 0.0 0.0 0.0 0.0
126 1 28.9185607063 38.6911119958 0.0 0.0 0.0 0.0
127 1 33.7719607063 41.0617119958 0.0 0.0 0.0 0.0
128 1 38.3744607063 38.1287119958 0.0 0.0 0.0 0.0
129 1 45.3633607063 38.8184119958 0.0 0.0 0.0 0.0
130 1 50.0612607063 37.0212119958 0.0 0.0 0.0 0.0
131 1 54.8797607063 35.0568119958 0.0 0.0 0.0 0.0
132 1 63.1224607063 37.0702119958 0.0 0.0 0.0 0.0
133 1 66.0633607063 37.5152119958 0.0 0.0 0.0 0.0
134 1 70.4010607063 38.5817119958 0.0 0.0 0.0 0.0
135 1 76.5804607063 37.8490119958 0.0 0.0 0.0 0.0
136 1 3.05347070626 41.3773119958 0.0 0.0 0.0 0.0
137 1 8.35108070626 40.8844119958 0.0 0.0 0.0 0.0
138 1 13.3560607063 39.7491119958 0.0 0.0 0.0 0.0
139 1 16.2073607063 40.7829119958 0.0 0.0 0.0 0.0
140 1 20.7571607063 43.2514119958 0.0 0.0 0.0 0.0
141 1 26.0255607063 43.4455119958 0.0 0.0 0.0 0.0
142 1 31.9719607063 43.4759119958 0.0 0.0 0.0 0.0
143 1 37.6989607063 43.5784119958 0.0 0.0 0.0 0.0
144 1 42.8626607063 43.5501119958 0.0 0.0 0.0 0.0
145 1 49.8896607063 41.9353119958 0.0 0.0 0.0 0.0
146 1 52.4717607063 40.4020119958 0.0 0.0 0.0 0.0
147 1 57.3089607063 40.5169119958 0.0 0.0 0.0 0.0
148 1 62.1444607063 42.0934119958 0.0 0.0 0.0 0.0
149 1 67.1304607063 42.9112119958 0.0 0.0 0.0 0.0
150 1 71.8220607063 41.2424119958 0.0 0.0 0.0 0.0
151 1 1.75122070626 46.1448119958 0.0 0.0 0.0 0.0
152 1 6.89582070626 45.3771119958 0.0 0.0 0.0 0.0
153 1 12.3448607063 44.7041119958 0.0 0.0 0.0 0.0
154 1 16.8534607063 47.9836119958 0.0 0.0 0.0 0.0
155 1 22.7266607063 47.9561119958 0.0 0.0 0.0 0.0
156 1 29.0498607063 47.1948119958 0.0 0.0 0.0 0.0
157 1 34.7323607063 47.4713119958 0.0 0.0 0.0 0.0
158 1 39.9984607063 48.2145119958 0.0 0.0 0.0 0.0
159 1 46.1105607063 48.0851119958 0.0 0.0 0.0 0.0
160 1 50.5496607063 46.7050119958 0.0 0.0 0.0 0.0
161 1 55.1408607063 45.1807119958 0.0 0.0 0.0 0.0
162 1 60.0488607063 47.8232119958 0.0 0.0 0.0 0.0
163 1 64.3804607063 49.3013119958 0.0 0.0 0.0 0.0
164 1 69.5919607063 46.7597119958 0.0 0.0 0.0 0.0
165 1 74.7178607063 45.7500119958 0.0 0.0 0.0 0.0
166 1 76.8511607063 50.4394119958 0.0 0.0 0.0 0.0
167 1 3.95047070626 50.1876119958 0.0 0.0 0.0 0.0
168 1 9.15732070626 49.2871119958 0.0 0.0 0.0 0.0
169 1 14.6943607063 50.0989119958 0.0 0.0 0.0 0.0
170 1 19.9341607063 51.8123119958 0.0 0.0 0.0 0.0
171 1 24.5797607063 50.4139119958 0.0 0.0 0.0 0.0
172 1 32.1289607063 51.2263119958 0.0 0.0 0.0 0.0
173 1 35.6862607063 54.3353119958 0.0 0.0 0.0 0.0
174 1 41.5130607063 50.8449119958 0.0 0.0 0.0 0.0
175 1 50.8525607063 51.5092119958 0.0 0.0 0.0 0.0
176 1 55.2040607063 50.0527119958 0.0 0.0 0.0 0.0
177 1 58.2143607063 50.2079119958 0.0 0.0 0.0 0.0
178 1 62.5315607063 51.7186119958 0.0 0.0 0.0 0.0
179 1 67.4176607063 51.8851119958 0.0 0.0 0.0 0.0
180 1 73.8520607063 50.3768119958 0.0 0.0 0.0 0.0
181 1 1.10486070626 54.8205119958 0.0 0.0 0.0 0.0
182 1 6.08904070626 54.1062119958 0.0 0.0 0.0 0.0
183 1 11.0302607063 53.6989119958 0.0 0.0 0.0 0.0
184 1 15.3770607063 53.0165119958 0.0 0.0 0.0 0.0
185 1 22.0527607063 53.9226119958 0.0 0.0 0.0 0.0
186 1 28.7646607063 55.1467119958 0.0 0.0 0.0 0.0
187 1 33.5185607063 56.3823119958 0.0 0.0 0.0 0.0
188 1 38.5467607063 55.2020119958 0.0 0.0 0.0 0.0
189 1 45.5384607063 56.0215119958 0.0 0.0 0.0 0.0
190 1 50.1581607063 56.7085119958 0.0 0.0 0.0 0.0
191 1 54.6600607063 55.4788119958 0.0 0.0 0.0 0.0
192 1 58.3891607063 58.0330119958 0.0 0.0 0.0 0.0
193 1 64.1664607063 56.4706119958 0.0 0.0 0.0 0.0
194 1 69.2506607063 56.6638119958 0.0 0.0 0.0 0.0
195 1 74.1935607063 55.7523119958 0.0 0.0 0.0 0.0
196 1 76.9979607063 59.8652119958 0.0 0.0 0.0 0.0
197 1 3.65045070626 59.0934119958 0.0 0.0 0.0 0.0
198 1 8.61647070626 58.5633119958 0.0 0.0 0.0 0.0
199 1 13.8456607063 58.3271119958 0.0 0.0 0.0 0.0
200 1 18.7324607063 57.1344119958 0.0 0.0 0.0 0.0
201 1 25.8925607063 59.4657119958 0.0 0.0 0.0 0.0
202 1 30.4692607063 60.3989119958 0.0 0.0 0.0 0.0
203 1 35.4715607063 58.6383119958 0.0 0.0 0.0 0.0
204 1 42.8199607063 59.5730119958 0.0 0.0 0.0 0.0
205 1 47.3740607063 61.2188119958 0.0 0.0 0.0 0.0
206 1 52.3276607063 60.9756119958 0.0 0.0 0.0 0.0
207 1 56.7586607063 60.6124119958 0.0 0.0 0.0 0.0
208 1 61.9091607063 60.5866119958 0.0 0.0 0.0 0.0
209 1 67.4349607063 61.0795119958 0.0 0.0 0.0 0.0
210 1 72.4471607063 60.7771119958 0.0 0.0 0.0 0.0
211 1 1.38443070626 64.2589119958 0.0 0.0 0.0 0.0
212 1 6.48804070626 63.4597119958 0.0 0.0 0.0 0.0
213 1 11.7655607063 62.8370119958 0.0 0.0 0.0 0.0
214 1 15.7519607063 60.6339119958 0.0 0.0 0.0 0.0
215 1 22.1465607063 64.7913119958 0.0 0.0 0.0 0.0
216 1 26.3620607063 62.5299119958 0.0 0.0 0.0 0.0
217 1 33.8522607063 63.7284119958 0.0 0.0 0.0 0.0
218 1 39.4725607063 63.6234119958 0.0 0.0 0.0 0.0
219 1 43.8899607063 65.0428119958 0.0 0.0 0.0 0.0
220 1 49.1955607063 65.7815119958 0.0 0.0 0.0 0.0
221 1 54.4167607063 65.9069119958 0.0 0.0 0.0 0.0
222 1 60.7724607063 64.7016119958 0.0 0.0 0.0 0.0
223 1 63.3282607063 63.1938119958 0.0 0.0 0.0 0.0
224 1 69.9838607063 65.5557119958 0.0 0.0 0.0 0.0
225 1 74.7805607063 65.1853119958 0.0 0.0 0.0 0.0
226 1 77.5393607063 69.5129119958 0.0 0.0 0.0 0.0
227 1 4.63961070626 68.3203119958 0.0 0.0 0.0 0.0
228 1 10.0859607063 67.3912119958 0.0 0.0 0.0 0.0
229 1 15.6033607063 66.2729119958 0.0 0.0 0.0 0.0
230 1 20.6363607063 67.3843119958 0.0 0.0 0.0 0.0
231 1 25.3027607063 68.4329119958 0.0 0.0 0.0 0.0
232 1 33.0559607063 67.8643119958 0.0 0.0 0.0 0.0
233 1 36.0661607063 67.5912119958 0.0 0.0 0.0 0.0
234 1 39.3894607063 71.3223119958 0.0 0.0 0.0 0.0
235 1 45.0922607063 69.6101119958 0.0 0.0 0.0 0.0
236 1 50.9002607063 70.3320119958 0.0 0.0 0.0 0.0
237 1 58.0875607063 70.5264119958 0.0 0.0 0.0 0.0
238 1 61.0890607063 70.2076119958 0.0 0.0 0.0 0.0
239 1 66.2045607063 69.4802119958 0.0 0.0 0.0 0.0
240 1 71.7521607063 70.0758119958 0.0 0.0 0.0 0.0
241 1 2.66833070626 73.2460119958 0.0 0.0 0.0 0.0
242 1 8.25114070626 71.9139119958 0.0 0.0 0.0 0.0
243 1 13.9696607063 70.6906119958 0.0 0.0 0.0 0.0
244 1 16.9390607063 71.2145119958 0.0 0.0 0.0 0.0
245 1 21.6732607063 72.5836119958 0.0 0.0 0.0 0.0
246 1 26.4987607063 71.2519119958 0.0 0.0 0.0 0.0
247 1 33.9625607063 73.0369119958 0.0 0.0 0.0 0.0
248 1 37.6381607063 76.2322119958 0.0 0.0 0.0 0.0
249 1 42.4435607063 74.1821119958 0.0 0.0 0.0 0.0
250 1 47.6820607063 73.7128119958 0.0 0.0 0.0 0.0
251 1 51.8965607063 73.2125119958 0.0 0.0 0.0 0.0
252 1 59.0532607063 75.9555119958 0.0 0.0 0.0 0.0
253 1 65.4770607063 73.9848119958 0.0 0.0 0.0 0.0
254 1 68.4955607063 73.8612119958 0.0 0.0 0.0 0.0
255 1 73.0988607063 72.7674119958 0.0 0.0 0.0 0.0
256 1 78.0324607063 2.70851199578 0.0 0.0 0.0 0.0
257 1 4.81334070626 81.0636119958 0.0 0.0 0.0 0.0
258 1 9.98256070626 80.8658119958 0.0 0.0 0.0 0.0
259 1 14.9583607063 1.54924199578 0.0 0.0 0.0 0.0
260 1 19.4389607063 2.74071199578 0.0 0.0 0.0 0.0
261 1 22.4616607063 2.76146199578 0.0 0.0 0.0 0.0
262 1 28.7430607063 2.08543199578 0.0 0.0 0.0 0.0
263 1 33.8430607063 2.90679199578 0.0 0.0 0.0 0.0
264 1 41.5732607063 5.01612199578 0.0 0.0 0.0 0.0
265 1 46.3309607063 3.16630199578 0.0 0.0 0.0 0.0
266 1 51.8875607063 4.29093199578 0.0 0.0 0.0 0.0
267 1 57.5082607063 3.36521199578 0.0 0.0 0.0 0.0
268 1 62.2196607063 5.63204199578 0.0 0.0 0.0 0.0
269 1 67.5293607063 3.62825199578 0.0 0.0 0.0 0.0
270 1 72.6776607063 2.47824199578 0.0 0.0 0.0 0.0
271 1 77.9307607063 7.24997199578 0.0 0.0 0.0 0.0
272 1 4.72400070626 6.28609199578 0.0 0.0 0.0 0.0
273 1 12.2247607063 6.42730199578 0.0 0.0 0.0 0.0
274 1 17.5253607063 5.07116199578 0.0 0.0 0.0 0.0
275 1 22.2774607063 7.52476199578 0.0 0.0 0.0 0.0
276 1 27.2750607063 4.76236199578 0.0 0.0 0.0 0.0
277 1 31.9316607063 8.13101199578 0.0 0.0 0.0 0.0
278 1 36.7085607063 7.04356199578 0.0 0.0 0.0 0.0
279 1 44.9734607063 8.31393199578 0.0 0.0 0.0 0.0
280 1 49.6703607063 7.46758199578 0.0 0.0 0.0 0.0
281 1 54.8719607063 9.30734199578 0.0 0.0 0.0 0.0
282 1 59.9865607063 10.6595119958 0.0 0.0 0.0 0.0
283 1 65.0986607063 9.67641199578 0.0 0.0 0.0 0.0
284 1 67.9040607063 8.57828199578 0.0 0.0 0.0 0.0
285 1 74.9138607063 7.13272199578 0.0 0.0 0.0 0.0
286 1 77.0295607063 11.8726119958 0.0 0.0 0.0 0.0
287 1 3.80992070626 11.4167119958 0.0 0.0 0.0 0.0
288 1 8.52374070626 10.5743119958 0.0 0.0 0.0 0.0
289 1 14.2678607063 9.79131199578 0.0 0.0 0.0 0.0
290 1 21.1891607063 12.7889119958 0.0 0.0 0.0 0.0
291 1 25.7593607063 11.6432119958 0.0 0.0 0.0 0.0
292 1 30.4701607063 12.2633119958 0.0 0.0 0.0 0.0
293 1 35.7628607063 12.4309119958 0.0 0.0 0.0 0.0
294 1 40.3925607063 10.5410119958 0.0 0.0 0.0 0.0
295 1 46.1924607063 11.0397119958 0.0 0.0 0.0 0.0
296 1 51.1797607063 12.5382119958 0.0 0.0 0.0 0.0
297 1 58.1082607063 16.1882119958 0.0 0.0 0.0 0.0
298 1 62.7182607063 14.7498119958 0.0 0.0 0.0 0.0
299 1 67.8014607063 13.3456119958 0.0 0.0 0.0 0.0
300 1 72.4237607063 12.1491119958 0.0 0.0 0.0 0.0
301 1 3.39239070626 14.4342119958 0.0 0.0 0.0 0.0
302 1 8.28975070626 13.6097119958 0.0 0.0 0.0 0.0
303 1 13.8095607063 14.9233119958 0.0 0.0 0.0 0.0
304 1 18.4557607063 11.6319119958 0.0 0.0 0.0 0.0
305 1 24.9056607063 14.5145119958 0.0 0.0 0.0 0.0
306 1 29.9102607063 15.2110119958 0.0 0.0 0.0 0.0
307 1 34.5589607063 18.8445119958 0.0 0.0 0.0 0.0
308 1 37.3881607063 17.8861119958 0.0 0.0 0.0 0.0
309 1 42.9853607063 14.9804119958 0.0 0.0 0.0 0.0
310 1 48.8238607063 14.4115119958 0.0 0.0 0.0 0.0
311 1 53.3029607063 17.3965119958 0.0 0.0 0.0 0.0
312 1 61.7121607063 19.7807119958 0.0 0.0 0.0 0.0
313 1 66.7630607063 17.9212119958 0.0 0.0 0.0 0.0
314 1 71.8811607063 17.1552119958 0.0 0.0 0.0 0.0
315 1 76.7678607063 14.8554119958 0.0 0.0 0.0 0.0
316 1 3.37903070626 20.6953119958 0.0 0.0 0.0 0.0
317 1 8.20659070626 20.3905119958 0.0 0.0 0.0 0.0
318 1 12.8863607063 19.6700119958 0.0 0.0 0.0 0.0
319 1 17.7314607063 19.0464119958 0.0 0.0 0.0 0.0
320 1 22.7550607063 20.3369119958 0.0 0.0 0.0 0.0
321 1 27.3643607063 21.0119119958 0.0 0.0 0.0 0.0
322 1 31.8030607063 22.2490119958 0.0 0.0 0.0 0.0
323 1 37.2031607063 23.5907119958 0.0 0.0 0.0 0.0
324 1 41.3364607063 20.5557119958 0.0 0.0 0.0 0.0
325 1 45.2286607063 19.7669119958 0.0 0.0 0.0 0.0
326 1 50.0441607063 21.2525119958 0.0 0.0 0.0 0.0
327 1 57.9696607063 22.1484119958 0.0 0.0 0.0 0.0
328 1 64.9802607063 24.1329119958 0.0 0.0 0.0 0.0
329 1 67.5502607063 22.6246119958 0.0 0.0 0.0 0.0
330 1 76.8833607063 21.9419119958 0.0 0.0 0.0 0.0
331 1 5.13454070626 25.7957119958 0.0 0.0 0.0 0.0
332 1 8.14404070626 26.0690119958 0.0 0.0 0.0 0.0
333 1 14.8158607063 23.8934119958 0.0 0.0 0.0 0.0
334 1 19.5849607063 23.7319119958 0.0 0.0 0.0 0.0
335 1 24.3763607063 25.7379119958 0.0 0.0 0.0 0.0
336 1 29.6966607063 24.3510119958 0.0 0.0 0.0 0.0
337 1 34.1649607063 27.3084119958 0.0 0.0 0.0 0.0
338 1 41.0896607063 29.7884119958 0.0 0.0 0.0 0.0
339 1 43.3473607063 27.8233119958 0.0 0.0 0.0 0.0
340 1 47.6921607063 25.7876119958 0.0 0.0 0.0 0.0
341 1 53.1388607063 23.3732119958 0.0 0.0 0.0 0.0
342 1 59.9010607063 24.4727119958 0.0 0.0 0.0 0.0
343 1 66.8939607063 26.4345119958 0.0 0.0 0.0 0.0
344 1 72.4554607063 25.1088119958 0.0 0.0 0.0 0.0
345 1 0.118880706259 24.6636119958 0.0 0.0 0.0 0.0
346 1 1.19996070626 29.8581119958 0.0 0.0 0.0 0.0
347 1 6.37248070626 30.2252119958 0.0 0.0 0.0 0.0
348 1 15.4359607063 29.7349119958 0.0 0.0 0.0 0.0
349 1 18.6611607063 26.5689119958 0.0 0.0 0.0 0.0
350 1 22.8069607063 30.5893119958 0.0 0.0 0.0 0.0
351 1 27.1839607063 30.8326119958 0.0 0.0 0.0 0.0
352 1 32.8617607063 29.9979119958 0.0 0.0 0.0 0.0
353 1 37.1527607063 32.4629119958 0.0 0.0 0.0 0.0
354 1 42.9906607063 32.1232119958 0.0 0.0 0.0 0.0
355 1 47.9605607063 28.7753119958 0.0 0.0 0.0 0.0
356 1 53.9047607063 29.3452119958 0.0 0.0 0.0 0.0
357 1 59.2620607063 27.4340119958 0.0 0.0 0.0 0.0
358 1 64.1676607063 30.1596119958 0.0 0.0 0.0 0.0
359 1 70.0458607063 30.1257119958 0.0 0.0 0.0 0.0
360 1 74.9954607063 29.4964119958 0.0 0.0 0.0 0.0
361 1 3.22603070626 34.3783119958 0.0 0.0 0.0 0.0
362 1 10.5807607063 34.5777119958 0.0 0.0 0.0 0.0
363 1 13.6124607063 32.0888119958 0.0 0.0 0.0 0.0
364 1 19.4396607063 33.8362119958 0.0 0.0 0.0 0.0
365 1 24.4472607063 35.7619119958 0.0 0.0 0.0 0.0
366 1 29.1052607063 35.6847119958 0.0 0.0 0.0 0.0
367 1 34.1024607063 36.6247119958 0.0 0.0 0.0 0.0
368 1 41.3760607063 37.8571119958 0.0 0.0 0.0 0.0
369 1 45.6823607063 35.8231119958 0.0 0.0 0.0 0.0
370 1 48.4051607063 34.5278119958 0.0 0.0 0.0 0.0
371 1 57.8779607063 34.8433119958 0.0 0.0 0.0 0.0
372 1 62.2940607063 34.2141119958 0.0 0.0 0.0 0.0
373 1 67.4147607063 34.8482119958 0.0 0.0 0.0 0.0
374 1 70.3309607063 35.5524119958 0.0 0.0 0.0 0.0
375 1 76.4467607063 34.7955119958 0.0 0.0 0.0 0.0
376 1 1.33312070626 38.8936119958 0.0 0.0 0.0 0.0
377 1 6.70017070626 38.3602119958 0.0 0.0 0.0 0.0
378 1 12.6140607063 36.8137119958 0.0 0.0 0.0 0.0
379 1 17.5609607063 36.1497119958 0.0 0.0 0.0 0.0
380 1 21.3122607063 40.2729119958 0.0 0.0 0.0 0.0
381 1 26.4263607063 40.4340119958 0.0 0.0 0.0 0.0
382 1 31.9389607063 38.7174119958 0.0 0.0 0.0 0.0
383 1 36.7863607063 40.7097119958 0.0 0.0 0.0 0.0
384 1 42.8715607063 40.4996119958 0.0 0.0 0.0 0.0
385 1 48.2782607063 39.4326119958 0.0 0.0 0.0 0.0
386 1 53.0276607063 37.4417119958 0.0 0.0 0.0 0.0
387 1 58.5354607063 37.7879119958 0.0 0.0 0.0 0.0
388 1 61.1416607063 39.2753119958 0.0 0.0 0.0 0.0
389 1 67.7389607063 39.9741119958 0.0 0.0 0.0 0.0
390 1 74.6885607063 40.2426119958 0.0 0.0 0.0 0.0
391 1 0.785890706259 43.3225119958 0.0 0.0 0.0 0.0
392 1 5.84788070626 42.5533119958 0.0 0.0 0.0 0.0
393 1 11.2199607063 41.8813119958 0.0 0.0 0.0 0.0
394 1 17.6933607063 43.4151119958 0.0 0.0 0.0 0.0
395 1 23.3180607063 44.9387119958 0.0 0.0 0.0 0.0
396 1 28.9888607063 44.1950119958 0.0 0.0 0.0 0.0
397 1 34.8178607063 44.5065119958 0.0 0.0 0.0 0.0
398 1 40.2893607063 45.1784119958 0.0 0.0 0.0 0.0
399 1 45.4672607063 45.1317119958 0.0 0.0 0.0 0.0
400 1 48.4372607063 44.5577119958 0.0 0.0 0.0 0.0
401 1 54.8419607063 42.2045119958 0.0 0.0 0.0 0.0
402 1 59.2483607063 42.8063119958 0.0 0.0 0.0 0.0
403 1 64.3621607063 44.1118119958 0.0 0.0 0.0 0.0
404 1 70.0259607063 43.7408119958 0.0 0.0 0.0 0.0
405 1 75.9046607063 42.9893119958 0.0 0.0 0.0 0.0
406 1 77.1758607063 47.4712119958 0.0 0.0 0.0 0.0
407 1 4.53283070626 47.2425119958 0.0 0.0 0.0 0.0
408 1 9.76456070626 46.3261119958 0.0 0.0 0.0 0.0
409 1 15.3501607063 45.3496119958 0.0 0.0 0.0 0.0
410 1 19.7949607063 48.7954119958 0.0 0.0 0.0 0.0
411 1 27.5066607063 49.7682119958 0.0 0.0 0.0 0.0
412 1 31.8468607063 48.2555119958 0.0 0.0 0.0 0.0
413 1 37.1577607063 49.2152119958 0.0 0.0 0.0 0.0
414 1 44.5026607063 50.6121119958 0.0 0.0 0.0 0.0
415 1 48.9149607063 49.2012119958 0.0 0.0 0.0 0.0
416 1 53.4168607063 47.6191119958 0.0 0.0 0.0 0.0
417 1 58.1003607063 45.5617119958 0.0 0.0 0.0 0.0
418 1 62.8568607063 46.7274119958 0.0 0.0 0.0 0.0
419 1 67.3828607063 48.8739119958 0.0 0.0 0.0 0.0
420 1 72.4447607063 47.7161119958 0.0 0.0 0.0 0.0
421 1 1.41312070626 51.8288119958 0.0 0.0 0.0 0.0
422 1 6.78347070626 51.1743119958 0.0 0.0 0.0 0.0
423 1 11.7598607063 50.7786119958 0.0 0.0 0.0 0.0
424 1 18.1079607063 54.1966119958 0.0 0.0 0.0 0.0
425 1 24.9857607063 53.4623119958 0.0 0.0 0.0 0.0
426 1 29.2958607063 52.1919119958 0.0 0.0 0.0 0.0
427 1 35.1246607063 51.4170119958 0.0 0.0 0.0 0.0
428 1 41.2155607063 53.8625119958 0.0 0.0 0.0 0.0
429 1 46.1945607063 53.1017119958 0.0 0.0 0.0 0.0
430 1 49.0823607063 53.9051119958 0.0 0.0 0.0 0.0
431 1 53.6471607063 52.6256119958 0.0 0.0 0.0 0.0
432 1 59.6902607063 52.8230119958 0.0 0.0 0.0 0.0
433 1 64.9017607063 53.5540119958 0.0 0.0 0.0 0.0
434 1 69.7822607063 53.7157119958 0.0 0.0 0.0 0.0
435 1 72.7210607063 53.1446119958 0.0 0.0 0.0 0.0
436 1 76.9829607063 56.8493119958 0.0 0.0 0.0 0.0
437 1 3.81796070626 56.0856119958 0.0 0.0 0.0 0.0
438 1 8.69024070626 55.5686119958 0.0 0.0 0.0 0.0
439 1 13.5161607063 55.3528119958 0.0 0.0 0.0 0.0
440 1 21.7025607063 56.8948119958 0.0 0.0 0.0 0.0
441 1 26.0361607063 56.3656119958 0.0 0.0 0.0 0.0
442 1 30.7056607063 57.4138119958 0.0 0.0 0.0 0.0
443 1 38.4173607063 58.1898119958 0.0 0.0 0.0 0.0
444 1 42.6065607063 56.5553119958 0.0 0.0 0.0 0.0
445 1 47.5779607063 58.2248119958 0.0 0.0 0.0 0.0
446 1 52.8876607063 57.9667119958 0.0 0.0 0.0 0.0
447 1 57.6693607063 55.1098119958 0.0 0.0 0.0 0.0
448 1 61.3962607063 57.6571119958 0.0 0.0 0.0 0.0
449 1 66.6520607063 58.1732119958 0.0 0.0 0.0 0.0
450 1 72.0189607063 57.8155119958 0.0 0.0 0.0 0.0
451 1 1.55051070626 61.2472119958 0.0 0.0 0.0 0.0
452 1 6.30653070626 60.4675119958 0.0 0.0 0.0 0.0
453 1 11.2957607063 59.8837119958 0.0 0.0 0.0 0.0
454 1 18.6850607063 60.1365119958 0.0 0.0 0.0 0.0
455 1 22.9123607063 59.6360119958 0.0 0.0 0.0 0.0
456 1 29.2984607063 63.1698119958 0.0 0.0 0.0 0.0
457 1 33.4272607063 60.7921119958 0.0 0.0 0.0 0.0
458 1 40.0533607063 60.6884119958 0.0 0.0 0.0 0.0
459 1 44.4998607063 62.0813119958 0.0 0.0 0.0 0.0
460 1 49.9126607063 62.8257119958 0.0 0.0 0.0 0.0
461 1 54.6904607063 62.8477119958 0.0 0.0 0.0 0.0
462 1 59.3345607063 62.1042119958 0.0 0.0 0.0 0.0
463 1 66.2222607063 63.8191119958 0.0 0.0 0.0 0.0
464 1 70.0430607063 62.5467119958 0.0 0.0 0.0 0.0
465 1 75.0804607063 62.1854119958 0.0 0.0 0.0 0.0
466 1 77.4677607063 66.5001119958 0.0 0.0 0.0 0.0
467 1 4.16881070626 65.3600119958 0.0 0.0 0.0 0.0
468 1 9.29168070626 64.5119119958 0.0 0.0 0.0 0.0
469 1 14.6985607063 63.4282119958 0.0 0.0 0.0 0.0
470 1 21.0517607063 61.9856119958 0.0 0.0 0.0 0.0
471 1 25.1137607063 65.3475119958 0.0 0.0 0.0 0.0
472 1 31.3574607063 65.3772119958 0.0 0.0 0.0 0.0
473 1 36.6755607063 64.6650119958 0.0 0.0 0.0 0.0
474 1 41.0793607063 66.1565119958 0.0 0.0 0.0 0.0
475 1 46.3196607063 66.8284119958 0.0 0.0 0.0 0.0
476 1 51.7561607063 67.4123119958 0.0 0.0 0.0 0.0
477 1 56.8109607063 67.7967119958 0.0 0.0 0.0 0.0
478 1 59.8052607063 67.5027119958 0.0 0.0 0.0 0.0
479 1 67.1947607063 66.6477119958 0.0 0.0 0.0 0.0
480 1 72.5122607063 67.1634119958 0.0 0.0 0.0 0.0
481 1 2.34521070626 70.2616119958 0.0 0.0 0.0 0.0
482 1 7.56095070626 69.0083119958 0.0 0.0 0.0 0.0
483 1 13.0559607063 67.8416119958 0.0 0.0 0.0 0.0
484 1 17.7921607063 68.3240119958 0.0 0.0 0.0 0.0
485 1 22.5522607063 69.6893119958 0.0 0.0 0.0 0.0
486 1 29.4192607063 72.1099119958 0.0 0.0 0.0 0.0
487 1 32.0728607063 70.6950119958 0.0 0.0 0.0 0.0
488 1 38.9788607063 68.3459119958 0.0 0.0 0.0 0.0
489 1 42.4401607063 71.1771119958 0.0 0.0 0.0 0.0
490 1 47.9025607063 70.7314119958 0.0 0.0 0.0 0.0
491 1 54.6355607063 74.4627119958 0.0 0.0 0.0 0.0
492 1 57.4456607063 73.4338119958 0.0 0.0 0.0 0.0
493 1 63.8827607063 71.4014119958 0.0 0.0 0.0 0.0
494 1 68.8614607063 70.8825119958 0.0 0.0 0.0 0.0
495 1 76.0434607063 72.1324119958 0.0 0.0 0.0 0.0
496 1 77.9839607063 74.4330119958 0.0 0.0 0.0 0.0
497 1 5.68042070626 73.4952119958 0.0 0.0 0.0 0.0
498 1 11.2698607063 72.0059119958 0.0 0.0 0.0 0.0
499 1 12.2483607063 74.8197119958 0.0 0.0 0.0 0.0
500 1 18.7994607063 73.6026119958 0.0 0.0 0.0 0.0
501 1 24.5274607063 73.5891119958 0.0 0.0 0.0 0.0
502 1 31.2972607063 74.4826119958 0.0 0.0 0.0 0.0
503 1 37.0094607063 73.2648119958 0.0 0.0 0.0 0.0
504 1 40.6449607063 76.5896119958 0.0 0.0 0.0 0.0
505 1 45.1923607063 75.3481119958 0.0 0.0 0.0 0.0
506 1 50.0148607063 75.5827119958 0.0 0.0 0.0 0.0
507 1 56.2371607063 76.9952119958 0.0 0.0 0.0 0.0
508 1 61.6381607063 77.5004119958 0.0 0.0 0.0 0.0
509 1 64.5804607063 76.8623119958 0.0 0.0 0.0 0.0
510 1 71.2292607063 75.1469119958 0.0 0.0 0.0 0.0
511 1 6.77528070626 76.2787119958 0.0 0.0 0.0 0.0
512 1 9.77316070626 76.4898119958 0.0 0.0 0.0 0.0
513 1 14.4382607063 76.8739119958 0.0 0.0 0.0 0.0
514 1 19.2941607063 78.7306119958 0.0 0.0 0.0 0.0
515 1 24.7708607063 76.6190119958 0.0 0.0 0.0 0.0
516 1 30.5208607063 77.4029119958 0.0 0.0 0.0 0.0
517 1 35.9595607063 78.7635119958 0.0 0.0 0.0 0.0
518 1 42.7194607063 78.7993119958 0.0 0.0 0.0 0.0
519 1 45.7035607063 78.2948119958 0.0 0.0 0.0 0.0
520 1 50.3553607063 80.8792119958 0.0 0.0 0.0 0.0
521 1 56.0742607063 79.9763119958 0.0 0.0 0.0 0.0
522 1 61.3653607063 80.4966119958 0.0 0.0 0.0 0.0
523 1 66.1936607063 79.4195119958 0.0 0.0 0.0 0.0
524 1 71.7822607063 78.1256119958 0.0 0.0 0.0 0.0
525 1 76.8540607063 77.2361119958 0.0 0.0 0.0 0.0
526 1 1.44317070626 78.5611119958 0.0 0.0 0.0 0.0
527 1 4.40159070626 78.1037119958 0.0 0.0 0.0 0.0
528 1 11.9246607063 78.5710119958 0.0 0.0 0.0 0.0
529 1 17.4394607063 76.3300119958 0.0 0.0 0.0 0.0
530 1 22.3458607063 78.4821119958 0.0 0.0 0.0 0.0
531 1 27.5161607063 77.9483119958 0.0 0.0 0.0 0.0
532 1 32.9181607063 79.2920119958 0.0 0.0 0.0 0.0
533 1 38.2542607063 80.7783119958 0.0 0.0 0.0 0.0
534 1 41.2471607063 0.32777999578 0.0 0.0 0.0 0.0
535 1 48.7353607063 78.3322119958 0.0 0.0 0.0 0.0
536 1 53.3491607063 0.12091699578 0.0 0.0 0.0 0.0
537 1 58.5797607063 0.55693199578 0.0 0.0 0.0 0.0
538 1 64.1477607063 0.56712199578 0.0 0.0 0.0 0.0
539 1 69.2102607063 79.7358119958 0.0 0.0 0.0 0.0
540 1 74.6058607063 79.2731119958 0.0 0.0 0.0 0.0
541 2 3.37643070626 0.41269199578 0.0 0.0 0.0 0.0
542 2 1.51637070626 80.0631119958 0.0 0.0 0.0 0.0
543 2 0.908550706259 1.55935199578 0.0 0.0 0.0 0.0
544 2 6.11484070626 0.68478199578 0.0 0.0 0.0 0.0
545 2 8.65304070626 0.49731199578 0.0 0.0 0.0 0.0
546 2 7.18621070626 2.87112199578 0.0 0.0 0.0 0.0
547 2 10.9967607063 0.86525199578 0.0 0.0 0.0 0.0
548 2 13.4325607063 1.55267199578 0.0 0.0 0.0 0.0
549 2 11.0586607063 3.16567199578 0.0 0.0 0.0 0.0
550 2 18.4795607063 80.0273119958 0.0 0.0 0.0 0.0
551 2 18.6252607063 1.46926199578 0.0 0.0 0.0 0.0
552 2 16.2689607063 0.77357199578 0.0 0.0 0.0 0.0
553 2 23.1149607063 1.40261199578 0.0 0.0 0.0 0.0
554 2 23.0084607063 79.8462119958 0.0 0.0 0.0 0.0
555 2 25.2861607063 81.0587119958 0.0 0.0 0.0 0.0
556 2 27.2103607063 79.4311119958 0.0 0.0 0.0 0.0
557 2 27.7559607063 0.93636199578 0.0 0.0 0.0 0.0
558 2 32.2384607063 80.6608119958 0.0 0.0 0.0 0.0
559 2 30.1663607063 1.53106199578 0.0 0.0 0.0 0.0
560 2 32.6860607063 1.95812199578 0.0 0.0 0.0 0.0
561 2 37.5032607063 0.99299199578 0.0 0.0 0.0 0.0
562 2 37.7236607063 3.48085199578 0.0 0.0 0.0 0.0
563 2 35.3026607063 2.52372199578 0.0 0.0 0.0 0.0
564 2 44.8598607063 2.74536199578 0.0 0.0 0.0 0.0
565 2 42.2941607063 1.44295199578 0.0 0.0 0.0 0.0
566 2 42.5054607063 3.83711199578 0.0 0.0 0.0 0.0
567 2 50.5556607063 3.54483199578 0.0 0.0 0.0 0.0
568 2 49.7786607063 1.17742199578 0.0 0.0 0.0 0.0
569 2 47.8160607063 2.78765199578 0.0 0.0 0.0 0.0
570 2 53.9488607063 1.49700199578 0.0 0.0 0.0 0.0
571 2 53.2384607063 3.63051199578 0.0 0.0 0.0 0.0
572 2 56.0024607063 3.21457199578 0.0 0.0 0.0 0.0
573 2 58.3261607063 4.62298199578 0.0 0.0 0.0 0.0
574 2 60.6925607063 5.62107199578 0.0 0.0 0.0 0.0
575 2 58.4774607063 7.19344199578 0.0 0.0 0.0 0.0
576 2 64.2817607063 2.07107199578 0.0 0.0 0.0 0.0
577 2 66.0142607063 3.67263199578 0.0 0.0 0.0 0.0
578 2 63.3534607063 4.60318199578 0.0 0.0 0.0 0.0
579 2 69.4978607063 0.12319199578 0.0 0.0 0.0 0.0
580 2 71.2460607063 1.98345199578 0.0 0.0 0.0 0.0
581 2 68.5965607063 2.54419199578 0.0 0.0 0.0 0.0
582 2 75.0473607063 80.7310119958 0.0 0.0 0.0 0.0
583 2 76.6639607063 1.99448199578 0.0 0.0 0.0 0.0
584 2 74.0350607063 1.82244199578 0.0 0.0 0.0 0.0
585 2 0.859820706259 6.16501199578 0.0 0.0 0.0 0.0
586 2 0.912650706259 3.88283199578 0.0 0.0 0.0 0.0
587 2 3.32929070626 5.63671199578 0.0 0.0 0.0 0.0
588 2 5.91254070626 5.32034199578 0.0 0.0 0.0 0.0
589 2 8.61021070626 4.50430199578 0.0 0.0 0.0 0.0
590 2 11.0805607063 5.46457199578 0.0 0.0 0.0 0.0
591 2 14.7661607063 3.04878199578 0.0 0.0 0.0 0.0
592 2 13.4718607063 5.55540199578 0.0 0.0 0.0 0.0
593 2 16.0569607063 4.78410199578 0.0 0.0 0.0 0.0
594 2 18.1062607063 8.38170199578 0.0 0.0 0.0 0.0
595 2 17.1425607063 6.51948199578 0.0 0.0 0.0 0.0
596 2 15.4107607063 8.78121199578 0.0 0.0 0.0 0.0
597 2 25.7622607063 5.00500199578 0.0 0.0 0.0 0.0
598 2 23.3592607063 3.97191199578 0.0 0.0 0.0 0.0