# input file

1350 atoms
2 atom types

0.0 76.3865245219 xlo xhi
0.0 83.2153971339 ylo yhi
-10.0 10.0 zlo zhi
0.0 0.0 0.0 xy xz yz

Masses

1 28.0855 #Si
2 15.9994 #O

Atoms

1 1 3.44213003778 0.465409866965 0.0
2 1 8.00688003778 3.70261856697 0.0
3 1 13.5694000378 2.37108856697 0.0
4 1 20.5965000378 1.41308356697 0.0
5 1 23.5769000378 1.03355756697 0.0
6 1 28.5102000378 1.57295856697 0.0
7 1 33.6521000378 1.72453856697 0.0
8 1 39.2252000378 1.81260856697 0.0
9 1 46.3550000378 1.35913156697 0.0
10 1 49.3860000378 1.59760856697 0.0
11 1 55.5333000378 1.05273656697 0.0
12 1 58.5279000378 0.880916566965 0.0
13 1 63.3993000378 1.17586256697 0.0
14 1 68.6383000378 1.97008856697 0.0
15 1 74.5226000378 1.27104856697 0.0
16 1 0.901210037776 5.21667856697 0.0
17 1 6.23825003778 6.12875856697 0.0
18 1 11.1244000378 6.97007856697 0.0
19 1 15.9329000378 6.92637856697 0.0
20 1 20.5789000378 6.68182856697 0.0
21 1 25.5551000378 5.96142856697 0.0
22 1 30.6257000378 6.16899856697 0.0
23 1 35.6762000378 5.92234856697 0.0
24 1 40.8023000378 6.54590856697 0.0
25 1 45.8453000378 6.63058856697 0.0
26 1 50.9447000378 6.98484856697 0.0
27 1 55.8582000378 6.46517856697 0.0
28 1 61.6604000378 5.66100856697 0.0
29 1 64.7192000378 5.74946856697 0.0
30 1 69.9373000378 4.66839856697 0.0
31 1 2.58608003778 9.85276856697 0.0
32 1 7.75038003778 11.112098567 0.0
33 1 14.7409000378 11.468598567 0.0
34 1 17.7387000378 11.611998567 0.0
35 1 24.3452000378 10.768798567 0.0
36 1 27.3512000378 10.588198567 0.0
37 1 32.3307000378 10.567398567 0.0
38 1 37.6522000378 10.742798567 0.0
39 1 43.1102000378 11.212798567 0.0
40 1 47.9618000378 11.475398567 0.0
41 1 53.4129000378 11.542298567 0.0
42 1 58.2479000378 12.149498567 0.0
43 1 62.7972000378 10.910998567 0.0
44 1 68.2447000378 9.59767856697 0.0
45 1 73.8175000378 9.28370856697 0.0
46 1 0.289260037776 14.081998567 0.0
47 1 4.75468003778 14.822098567 0.0
48 1 8.80230003778 18.316598567 0.0
49 1 13.8098000378 16.395798567 0.0
50 1 18.9434000378 16.686598567 0.0
51 1 23.9349000378 16.097898567 0.0
52 1 29.3825000378 15.271998567 0.0
53 1 34.5371000378 15.022298567 0.0
54 1 40.0678000378 15.202698567 0.0
55 1 45.4100000378 18.477398567 0.0
56 1 50.6770000378 15.871298567 0.0
57 1 55.6633000378 16.696798567 0.0
58 1 61.7404000378 16.186498567 0.0
59 1 66.9068000378 14.206098567 0.0
60 1 71.5330000378 13.591298567 0.0
61 1 2.31819003778 19.420198567 0.0
62 1 8.75380003778 21.288798567 0.0
63 1 11.7163000378 21.560598567 0.0
64 1 16.2846000378 21.071998567 0.0
65 1 20.2371000378 19.392198567 0.0
66 1 27.1647000378 19.824398567 0.0
67 1 30.6249000378 18.017298567 0.0
68 1 37.5418000378 19.160498567 0.0
69 1 41.6084000378 17.775398567 0.0
70 1 48.0594000378 20.696198567 0.0
71 1 53.1164000378 20.918898567 0.0
72 1 57.0278000378 19.427098567 0.0
73 1 65.0036000378 19.230698567 0.0
74 1 70.8404000378 18.508698567 0.0
75 1 73.8350000378 18.346498567 0.0
76 1 76.1043000378 23.533698567 0.0
77 1 2.50000003778 24.688198567 0.0
78 1 7.46913003778 26.165598567 0.0
79 1 14.4972000378 26.192198567 0.0
80 1 19.8737000378 25.057798567 0.0
81 1 25.0127000378 24.567898567 0.0
82 1 30.5383000378 23.912798567 0.0
83 1 35.6813000378 23.458598567 0.0
84 1 39.5187000378 26.125098567 0.0
85 1 44.6844000378 24.476298567 0.0
86 1 49.7721000378 25.218598567 0.0
87 1 54.1882000378 23.748198567 0.0
88 1 61.2832000378 23.180498567 0.0
89 1 66.4433000378 23.993098567 0.0
90 1 70.7292000378 24.460698567 0.0
91 1 0.347190037776 30.137798567 0.0
92 1 5.42992003778 29.795398567 0.0
93 1 9.62590003778 28.284398567 0.0
94 1 17.4209000378 29.811098567 0.0
95 1 22.7511000378 29.379398567 0.0
96 1 27.9518000378 28.427498567 0.0
97 1 33.2621000378 28.308298567 0.0
98 1 38.3782000378 28.941198567 0.0
99 1 43.0734000378 29.511998567 0.0
100 1 48.0549000378 29.216098567 0.0
101 1 52.5449000378 31.597298567 0.0
102 1 59.9980000378 27.641398567 0.0
103 1 63.0179000378 27.897098567 0.0
104 1 66.7356000378 31.175298567 0.0
105 1 72.3925000378 30.197098567 0.0
106 1 74.9971000378 35.179998567 0.0
107 1 3.92632003778 34.400398567 0.0
108 1 9.16690003778 33.827098567 0.0
109 1 14.1874000378 33.817298567 0.0
110 1 19.5936000378 33.933898567 0.0
111 1 26.8723000378 33.074398567 0.0
112 1 29.8910000378 32.723498567 0.0
113 1 35.2481000378 33.216698567 0.0
114 1 40.4304000378 34.120798567 0.0
115 1 45.0145000378 34.018998567 0.0
116 1 50.5483000378 33.874598567 0.0
117 1 57.0705000378 33.866098567 0.0
118 1 59.8527000378 32.785398567 0.0
119 1 64.9735000378 33.601798567 0.0
120 1 70.0321000378 34.491498567 0.0
121 1 1.50930003778 39.087798567 0.0
122 1 7.02775003778 38.556098567 0.0
123 1 12.1197000378 38.527298567 0.0
124 1 16.8527000378 38.237198567 0.0
125 1 21.3405000378 40.713598567 0.0
126 1 26.4770000378 37.930798567 0.0
127 1 32.1750000378 37.373598567 0.0
128 1 37.6463000378 38.184098567 0.0
129 1 42.7551000378 39.122598567 0.0
130 1 48.3926000378 38.073098567 0.0
131 1 51.0977000378 36.812698567 0.0
132 1 57.5535000378 39.332898567 0.0
133 1 62.3458000378 37.719798567 0.0
134 1 67.2269000378 38.543998567 0.0
135 1 72.3046000378 39.448498567 0.0
136 1 75.1213000378 43.332198567 0.0
137 1 4.14895003778 42.953698567 0.0
138 1 9.36350003778 43.177898567 0.0
139 1 14.3587000378 43.336398567 0.0
140 1 20.3962000378 43.567498567 0.0
141 1 25.0055000378 42.863098567 0.0
142 1 29.8190000378 41.630498567 0.0
143 1 34.8106000378 42.009998567 0.0
144 1 39.6338000378 43.247798567 0.0
145 1 44.8202000378 44.470898567 0.0
146 1 49.6282000378 43.443698567 0.0
147 1 54.7904000378 43.904798567 0.0
148 1 60.0790000378 43.014398567 0.0
149 1 64.7137000378 42.796398567 0.0
150 1 69.5177000378 45.257298567 0.0
151 1 2.28017003778 47.329298567 0.0
152 1 6.98294003778 49.660498567 0.0
153 1 12.1278000378 47.947598567 0.0
154 1 15.7470000378 46.037598567 0.0
155 1 22.8293000378 48.053998567 0.0
156 1 27.3244000378 46.808298567 0.0
157 1 32.1876000378 46.464498567 0.0
158 1 36.5745000378 47.266398567 0.0
159 1 40.6219000378 46.115798567 0.0
160 1 48.2729000378 48.566398567 0.0
161 1 53.1765000378 48.037398567 0.0
162 1 58.1840000378 47.738298567 0.0
163 1 62.7883000378 50.021498567 0.0
164 1 68.1783000378 47.940298567 0.0
165 1 73.3568000378 47.603698567 0.0
166 1 76.2650000378 53.933598567 0.0
167 1 5.34532003778 52.166198567 0.0
168 1 10.3740000378 53.007998567 0.0
169 1 16.3050000378 51.727898567 0.0
170 1 19.3313000378 51.768698567 0.0
171 1 26.9501000378 51.894998567 0.0
172 1 29.8992000378 51.344498567 0.0
173 1 34.4834000378 54.162098567 0.0
174 1 39.4860000378 51.772798567 0.0
175 1 43.6727000378 50.202898567 0.0
176 1 50.7199000378 52.995898567 0.0
177 1 56.0022000378 52.578198567 0.0
178 1 61.4407000378 52.706098567 0.0
179 1 66.5318000378 52.644498567 0.0
180 1 71.6854000378 52.136098567 0.0
181 1 3.15651003778 56.836298567 0.0
182 1 8.08891003778 59.006498567 0.0
183 1 12.4254000378 60.196798567 0.0
184 1 17.0151000378 57.254898567 0.0
185 1 22.0502000378 56.659198567 0.0
186 1 27.3558000378 58.845498567 0.0
187 1 33.1002000378 56.842798567 0.0
188 1 38.6308000378 56.836098567 0.0
189 1 43.0752000378 55.863198567 0.0
190 1 47.6083000378 58.863698567 0.0
191 1 53.3155000378 57.237198567 0.0
192 1 58.8698000378 56.964698567 0.0
193 1 64.0990000378 57.263898567 0.0
194 1 69.2062000378 56.891198567 0.0
195 1 74.7103000378 56.487098567 0.0
196 1 0.814310037776 63.244298567 0.0
197 1 6.44345003778 61.526598567 0.0
198 1 11.4590000378 63.038398567 0.0
199 1 15.9637000378 62.731198567 0.0
200 1 20.8690000378 61.385498567 0.0
201 1 26.4169000378 61.751198567 0.0
202 1 31.1536000378 60.957998567 0.0
203 1 36.6366000378 60.955098567 0.0
204 1 41.5129000378 61.420998567 0.0
205 1 46.2842000378 61.605398567 0.0
206 1 51.4630000378 61.576398567 0.0
207 1 56.7849000378 61.233098567 0.0
208 1 62.0746000378 61.556698567 0.0
209 1 67.0192000378 61.643498567 0.0
210 1 72.3333000378 60.842498567 0.0
211 1 4.17160003778 65.969598567 0.0
212 1 8.64400003778 68.890598567 0.0
213 1 14.2061000378 67.841498567 0.0
214 1 19.3256000378 66.565498567 0.0
215 1 24.1205000378 67.807198567 0.0
216 1 31.3048000378 65.251898567 0.0
217 1 34.3335000378 65.118098567 0.0
218 1 38.7003000378 68.295098567 0.0
219 1 44.0756000378 66.518098567 0.0
220 1 49.2095000378 66.087998567 0.0
221 1 54.5767000378 65.760698567 0.0
222 1 59.7009000378 65.795398567 0.0
223 1 64.8199000378 66.359098567 0.0
224 1 70.0364000378 65.584998567 0.0
225 1 75.6467000378 65.813098567 0.0
226 1 1.10365003778 70.554198567 0.0
227 1 6.52276003778 71.017798567 0.0
228 1 11.3548000378 72.399498567 0.0
229 1 16.6630000378 71.698498567 0.0
230 1 23.5957000378 70.755498567 0.0
231 1 26.5569000378 71.100898567 0.0
232 1 31.5271000378 70.600298567 0.0
233 1 36.8771000378 70.743598567 0.0
234 1 41.9443000378 71.572398567 0.0
235 1 48.9498000378 70.123998567 0.0
236 1 52.0068000378 70.258598567 0.0
237 1 57.4905000378 70.328098567 0.0
238 1 62.5094000378 72.556998567 0.0
239 1 69.2756000378 69.996498567 0.0
240 1 72.2810000378 69.736698567 0.0
241 1 3.22300003778 75.047498567 0.0
242 1 8.03995003778 77.738298567 0.0
243 1 13.5896000378 76.436198567 0.0
244 1 18.6907000378 76.393398567 0.0
245 1 24.0670000378 75.718998567 0.0
246 1 29.6408000378 75.438998567 0.0
247 1 34.2069000378 77.244098567 0.0
248 1 39.5058000378 75.678598567 0.0
249 1 43.1706000378 74.356998567 0.0
250 1 50.1805000378 75.610898567 0.0
251 1 54.9898000378 74.686098567 0.0
252 1 60.4040000378 74.749898567 0.0
253 1 65.3049000378 76.046998567 0.0
254 1 71.1889000378 74.581698567 0.0
255 1 74.2415000378 74.566498567 0.0
256 1 0.994170037776 2.21618856697 0.0
257 1 6.36272003778 1.20245156697 0.0
258 1 11.0093000378 3.96910856697 0.0
259 1 16.1422000378 3.93981856697 0.0
260 1 19.1490000378 4.03203856697 0.0
261 1 25.8546000378 2.97733856697 0.0
262 1 31.0363000378 3.20191856697 0.0
263 1 36.4070000378 2.97886856697 0.0
264 1 41.6277000378 3.65575856697 0.0
265 1 44.6519000378 3.84738856697 0.0
266 1 51.3015000378 3.97139856697 0.0
267 1 54.3287000378 3.83188856697 0.0
268 1 60.8659000378 2.76162856697 0.0
269 1 65.7997000378 2.94433856697 0.0
270 1 72.8453000378 3.81944856697 0.0
271 1 3.34810003778 6.94932856697 0.0
272 1 8.39651003778 8.19831856697 0.0
273 1 13.5489000378 8.72110856697 0.0
274 1 18.3601000378 8.68248856697 0.0
275 1 23.3036000378 7.94083856697 0.0
276 1 28.0231000378 7.65924856697 0.0
277 1 33.2103000378 7.67816856697 0.0
278 1 38.0523000378 7.76038856697 0.0
279 1 43.2963000378 8.21961856697 0.0
280 1 48.2787000378 8.43911856697 0.0
281 1 53.5833000378 8.49465856697 0.0
282 1 60.0141000378 9.71081856697 0.0
283 1 58.8888000378 6.92271856697 0.0
284 1 67.6236000378 6.64884856697 0.0
285 1 74.4995000378 6.33951856697 0.0
286 1 76.2383000378 11.094798567 0.0
287 1 4.84005003778 11.831198567 0.0
288 1 9.69110003778 13.386598567 0.0
289 1 12.6786000378 13.630398567 0.0
290 1 19.7922000378 13.801898567 0.0
291 1 22.7576000378 13.329598567 0.0
292 1 29.8378000378 12.284498567 0.0
293 1 34.9354000378 12.052498567 0.0
294 1 40.2799000378 12.213798567 0.0
295 1 45.4056000378 13.157698567 0.0
296 1 50.6719000378 12.842298567 0.0
297 1 55.6213000378 13.640398567 0.0
298 1 61.0000000378 13.308098567 0.0
299 1 65.8042000378 11.385198567 0.0
300 1 71.1001000378 10.605098567 0.0
301 1 2.21991003778 16.402998567 0.0
302 1 7.64512003778 15.574498567 0.0
303 1 11.7750000378 18.575798567 0.0
304 1 16.2881000378 18.058898567 0.0
305 1 23.1849000378 19.010998567 0.0
306 1 26.8291000378 16.825798567 0.0
307 1 33.5884000378 17.867298567 0.0
308 1 37.2719000378 16.187998567 0.0
309 1 43.9812000378 15.865598567 0.0
310 1 48.3116000378 17.727198567 0.0
311 1 52.9179000378 17.898498567 0.0
312 1 59.8809000378 18.521198567 0.0
313 1 64.7327000378 16.263398567 0.0
314 1 69.4836000378 15.790198567 0.0
315 1 73.9701000378 15.347498567 0.0
316 1 75.9134000378 20.527398567 0.0
317 1 3.86867003778 22.009098567 0.0
318 1 6.57531003778 23.305498567 0.0
319 1 14.1887000378 23.216698567 0.0
320 1 19.0779000378 22.156598567 0.0
321 1 24.7421000378 21.573098567 0.0
322 1 29.9328000378 20.949198567 0.0
323 1 34.9096000378 20.561698567 0.0
324 1 40.2038000378 20.507398567 0.0
325 1 45.1757000378 21.485098567 0.0
326 1 50.5101000378 22.340398567 0.0
327 1 56.9121000378 22.492998567 0.0
328 1 62.2304000378 20.358598567 0.0
329 1 67.2889000378 21.140598567 0.0
330 1 70.2549000378 21.466898567 0.0
331 1 74.5304000378 28.098898567 0.0
332 1 4.55697003778 26.917598567 0.0
333 1 12.6270000378 28.540998567 0.0
334 1 17.4318000378 26.813398567 0.0
335 1 22.5895000378 26.365498567 0.0
336 1 27.9092000378 25.418798567 0.0
337 1 33.2516000378 25.275898567 0.0
338 1 38.7192000378 23.198398567 0.0
339 1 42.4981000378 26.551598567 0.0
340 1 47.0195000378 26.388498567 0.0
341 1 52.5501000378 26.320498567 0.0
342 1 58.8123000378 24.849498567 0.0
343 1 63.6396000378 24.984898567 0.0
344 1 68.3293000378 26.303898567 0.0
345 1 73.6361000378 25.236698567 0.0
346 1 74.5887000378 32.221598567 0.0
347 1 3.00585003778 31.539198567 0.0
348 1 8.22294003778 30.945598567 0.0
349 1 14.5824000378 30.833198567 0.0
350 1 20.1906000378 30.986798567 0.0
351 1 25.6171000378 30.333298567 0.0
352 1 30.6302000378 29.796698567 0.0
353 1 35.6250000378 30.199598567 0.0
354 1 40.5086000378 31.090398567 0.0
355 1 45.6549000378 31.061098567 0.0
356 1 51.0890000378 28.970098567 0.0
357 1 55.5550000378 31.289698567 0.0
358 1 58.3593000378 30.168398567 0.0
359 1 66.0206000378 28.275298567 0.0
360 1 69.7133000378 31.517098567 0.0
361 1 1.45807003778 36.101498567 0.0
362 1 6.70728003778 35.561498567 0.0
363 1 11.6914000378 35.512698567 0.0
364 1 16.8510000378 35.220098567 0.0
365 1 21.8930000378 35.867498567 0.0
366 1 24.8956000378 35.369698567 0.0
367 1 32.4370000378 34.363998567 0.0
368 1 37.5946000378 35.153098567 0.0
369 1 42.7676000378 36.058798567 0.0
370 1 47.8008000378 35.122798567 0.0
371 1 53.6589000378 38.307898567 0.0
372 1 56.1675000378 36.702498567 0.0
373 1 62.1797000378 34.701898567 0.0
374 1 67.2370000378 35.559798567 0.0
375 1 72.2921000378 36.457198567 0.0
376 1 75.1679000378 40.344998567 0.0
377 1 4.37520003778 39.972798567 0.0
378 1 9.57990003778 40.163398567 0.0
379 1 14.6011000378 40.282998567 0.0
380 1 19.8684000378 38.118598567 0.0
381 1 24.2588000378 39.974098567 0.0
382 1 29.4233000378 38.643098567 0.0
383 1 34.7366000378 38.999598567 0.0
384 1 39.9240000378 40.214998567 0.0
385 1 44.7739000378 41.426698567 0.0
386 1 47.7806000378 41.029798567 0.0
387 1 55.0384000378 40.937898567 0.0
388 1 60.4418000378 40.036298567 0.0
389 1 64.5123000378 39.798098567 0.0
390 1 69.4950000378 40.487098567 0.0
391 1 1.53094003778 44.426398567 0.0
392 1 6.68408003778 44.547598567 0.0
393 1 11.8044000378 44.936498567 0.0
394 1 18.7336000378 46.064298567 0.0
395 1 22.9843000378 45.062598567 0.0
396 1 27.8084000378 43.851398567 0.0
397 1 32.1946000378 43.457498567 0.0
398 1 36.8055000378 44.257098567 0.0
399 1 43.4268000378 47.162298567 0.0
400 1 47.5864000378 45.636398567 0.0
401 1 52.0979000378 45.206198567 0.0
402 1 57.6503000378 44.787698567 0.0
403 1 62.4806000378 44.800498567 0.0
404 1 67.7089000378 42.890898567 0.0
405 1 72.4796000378 44.751298567 0.0
406 1 76.0777000378 48.852398567 0.0
407 1 5.28541003778 47.201998567 0.0
408 1 9.96440003778 50.032098567 0.0
409 1 14.9608000378 48.973398567 0.0
410 1 19.9435000378 48.823198567 0.0
411 1 25.5671000378 49.230698567 0.0
412 1 29.8716000378 48.347498567 0.0
413 1 34.0276000378 48.831198567 0.0
414 1 39.1650000378 48.762298567 0.0
415 1 46.5540000378 51.024398567 0.0
416 1 50.9067000378 49.993498567 0.0
417 1 55.7886000378 49.561898567 0.0
418 1 61.1777000378 47.506598567 0.0
419 1 65.7788000378 49.743298567 0.0
420 1 70.8586000378 49.269398567 0.0
421 1 2.86272003778 53.848398567 0.0
422 1 7.59364003778 54.141498567 0.0
423 1 12.4661000378 55.162798567 0.0
424 1 15.4480000378 54.646898567 0.0
425 1 21.7036000378 53.669498567 0.0
426 1 24.7124000378 53.891998567 0.0
427 1 32.8857000378 51.619998567 0.0
428 1 37.5048000378 54.040398567 0.0
429 1 42.2787000378 52.905898567 0.0
430 1 47.8035000378 53.765898567 0.0
431 1 53.4683000378 54.228398567 0.0
432 1 58.6960000378 53.951398567 0.0
433 1 64.0043000378 54.269498567 0.0
434 1 69.2583000378 53.896098567 0.0
435 1 74.6105000378 51.466398567 0.0
436 1 0.607650037776 58.421198567 0.0
437 1 6.14009003778 56.758198567 0.0
438 1 10.8019000378 57.687498567 0.0
439 1 15.3872000378 59.785898567 0.0
440 1 19.7421000378 58.575798567 0.0
441 1 25.0515000378 56.877798567 0.0
442 1 30.3129000378 58.082998567 0.0
443 1 35.8768000378 58.059298567 0.0
444 1 41.2759000378 58.338998567 0.0
445 1 46.0825000378 56.251298567 0.0
446 1 50.6484000378 58.687698567 0.0
447 1 56.1576000378 58.291098567 0.0
448 1 61.4143000378 58.610698567 0.0
449 1 66.7664000378 58.647398567 0.0
450 1 72.0411000378 57.857598567 0.0
451 1 3.80748003778 62.987798567 0.0
452 1 8.53218003778 63.672598567 0.0
453 1 13.8390000378 64.856398567 0.0
454 1 18.8219000378 63.601098567 0.0
455 1 23.5391000378 62.798698567 0.0
456 1 29.1099000378 63.151198567 0.0
457 1 33.9044000378 62.156598567 0.0
458 1 38.8844000378 62.951898567 0.0
459 1 43.8343000378 63.423298567 0.0
460 1 48.8842000378 63.111298567 0.0
461 1 54.2166000378 62.782898567 0.0
462 1 59.3499000378 62.813398567 0.0
463 1 64.5246000378 63.340498567 0.0
464 1 69.8774000378 62.587198567 0.0
465 1 75.3362000378 60.916698567 0.0
466 1 1.65619003778 67.611098567 0.0
467 1 7.14131003778 66.315698567 0.0
468 1 11.6110000378 69.401798567 0.0
469 1 17.1137000378 68.688698567 0.0
470 1 22.1852000378 65.527198567 0.0
471 1 27.0872000378 68.157498567 0.0
472 1 30.0772000378 67.975198567 0.0
473 1 37.3441000378 65.578798567 0.0
474 1 41.7522000378 68.535298567 0.0
475 1 46.8236000378 67.913798567 0.0
476 1 51.9827000378 67.261098567 0.0
477 1 57.1292000378 67.343798567 0.0
478 1 62.0735000378 67.641298567 0.0
479 1 67.6581000378 67.441098567 0.0
480 1 72.7971000378 66.779698567 0.0
481 1 3.69217003778 72.071198567 0.0
482 1 8.46185003778 73.299998567 0.0
483 1 14.1756000378 73.466398567 0.0
484 1 19.1347000378 73.428498567 0.0
485 1 22.1544000378 73.371998567 0.0
486 1 29.1939000378 72.489398567 0.0
487 1 34.1351000378 72.084798567 0.0
488 1 39.1601000378 72.693798567 0.0
489 1 46.1193000378 74.830498567 0.0
490 1 48.5528000378 73.095198567 0.0
491 1 54.7351000378 71.660598567 0.0
492 1 60.5461000378 70.258098567 0.0
493 1 65.5328000378 73.064798567 0.0
494 1 68.5929000378 72.927398567 0.0
495 1 74.6636000378 71.588298567 0.0
496 1 0.411480037776 76.254298567 0.0
497 1 6.24302003778 75.346898567 0.0
498 1 11.0398000378 78.073298567 0.0
499 1 16.1526000378 78.017098567 0.0
500 1 21.5411000378 77.357998567 0.0
501 1 26.9212000378 76.799798567 0.0
502 1 32.5927000378 74.718398567 0.0
503 1 37.1758000378 77.530198567 0.0
504 1 42.0942000378 77.203198567 0.0
505 1 47.7367000378 77.345798567 0.0
506 1 52.8963000378 76.876698567 0.0
507 1 57.6679000378 76.071398567 0.0
508 1 62.4459000378 76.932498567 0.0
509 1 67.7302000378 77.800598567 0.0
510 1 70.7134000378 77.550298567 0.0
511 1 6.05414003778 79.984598567 0.0
512 1 11.0673000378 81.087098567 0.0
513 1 16.2680000378 81.026998567 0.0
514 1 21.6032000378 80.343398567 0.0
515 1 27.0118000378 79.822798567 0.0
516 1 34.3717000378 80.233198567 0.0
517 1 37.3590000378 80.516498567 0.0
518 1 42.3679000378 80.258398567 0.0
519 1 47.4970000378 80.335598567 0.0
520 1 52.3567000378 79.864798567 0.0
521 1 57.0318000378 79.044298567 0.0
522 1 61.8433000378 79.852598567 0.0
523 1 67.1684000378 80.733698567 0.0
524 1 71.8855000378 80.326498567 0.0
525 1 0.437320037776 79.298498567 0.0
526 1 3.12290003778 80.685498567 0.0
527 1 8.21497003778 82.065598567 0.0
528 1 13.6832000378 82.579898567 0.0
529 1 19.1116000378 82.023798567 0.0
530 1 24.4241000378 81.371098567 0.0
531 1 29.2263000378 81.871598567 0.0
532 1 32.2091000378 82.295698567 0.0
533 1 39.9310000378 82.079698567 0.0
534 1 44.9320000378 81.894598567 0.0
535 1 50.0861000378 81.867398567 0.0
536 1 54.9972000378 81.284298567 0.0
537 1 59.1574000378 81.157198567 0.0
538 1 64.2950000378 81.547998567 0.0
539 1 69.6763000378 82.367698567 0.0
540 1 74.6749000378 81.447598567 0.0
541 2 3.21415003778 82.193798567 0.0
542 2 4.88525003778 0.911706566965 0.0
543 2 2.23499003778 1.36443456697 0.0
544 2 7.15713003778 2.46993856697 0.0
545 2 9.51440003778 3.73223856697 0.0
546 2 7.07413003778 4.88304856697 0.0
547 2 13.6270000378 0.868532566965 0.0
548 2 14.8905000378 3.10696856697 0.0
549 2 12.2586000378 3.12598856697 0.0
550 2 19.9058000378 2.73844856697 0.0
551 2 19.7552000378 0.169516566965 0.0
552 2 22.0929000378 1.27168556697 0.0
553 2 24.6676000378 2.06140856697 0.0
554 2 24.0952000378 82.840298567 0.0
555 2 29.7726000378 2.38889856697 0.0
556 2 28.7708000378 0.0949225669654 0.0
557 2 27.1857000378 2.27995856697 0.0
558 2 32.9790000378 0.374374666965 0.0
559 2 35.0627000378 2.25836856697 0.0
560 2 32.3918000378 2.56304856697 0.0
561 2 39.6104000378 0.345693266965 0.0
562 2 40.4580000378 2.69662856697 0.0
563 2 37.8047000378 2.37672856697 0.0
564 2 45.5097000378 2.60962856697 0.0
565 2 45.5537000378 0.0675385669654 0.0
566 2 47.8643000378 1.53596856697 0.0
567 2 49.8676000378 0.152014566965 0.0
568 2 50.3229000378 2.80070856697 0.0
569 2 54.9038000378 2.42397856697 0.0
570 2 55.1811000378 82.790098567 0.0
571 2 57.0437000378 1.07166856697 0.0
572 2 58.8749000378 82.627798567 0.0
573 2 59.6306000378 1.90176856697 0.0
574 2 64.6245000378 2.02741856697 0.0
575 2 63.8179000378 82.961898567 0.0
576 2 62.0989000378 1.90231856697 0.0
577 2 69.2579000378 0.599997566965 0.0
578 2 69.3370000378 3.28853856697 0.0
579 2 67.1916000378 2.39141856697 0.0
580 2 75.9690000378 1.70797856697 0.0
581 2 74.5647000378 82.963798567 0.0
582 2 73.5805000378 2.47745856697 0.0
583 2 75.9264000378 5.85040856697 0.0
584 2 2.14807003778 6.05140856697 0.0
585 2 1.01106003778 3.71913856697 0.0
586 2 7.26449003778 7.22471856697 0.0
587 2 4.77897003778 6.48512856697 0.0
588 2 11.1492000378 5.47159856697 0.0
589 2 12.2931000378 7.90853856697 0.0
590 2 9.77460003778 7.61988856697 0.0
591 2 15.9616000378 5.43493856697 0.0
592 2 17.1482000378 7.80004856697 0.0
593 2 14.7067000378 7.77299856697 0.0
594 2 19.9272000378 5.32335856697 0.0
595 2 21.9482000378 7.29385856697 0.0
596 2 19.5385000378 7.76510856697 0.0
597 2 26.8157000378 6.77124856697 0.0
598 2 25.6692000378 4.46574856697 0.0
599 2 24.3850000378 6.89653856697 0.0
600 2 30.8109000378 4.68341856697 0.0
601 2 31.9186000378 6.91406856697 0.0
602 2 29.3359000378 6.93349856697 0.0
603 2 36.0412000378 4.45516856697 0.0
604 2 36.8745000378 6.83623856697 0.0
605 2 34.4349000378 6.79418856697 0.0
606 2 41.1491000378 5.08673856697 0.0
607 2 42.0237000378 7.42233856697 0.0
608 2 39.4273000378 7.15009856697 0.0
609 2 45.3428000378 5.19837856697 0.0
610 2 47.0931000378 7.48507856697 0.0
611 2 44.5912000378 7.47091856697 0.0
612 2 51.0269000378 5.46625856697 0.0
613 2 52.2473000378 7.76411856697 0.0
614 2 49.6203000378 7.72513856697 0.0
615 2 55.1538000378 5.10926856697 0.0
616 2 57.3824000378 6.64578856697 0.0
617 2 54.7897000378 7.56024856697 0.0
618 2 61.2365000378 4.20773856697 0.0
619 2 60.2729000378 6.28123856697 0.0
620 2 63.1878000378 5.87221856697 0.0
621 2 65.2532000378 4.33835856697 0.0
622 2 66.1324000378 6.34449856697 0.0
623 2 71.4063000378 4.29603856697 0.0
624 2 68.8303000378 5.71084856697 0.0
625 2 2.97440003778 8.40523856697 0.0
626 2 3.71145003778 10.852298567 0.0
627 2 1.19920003778 10.417098567 0.0
628 2 8.10891003778 9.66255856697 0.0
629 2 8.79960003778 12.178598567 0.0
630 2 6.28923003778 11.440398567 0.0
631 2 16.2325000378 11.638198567 0.0
632 2 13.7149000378 12.557198567 0.0
633 2 14.0728000378 10.122498567 0.0
634 2 18.7474000378 12.720598567 0.0
635 2 18.1558000378 10.165648567 0.0
636 2 23.5378000378 12.043198567 0.0
637 2 23.7430000378 9.38315856697 0.0
638 2 25.8558000378 10.780098567 0.0
639 2 27.7387000378 9.13017856697 0.0
640 2 28.5495000378 11.496298567 0.0
641 2 32.7713000378 9.12436856697 0.0
642 2 33.6341000378 11.316698567 0.0
643 2 31.0802000378 11.421698567 0.0
644 2 37.8296000378 9.24725856697 0.0
645 2 38.9676000378 11.480098567 0.0
646 2 36.2958000378 11.402598567 0.0
647 2 43.2368000378 9.71852856697 0.0
648 2 44.2634000378 12.165598567 0.0
649 2 41.6854000378 11.693298567 0.0
650 2 48.0873000378 9.95116856697 0.0
651 2 49.3213000378 12.159798567 0.0
652 2 46.7190000378 12.370598567 0.0
653 2 53.5520000378 10.022748567 0.0
654 2 54.5030000378 12.606298567 0.0
655 2 52.0218000378 12.157098567 0.0
656 2 58.9807000378 10.820898567 0.0
657 2 59.5649000378 12.885698567 0.0
658 2 56.9332000378 12.871998567 0.0
659 2 61.4961000378 10.095978567 0.0
660 2 64.3137000378 11.046298567 0.0
661 2 62.0148000378 12.204798567 0.0
662 2 67.9612000378 8.12028856697 0.0
663 2 69.6814000378 10.084438567 0.0
664 2 67.0041000378 10.462798567 0.0
665 2 75.0069000378 10.222728567 0.0
666 2 74.1179000378 7.80022856697 0.0
667 2 72.4274000378 9.87688856697 0.0
668 2 0.0973200377764 12.585598567 0.0
669 2 1.25411003778 15.242798567 0.0
670 2 75.3145000378 14.706598567 0.0
671 2 3.53950003778 15.678998567 0.0
672 2 6.18485003778 15.267098567 0.0
673 2 4.69965003778 13.323398567 0.0
674 2 8.12892003778 16.990998567 0.0
675 2 10.3032000378 18.303098567 0.0
676 2 8.56641003778 19.796898567 0.0
677 2 13.2869000378 15.000398567 0.0
678 2 15.0915000378 17.160598567 0.0
679 2 12.7739000378 17.478098567 0.0
680 2 19.3691000378 15.248998567 0.0
681 2 19.6417000378 18.016498567 0.0
682 2 17.5610000378 17.274898567 0.0
683 2 23.3609000378 14.713698567 0.0
684 2 25.4188000378 16.339798567 0.0
685 2 23.5009000378 17.541298567 0.0
686 2 29.6801000378 13.793698567 0.0
687 2 30.0690000378 16.617098567 0.0
688 2 28.0177000378 15.920798567 0.0
689 2 34.6463000378 13.531098567 0.0
690 2 35.9539000378 15.524498567 0.0
691 2 33.9600000378 16.407798567 0.0
692 2 38.6229000378 15.580298567 0.0
693 2 40.7674000378 16.516998567 0.0
694 2 40.2520000378 13.717798567 0.0
695 2 44.7470000378 17.153198567 0.0
696 2 46.8283000378 17.964998567 0.0
697 2 45.0147000378 19.953398567 0.0
698 2 50.6804000378 14.364798567 0.0
699 2 51.8039000378 16.880598567 0.0
700 2 49.4187000378 16.719298567 0.0
701 2 55.6946000378 15.166798567 0.0
702 2 56.3691000378 18.053898567 0.0
703 2 54.2597000378 17.234998567 0.0
704 2 61.3309000378 14.754898567 0.0
705 2 60.7110000378 17.267198567 0.0
706 2 63.2369000378 16.208298567 0.0
707 2 66.3715000378 12.795198567 0.0
708 2 68.1772000378 15.024398567 0.0
709 2 65.7878000378 15.216998567 0.0
710 2 71.3041000378 12.104998567 0.0
711 2 72.7956000378 14.412798567 0.0
712 2 70.4802000378 14.661098567 0.0
713 2 2.30501003778 17.908998567 0.0
714 2 0.909640037776 19.945298567 0.0
715 2 3.21843003778 20.644098567 0.0
716 2 7.67258003778 22.292898567 0.0
717 2 10.2191000378 21.618398567 0.0
718 2 11.9257000378 20.068098567 0.0
719 2 12.8788000378 22.485798567 0.0
720 2 16.2370000378 19.564798567 0.0
721 2 17.6501000378 21.690598567 0.0
722 2 15.2391000378 22.145998567 0.0
723 2 21.7139000378 19.230398567 0.0
724 2 19.7358000378 20.803598567 0.0
725 2 27.0137000378 18.324598567 0.0
726 2 28.4964000378 20.493498567 0.0
727 2 26.0083000378 20.762398567 0.0
728 2 32.1070000378 17.926898567 0.0
729 2 30.3622000378 19.500498567 0.0
730 2 37.3776000378 17.679298567 0.0
731 2 38.8702000378 19.822398567 0.0
732 2 36.2702000378 19.923098567 0.0
733 2 42.7776000378 16.798998567 0.0
734 2 41.0996000378 19.233798567 0.0
735 2 48.3800000378 19.235298567 0.0
736 2 49.2670000378 21.537198567 0.0
737 2 46.6615000378 21.226298567 0.0
738 2 53.0680000378 19.411998567 0.0
739 2 53.7043000378 22.307898567 0.0
740 2 51.7592000378 21.554398567 0.0
741 2 58.4695000378 18.979498567 0.0
742 2 56.9223000378 20.954398567 0.0
743 2 65.0022000378 17.741698567 0.0
744 2 66.2078000378 20.112998567 0.0
745 2 63.6300000378 19.837898567 0.0
746 2 70.5995000378 19.998398567 0.0
747 2 70.0614000378 17.199798567 0.0
748 2 72.3423000378 18.465298567 0.0
749 2 73.9858000378 16.849298567 0.0
750 2 74.8327000378 19.473598567 0.0
751 2 74.8404000378 24.342298567 0.0
752 2 75.9421000378 22.032498567 0.0
753 2 1.05121003778 24.244898567 0.0
754 2 3.43860003778 25.887098567 0.0
755 2 3.15428003778 23.333898567 0.0
756 2 7.14228003778 24.692798567 0.0
757 2 6.01283003778 26.538398567 0.0
758 2 8.61830003778 27.148798567 0.0
759 2 14.2837000378 24.704698567 0.0
760 2 15.9748000378 26.452298567 0.0
761 2 13.5019000378 27.311698567 0.0
762 2 21.2373000378 25.689798567 0.0
763 2 19.5394000378 23.585098567 0.0
764 2 18.6482000378 25.935598567 0.0
765 2 24.7939000378 23.070598567 0.0
766 2 26.4653000378 24.967998567 0.0
767 2 23.8145000378 25.483098567 0.0
768 2 30.3253000378 22.404498567 0.0
769 2 31.8955000378 24.583098567 0.0
770 2 29.2199000378 24.666798567 0.0
771 2 35.1376000378 22.040898567 0.0
772 2 37.1932000378 23.355798567 0.0
773 2 34.5195000378 24.439398567 0.0
774 2 39.1361000378 24.664698567 0.0
775 2 41.0202000378 26.290398567 0.0
776 2 38.8406000378 27.490698567 0.0
777 2 44.7956000378 22.956398567 0.0
778 2 45.8625000378 25.431398567 0.0
779 2 43.5205000378 25.440698567 0.0
780 2 50.1284000378 23.771098567 0.0
781 2 51.1432000378 25.798498567 0.0
782 2 48.3902000378 25.760198567 0.0
783 2 55.6019000378 23.234198567 0.0
784 2 53.4923000378 25.110798567 0.0
785 2 61.7361000378 21.765198567 0.0
786 2 62.4845000378 24.060298567 0.0
787 2 60.0389000378 23.980698567 0.0
788 2 66.8069000378 22.556298567 0.0
789 2 67.4116000378 25.115198567 0.0
790 2 65.0315000378 24.466498567 0.0
791 2 70.5657000378 22.946598567 0.0
792 2 72.1857000378 24.858298567 0.0
793 2 69.6404000378 25.521098567 0.0
794 2 75.7970000378 28.938498567 0.0
795 2 1.70962003778 30.771198567 0.0
796 2 75.7411000378 31.265898567 0.0
797 2 4.88368003778 28.389498567 0.0
798 2 6.80000003778 30.420798567 0.0
799 2 4.23009003778 30.685398567 0.0
800 2 11.1317000378 28.374498567 0.0
801 2 9.00340003778 29.654998567 0.0
802 2 17.4812000378 28.310398567 0.0
803 2 18.8047000378 30.393598567 0.0
804 2 16.0247000378 30.380298567 0.0