# input file

1350 atoms
2 atom types

0.0 79.4148414989 xlo xhi
0.0 80.2950602932 ylo yhi
-10.0 10.0 zlo zhi
0.0 0.0 0.0 xy xz yz

Masses

1 28.0855 #Si
2 15.9994 #O

Atoms

1 1 2.53594852628 0.702940146609 0.0
2 1 7.51383852628 1.47217014661 0.0
3 1 12.9054585263 1.23359014661 0.0
4 1 19.4056585263 0.708890146609 0.0
5 1 24.8992585263 0.458950146609 0.0
6 1 30.3099585263 1.16285014661 0.0
7 1 35.1774585263 1.84980014661 0.0
8 1 40.4788585263 2.53912014661 0.0
9 1 47.0591585263 2.89544014661 0.0
10 1 52.2100585263 2.26056014661 0.0
11 1 57.3781585263 2.21963014661 0.0
12 1 62.1893585263 2.04130014661 0.0
13 1 67.3268585263 1.51858014661 0.0
14 1 72.1760585263 0.925790146609 0.0
15 1 77.2312585263 0.841430146609 0.0
16 1 79.3975585263 5.64896014661 0.0
17 1 4.86498852628 5.69365014661 0.0
18 1 8.68077852628 4.23339014661 0.0
19 1 15.2127585263 3.14195014661 0.0
20 1 21.9350585263 4.74691014661 0.0
21 1 26.7605585263 4.97397014661 0.0
22 1 31.7957585263 6.19882014661 0.0
23 1 37.7946585263 6.57412014661 0.0
24 1 42.3704585263 4.89996014661 0.0
25 1 51.5066585263 6.57486014661 0.0
26 1 54.5125585263 6.73129014661 0.0
27 1 59.6543585263 6.94061014661 0.0
28 1 65.0455585263 6.29751014661 0.0
29 1 71.6176585263 5.47070014661 0.0
30 1 74.6218585263 5.48716014661 0.0
31 1 3.16007852628 10.3324301466 0.0
32 1 8.70524852628 9.79373014661 0.0
33 1 14.0349585263 8.85513014661 0.0
34 1 19.4058585263 9.26573014661 0.0
35 1 23.9594585263 9.61403014661 0.0
36 1 28.5096585263 11.8858301466 0.0
37 1 33.1241585263 8.90395014661 0.0
38 1 40.7371585263 10.3980301466 0.0
39 1 45.8628585263 11.0028301466 0.0
40 1 50.9070585263 11.5782301466 0.0
41 1 56.5177585263 11.3891301466 0.0
42 1 63.7440585263 10.6513301466 0.0
43 1 66.7310585263 10.9201301466 0.0
44 1 71.8618585263 10.9220301466 0.0
45 1 77.2910585263 10.4135301466 0.0
46 1 1.10276852628 14.8313301466 0.0
47 1 6.55822852628 14.2058301466 0.0
48 1 13.2957585263 13.1729301466 0.0
49 1 16.3106585263 13.3945301466 0.0
50 1 21.2018585263 14.4847301466 0.0
51 1 26.7362585263 14.3087301466 0.0
52 1 32.0886585263 14.3765301466 0.0
53 1 37.4106585263 14.4499301466 0.0
54 1 42.7847585263 15.2306301466 0.0
55 1 47.9915585263 15.8993301466 0.0
56 1 53.4410585263 15.6240301466 0.0
57 1 58.8415585263 15.9428301466 0.0
58 1 63.8655585263 15.6070301466 0.0
59 1 69.4484585263 15.4892301466 0.0
60 1 74.9736585263 14.9770301466 0.0
61 1 5.74193852628 18.2761301466 0.0
62 1 8.72430852628 18.8310301466 0.0
63 1 13.7025585263 18.4995301466 0.0
64 1 18.0593585263 21.0739301466 0.0
65 1 25.5086585263 18.3442301466 0.0
66 1 28.5386585263 18.5906301466 0.0
67 1 34.0737585263 18.7693301466 0.0
68 1 39.4123585263 19.1165301466 0.0
69 1 44.6468585263 20.0086301466 0.0
70 1 50.9247585263 20.0494301466 0.0
71 1 56.6115585263 20.0447301466 0.0
72 1 61.7332585263 20.4021301466 0.0
73 1 67.0430585263 19.7065301466 0.0
74 1 72.3326585263 19.4561301466 0.0
75 1 77.7092585263 19.1532301466 0.0
76 1 0.555710526283 23.5935301466 0.0
77 1 5.81751852628 23.0227301466 0.0
78 1 11.3702585263 23.4744301466 0.0
79 1 16.6318585263 23.7961301466 0.0
80 1 21.4115585263 24.2570301466 0.0
81 1 26.1003585263 23.3838301466 0.0
82 1 31.3454585263 22.9055301466 0.0
83 1 36.6938585263 23.3433301466 0.0
84 1 41.8563585263 23.9633301466 0.0
85 1 46.0795585263 22.6559301466 0.0
86 1 53.6082585263 23.9673301466 0.0
87 1 59.4026585263 24.7810301466 0.0
88 1 64.7350585263 24.4236301466 0.0
89 1 69.7492585263 24.0550301466 0.0
90 1 74.8251585263 23.6776301466 0.0
91 1 4.08818852628 27.5986301466 0.0
92 1 8.45663852628 29.8018301466 0.0
93 1 13.8884585263 28.2530301466 0.0
94 1 20.4698585263 28.3888301466 0.0
95 1 23.4854585263 28.5373301466 0.0
96 1 30.4516585263 27.2331301466 0.0
97 1 33.4973585263 27.4570301466 0.0
98 1 39.1279585263 28.1680301466 0.0
99 1 45.0517585263 28.2597301466 0.0
100 1 51.9414585263 27.6260301466 0.0
101 1 54.7849585263 26.7032301466 0.0
102 1 61.8498585263 28.9596301466 0.0
103 1 67.2172585263 28.9026301466 0.0
104 1 72.4760585263 28.4888301466 0.0
105 1 77.9163585263 28.1385301466 0.0
106 1 1.47285852628 31.9714301466 0.0
107 1 6.76903852628 32.3033301466 0.0
108 1 11.1709585263 33.0808301466 0.0
109 1 15.6539585263 33.3821301466 0.0
110 1 20.5491585263 33.6278301466 0.0
111 1 25.5480585263 33.5088301466 0.0
112 1 30.0665585263 32.3197301466 0.0
113 1 35.5826585263 31.9125301466 0.0
114 1 41.9879585263 32.0245301466 0.0
115 1 47.5748585263 32.7113301466 0.0
116 1 52.7891585263 32.7099301466 0.0
117 1 58.0020585263 32.8197301466 0.0
118 1 63.6880585263 33.1750301466 0.0
119 1 70.2242585263 33.1584301466 0.0
120 1 75.5917585263 32.6011301466 0.0
121 1 3.34061852628 36.4655301466 0.0
122 1 7.99100852628 37.6086301466 0.0
123 1 12.8375585263 38.1830301466 0.0
124 1 17.7521585263 38.2116301466 0.0
125 1 23.4597585263 38.2715301466 0.0
126 1 30.0115585263 37.2028301466 0.0
127 1 32.8779585263 36.2757301466 0.0
128 1 37.0494585263 34.5420301466 0.0
129 1 44.3564585263 36.3597301466 0.0
130 1 50.0718585263 37.1915301466 0.0
131 1 56.1752585263 37.3717301466 0.0
132 1 61.0702585263 36.9698301466 0.0
133 1 65.5191585263 35.5586301466 0.0
134 1 72.6012585263 37.1581301466 0.0
135 1 0.341198526283 36.3334301466 0.0
136 1 79.0742585263 41.6139301466 0.0
137 1 5.03088852628 41.8165301466 0.0
138 1 9.68693852628 42.6104301466 0.0
139 1 14.7541585263 42.8899301466 0.0
140 1 20.5236585263 42.1544301466 0.0
141 1 25.0934585263 40.8378301466 0.0
142 1 31.9654585263 42.0218301466 0.0
143 1 36.6463585263 40.1432301466 0.0
144 1 40.9999585263 39.9337301466 0.0
145 1 46.8690585263 40.5321301466 0.0
146 1 51.7153585263 39.7039301466 0.0
147 1 60.4658585263 41.4754301466 0.0
148 1 63.4328585263 41.0246301466 0.0
149 1 69.2089585263 41.3028301466 0.0
150 1 74.3240585263 41.7284301466 0.0
151 1 1.70692852628 45.9724301466 0.0
152 1 6.62281852628 47.0593301466 0.0
153 1 12.6292585263 47.3149301466 0.0
154 1 16.4828585263 45.3422301466 0.0
155 1 22.7165585263 48.9617301466 0.0
156 1 28.6732585263 45.3326301466 0.0
157 1 34.5874585263 45.5626301466 0.0
158 1 38.7377585263 45.1543301466 0.0
159 1 43.7115585263 43.6767301466 0.0
160 1 49.2724585263 44.7891301466 0.0
161 1 54.0673585263 45.6350301466 0.0
162 1 57.8302585263 44.8134301466 0.0
163 1 64.5818585263 43.8104301466 0.0
164 1 71.2211585263 46.0167301466 0.0
165 1 75.9919585263 46.3849301466 0.0
166 1 78.5590585263 50.6900301466 0.0
167 1 4.33399852628 52.7056301466 0.0
168 1 8.36587852628 49.5222301466 0.0
169 1 16.0310585263 51.1196301466 0.0
170 1 21.4744585263 51.6861301466 0.0
171 1 26.6199585263 52.1942301466 0.0
172 1 31.6490585263 53.3420301466 0.0
173 1 36.8457585263 50.5883301466 0.0
174 1 45.3606585263 50.0707301466 0.0
175 1 44.2478585263 47.3194301466 0.0
176 1 51.2597585263 49.9338301466 0.0
177 1 56.9788585263 50.4274301466 0.0
178 1 64.3721585263 49.2917301466 0.0
179 1 67.4206585263 49.6460301466 0.0
180 1 72.8868585263 50.9382301466 0.0
181 1 4.82886852628 55.6501301466 0.0
182 1 7.81235852628 55.2906301466 0.0
183 1 13.0258585263 55.3271301466 0.0
184 1 18.4167585263 55.6442301466 0.0
185 1 23.4009585263 56.4134301466 0.0
186 1 31.1444585263 56.3563301466 0.0
187 1 35.1264585263 55.6553301466 0.0
188 1 40.0512585263 54.8083301466 0.0
189 1 44.3558585263 53.7758301466 0.0
190 1 48.7689585263 56.1275301466 0.0
191 1 53.9957585263 54.1823301466 0.0
192 1 59.0208585263 54.8519301466 0.0
193 1 63.5831585263 54.7880301466 0.0
194 1 70.3673585263 54.4907301466 0.0
195 1 76.1793585263 54.8759301466 0.0
196 1 77.7429585263 59.1722301466 0.0
197 1 3.51237852628 60.0697301466 0.0
198 1 10.6901585263 59.8291301466 0.0
199 1 16.1792585263 59.7852301466 0.0
200 1 20.5927585263 60.6694301466 0.0
201 1 25.5514585263 60.9429301466 0.0
202 1 28.9206585263 58.3919301466 0.0
203 1 37.3934585263 59.8073301466 0.0
204 1 44.5613585263 58.5785301466 0.0
205 1 47.5470585263 58.8590301466 0.0
206 1 52.2826585263 59.0996301466 0.0
207 1 55.9844585263 61.8328301466 0.0
208 1 61.7430585263 59.7693301466 0.0
209 1 65.5965585263 57.0591301466 0.0
210 1 72.6505585263 58.4679301466 0.0
211 1 0.295243526283 63.9653301466 0.0
212 1 5.23644852628 62.5508301466 0.0
213 1 12.8696585263 63.9183301466 0.0
214 1 17.7401585263 65.2013301466 0.0
215 1 23.3225585263 65.4661301466 0.0
216 1 28.8304585263 64.3827301466 0.0
217 1 34.3463585263 64.1006301466 0.0
218 1 39.6888585263 64.1435301466 0.0
219 1 44.8029585263 63.5616301466 0.0
220 1 49.5426585263 63.8125301466 0.0
221 1 54.1828585263 64.2082301466 0.0
222 1 58.2193585263 63.8205301466 0.0
223 1 65.0929585263 62.9893301466 0.0
224 1 69.8845585263 62.7166301466 0.0
225 1 74.6870585263 63.3107301466 0.0
226 1 77.5714585263 68.1285301466 0.0
227 1 3.33375852628 67.7010301466 0.0
228 1 8.19346852628 67.4068301466 0.0
229 1 13.2860585263 68.7694301466 0.0
230 1 20.7820585263 69.5149301466 0.0
231 1 27.2758585263 68.9189301466 0.0
232 1 32.4065585263 68.3756301466 0.0
233 1 35.7614585263 66.8140301466 0.0
234 1 44.1461585263 69.5238301466 0.0
235 1 46.9880585263 68.5144301466 0.0
236 1 52.0772585263 68.8599301466 0.0
237 1 57.3446585263 70.8765301466 0.0
238 1 62.5082585263 68.0648301466 0.0
239 1 67.6966585263 67.6789301466 0.0
240 1 72.7042585263 67.7355301466 0.0
241 1 1.85953852628 72.2084301466 0.0
242 1 7.03107852628 74.1790301466 0.0
243 1 12.1294585263 73.8700301466 0.0
244 1 16.5371585263 73.4487301466 0.0
245 1 23.1053585263 71.4153301466 0.0
246 1 30.7896585263 73.0439301466 0.0
247 1 35.9984585263 72.7078301466 0.0
248 1 41.2040585263 74.4489301466 0.0
249 1 45.8061585263 74.1821301466 0.0
250 1 50.4418585263 75.6377301466 0.0
251 1 56.0229585263 73.5929301466 0.0
252 1 61.0566585263 73.0627301466 0.0
253 1 65.9482585263 72.3381301466 0.0
254 1 71.0454585263 72.2635301466 0.0
255 1 76.1844585263 72.4525301466 0.0
256 1 0.221527526283 2.63298014661 0.0
257 1 4.78075852628 2.68428014661 0.0
258 1 11.6322585263 3.94237014661 0.0
259 1 18.1739585263 3.45631014661 0.0
260 1 22.2050585263 1.76335014661 0.0
261 1 27.4387585263 2.05406014661 0.0
262 1 32.4974585263 3.24788014661 0.0
263 1 37.6480585263 3.57245014661 0.0
264 1 45.3477585263 5.38273014661 0.0
265 1 49.8341585263 4.07162014661 0.0
266 1 54.8102585263 3.75109014661 0.0
267 1 59.8459585263 3.92949014661 0.0
268 1 64.9134585263 3.30017014661 0.0
269 1 69.9726585263 2.94976014661 0.0
270 1 74.7374585263 2.48862014661 0.0
271 1 2.41829852628 7.41439014661 0.0
272 1 7.56190852628 7.00813014661 0.0
273 1 13.9193585263 5.85027014661 0.0
274 1 19.3424585263 6.23576014661 0.0
275 1 24.2471585263 6.62208014661 0.0
276 1 28.9055585263 7.04792014661 0.0
277 1 36.1226585263 9.07033014661 0.0
278 1 40.6837585263 7.39028014661 0.0
279 1 46.6813585263 8.10672014661 0.0
280 1 49.5986585263 8.87108014661 0.0
281 1 57.0119585263 8.41475014661 0.0
282 1 62.5087585263 7.91496014661 0.0
283 1 67.5043585263 8.02817014661 0.0
284 1 70.4979585263 8.24111014661 0.0
285 1 76.9491585263 7.40488014661 0.0
286 1 0.551473526283 11.8555301466 0.0
287 1 6.05414852628 11.2420301466 0.0
288 1 11.6181585263 10.6535301466 0.0
289 1 16.6241585263 10.4017301466 0.0
290 1 21.5309585263 11.4375301466 0.0
291 1 26.9582585263 9.34763014661 0.0
292 1 31.4882585263 11.4393301466 0.0
293 1 37.9251585263 11.4786301466 0.0
294 1 43.1198585263 12.2349301466 0.0
295 1 48.2066585263 12.9028301466 0.0
296 1 53.7457585263 12.6212301466 0.0
297 1 59.1001585263 12.9594301466 0.0
298 1 62.1095585263 13.1505301466 0.0
299 1 69.2938585263 12.4945301466 0.0
300 1 74.6990585263 11.9707301466 0.0
301 1 4.00074852628 15.7966301466 0.0
302 1 9.10221852628 15.8498301466 0.0
303 1 12.1090585263 15.9272301466 0.0
304 1 18.3433585263 15.6578301466 0.0
305 1 24.0330585263 15.6801301466 0.0
306 1 29.3900585263 15.7248301466 0.0
307 1 34.7220585263 15.8243301466 0.0
308 1 39.9064585263 16.1455301466 0.0
309 1 45.2023585263 17.0465301466 0.0
310 1 50.7755585263 17.0490301466 0.0
311 1 56.0751585263 17.0928301466 0.0
312 1 61.4665585263 17.4143301466 0.0
313 1 66.6866585263 16.7131301466 0.0
314 1 72.3187585263 16.4443301466 0.0
315 1 77.7776585263 16.1396301466 0.0
316 1 0.928944526283 20.6221301466 0.0
317 1 3.94756852628 20.6621301466 0.0
318 1 11.3315585263 20.4246301466 0.0
319 1 16.7646585263 18.3070301466 0.0
320 1 21.1061585263 21.2828301466 0.0
321 1 24.1442585263 21.0346301466 0.0
322 1 31.2634585263 19.9030301466 0.0
323 1 36.6569585263 20.3339301466 0.0
324 1 41.7980585263 20.9530301466 0.0
325 1 49.0655585263 22.4146301466 0.0
326 1 53.7740585263 20.9928301466 0.0
327 1 59.0649585263 21.7925301466 0.0
328 1 64.5657585263 21.4219301466 0.0
329 1 69.7549585263 21.0350301466 0.0
330 1 75.0917585263 20.6729301466 0.0
331 1 3.33892852628 24.7113301466 0.0
332 1 8.48238852628 24.4537301466 0.0
333 1 13.9074585263 25.1857301466 0.0
334 1 18.8694585263 25.8317301466 0.0
335 1 24.0893585263 25.6046301466 0.0
336 1 28.8827585263 24.6257301466 0.0
337 1 33.9106585263 24.4792301466 0.0
338 1 39.0993585263 25.1597301466 0.0
339 1 44.5752585263 25.2677301466 0.0
340 1 50.7593585263 24.8825301466 0.0
341 1 57.7175585263 27.2696301466 0.0
342 1 62.1572585263 25.9684301466 0.0
343 1 67.3574585263 25.8912301466 0.0
344 1 72.4028585263 25.4713301466 0.0
345 1 77.4263585263 25.1772301466 0.0
346 1 1.40457852628 28.9777301466 0.0
347 1 7.07585852628 27.1391301466 0.0
348 1 11.4569585263 30.0765301466 0.0
349 1 16.0522585263 30.4001301466 0.0
350 1 19.0212585263 31.0092301466 0.0
351 1 25.7708585263 30.5015301466 0.0
352 1 28.6675585263 29.6643301466 0.0
353 1 36.1686585263 28.9520301466 0.0
354 1 42.0727585263 29.0222301466 0.0
355 1 47.7748585263 29.7235301466 0.0
356 1 50.7809585263 30.3769301466 0.0
357 1 59.0123585263 29.9770301466 0.0
358 1 64.5415585263 30.2976301466 0.0
359 1 69.9554585263 30.1604301466 0.0
360 1 75.2812585263 29.6111301466 0.0
361 1 4.03185852628 33.5379301466 0.0
362 1 8.61571852628 34.6616301466 0.0
363 1 13.2773585263 35.2047301466 0.0
364 1 18.0174585263 35.2272301466 0.0
365 1 23.1041585263 35.2590301466 0.0
366 1 28.2876585263 34.7386301466 0.0
367 1 32.9071585263 33.2651301466 0.0
368 1 40.0373585263 34.3097301466 0.0
369 1 44.6574585263 33.3894301466 0.0
370 1 50.1963585263 34.2098301466 0.0
371 1 55.3906585263 34.3807301466 0.0
372 1 60.7856585263 33.9850301466 0.0
373 1 68.5146585263 35.6384301466 0.0
374 1 73.0410585263 34.1900301466 0.0
375 1 78.4072585263 33.6549301466 0.0
376 1 78.0644585263 38.7954301466 0.0
377 1 5.23475852628 38.8059301466 0.0
378 1 10.2042585263 39.6394301466 0.0
379 1 15.2832585263 39.9266301466 0.0
380 1 20.5891585263 39.1747301466 0.0
381 1 27.6456585263 42.4576301466 0.0
382 1 29.6162585263 40.1823301466 0.0
383 1 35.7243585263 37.2582301466 0.0
384 1 41.4206585263 36.9725301466 0.0
385 1 47.1020585263 37.5627301466 0.0
386 1 54.7013585263 40.0212301466 0.0
387 1 58.7974585263 38.9270301466 0.0
388 1 63.8669585263 38.0595301466 0.0
389 1 69.8348585263 38.3442301466 0.0
390 1 75.0739585263 38.8365301466 0.0
391 1 2.29013852628 43.0300301466 0.0
392 1 7.04960852628 44.0584301466 0.0
393 1 12.1311585263 44.3484301466 0.0
394 1 19.4254585263 44.9153301466 0.0
395 1 23.3056585263 43.2453301466 0.0
396 1 31.6480585263 44.9974301466 0.0
397 1 34.8894585263 42.5672301466 0.0
398 1 38.9238585263 42.1123301466 0.0
399 1 43.8827585263 40.7157301466 0.0
400 1 49.5823585263 41.8131301466 0.0
401 1 55.4560585263 42.9610301466 0.0
402 1 60.8033585263 44.4992301466 0.0
403 1 67.5657585263 43.8341301466 0.0
404 1 71.6445585263 43.0449301466 0.0
405 1 76.7357585263 43.4850301466 0.0
406 1 78.6687585263 47.6966301466 0.0
407 1 3.79670852628 48.1134301466 0.0
408 1 11.3242585263 50.0095301466 0.0
409 1 15.5016585263 48.1645301466 0.0
410 1 22.1968585263 46.0205301466 0.0
411 1 25.6797585263 49.3570301466 0.0
412 1 28.4932585263 48.3569301466 0.0
413 1 36.8547585263 47.5365301466 0.0
414 1 41.6543585263 45.8420301466 0.0
415 1 46.3017585263 45.1571301466 0.0
416 1 51.3652585263 46.9306301466 0.0
417 1 56.4485585263 47.4644301466 0.0
418 1 63.1380585263 46.4616301466 0.0
419 1 68.3237585263 46.7584301466 0.0
420 1 73.4634585263 47.9934301466 0.0
421 1 2.15845852628 50.6527301466 0.0
422 1 7.30059852628 52.3282301466 0.0
423 1 13.2658585263 52.3174301466 0.0
424 1 18.6260585263 52.6454301466 0.0
425 1 23.9025585263 53.4632301466 0.0
426 1 29.4673585263 51.2356301466 0.0
427 1 34.6085585263 52.6778301466 0.0
428 1 39.6303585263 51.8172301466 0.0
429 1 42.6195585263 51.3448301466 0.0
430 1 48.3238585263 50.6927301466 0.0
431 1 54.0332585263 51.1814301466 0.0
432 1 59.6502585263 51.9019301466 0.0
433 1 62.7005585263 51.8561301466 0.0
434 1 69.8831585263 51.4997301466 0.0
435 1 75.7791585263 51.9000301466 0.0
436 1 78.8199585263 56.3826301466 0.0
437 1 2.31741852628 57.2881301466 0.0
438 1 10.4041585263 56.8286301466 0.0
439 1 15.6544585263 56.8198301466 0.0
440 1 20.6633585263 57.6542301466 0.0
441 1 25.9511585263 57.9831301466 0.0
442 1 33.5181585263 58.2168301466 0.0
443 1 37.8592585263 56.8447301466 0.0
444 1 42.6910585263 56.2407301466 0.0
445 1 47.3398585263 53.5123301466 0.0
446 1 51.7471585263 56.1531301466 0.0
447 1 56.2963585263 56.1075301466 0.0
448 1 61.3173585263 56.7805301466 0.0
449 1 68.6032585263 56.9556301466 0.0
450 1 73.2159585263 55.5205301466 0.0
451 1 0.676480526283 61.0179301466 0.0
452 1 10.0903585263 62.7749301466 0.0
453 1 13.4502585263 60.9836301466 0.0
454 1 18.0016585263 62.1847301466 0.0
455 1 22.9860585263 62.4828301466 0.0
456 1 28.5105585263 61.3844301466 0.0
457 1 34.6492585263 61.0514301466 0.0
458 1 40.0433585263 61.1901301466 0.0
459 1 43.0428585263 61.1399301466 0.0
460 1 49.8195585263 60.8227301466 0.0
461 1 55.2750585263 58.9335301466 0.0
462 1 60.9849585263 62.6916301466 0.0
463 1 64.7364585263 59.9717301466 0.0
464 1 69.9086585263 59.6827301466 0.0
465 1 74.9872585263 60.3332301466 0.0
466 1 77.0016585263 65.2003301466 0.0
467 1 3.17659852628 64.7250301466 0.0
468 1 7.59853852628 64.4357301466 0.0
469 1 14.8629585263 66.1842301466 0.0
470 1 20.4795585263 66.5227301466 0.0
471 1 26.3022585263 66.0670301466 0.0
472 1 31.6583585263 65.4508301466 0.0
473 1 38.7397585263 66.9702301466 0.0
474 1 42.4165585263 65.3357301466 0.0
475 1 47.0798585263 65.5029301466 0.0
476 1 51.7044585263 65.8758301466 0.0
477 1 56.4151585263 66.1996301466 0.0
478 1 62.8687585263 65.0381301466 0.0
479 1 67.5891585263 64.6565301466 0.0
480 1 72.0851585263 64.7794301466 0.0
481 1 0.868646526283 69.3863301466 0.0
482 1 5.85847852628 69.2906301466 0.0
483 1 10.3535585263 69.5084301466 0.0
484 1 19.1675585263 72.0345301466 0.0
485 1 26.0840585263 71.6673301466 0.0
486 1 30.0116585263 70.1444301466 0.0
487 1 35.0753585263 69.7732301466 0.0
488 1 41.4792585263 68.1630301466 0.0
489 1 43.3946585263 72.4112301466 0.0
490 1 49.4241585263 70.3022301466 0.0
491 1 55.0944585263 68.8950301466 0.0
492 1 60.2908585263 70.1504301466 0.0
493 1 65.2235585263 69.4025301466 0.0
494 1 70.1960585263 69.3703301466 0.0
495 1 75.0226585263 69.6715301466 0.0
496 1 78.8247585263 73.9314301466 0.0
497 1 4.85915852628 72.1197301466 0.0
498 1 9.49908852628 72.4270301466 0.0
499 1 14.1450585263 71.6475301466 0.0
500 1 21.4869585263 73.9249301466 0.0
501 1 27.9562585263 74.0257301466 0.0
502 1 33.4860585263 74.3892301466 0.0
503 1 38.2095585263 74.8357301466 0.0
504 1 43.6269585263 76.2410301466 0.0
505 1 48.6602585263 73.2203301466 0.0
506 1 53.4420585263 75.1781301466 0.0
507 1 58.7074585263 74.9437301466 0.0
508 1 63.7531585263 74.3917301466 0.0
509 1 68.5295585263 73.8942301466 0.0
510 1 73.5727585263 73.9151301466 0.0
511 1 6.02414852628 77.0312301466 0.0
512 1 13.3843585263 76.6088301466 0.0
513 1 16.3989585263 76.4569301466 0.0
514 1 21.8106585263 76.9060301466 0.0
515 1 27.6409585263 77.0103301466 0.0
516 1 33.1577585263 77.3903301466 0.0
517 1 38.3721585263 77.8855301466 0.0
518 1 43.7102585263 79.2367301466 0.0
519 1 48.9762585263 78.2987301466 0.0
520 1 54.2406585263 78.0692301466 0.0
521 1 59.3247585263 77.8790301466 0.0
522 1 64.2265585263 77.3704301466 0.0
523 1 69.1063585263 76.8500301466 0.0
524 1 74.3961585263 76.8053301466 0.0
525 1 0.383817526283 76.7805301466 0.0
526 1 3.14595852628 78.0339301466 0.0
527 1 8.40929852628 78.8948301466 0.0
528 1 11.4326585263 78.8996301466 0.0
529 1 18.9942585263 78.0228301466 0.0
530 1 24.7145585263 77.7663301466 0.0
531 1 30.3179585263 78.4403301466 0.0
532 1 35.6186585263 79.1526301466 0.0
533 1 40.7391585263 79.8208301466 0.0
534 1 46.5872585263 80.1908301466 0.0
535 1 51.6723585263 79.6182301466 0.0
536 1 56.8476585263 79.5606301466 0.0
537 1 61.9500585263 79.3329301466 0.0
538 1 66.8539585263 78.8356301466 0.0
539 1 71.7682585263 78.2502301466 0.0
540 1 77.1075585263 78.1351301466 0.0
541 2 2.83933852628 79.5216301466 0.0
542 2 3.66635852628 1.69353014661 0.0
543 2 1.36201852628 1.64892014661 0.0
544 2 6.10347852628 1.98584014661 0.0
545 2 8.15070852628 2.83476014661 0.0
546 2 7.97426852628 0.0485401466092 0.0
547 2 12.1995585263 80.2068301466 0.0
548 2 14.2236585263 2.00016014661 0.0
549 2 12.1418585263 2.53200014661 0.0
550 2 19.0879585263 79.5347301466 0.0
551 2 20.8579585263 1.11586014661 0.0
552 2 18.7549585263 2.06440014661 0.0
553 2 24.8049585263 79.2665301466 0.0
554 2 26.1930585263 1.21310014661 0.0
555 2 23.5542585263 1.12530014661 0.0
556 2 30.3483585263 79.9518301466 0.0
557 2 31.3978585263 2.20555014661 0.0
558 2 28.8690585263 1.61539014661 0.0
559 2 35.3906585263 0.354480146609 0.0
560 2 36.4118585263 2.71797014661 0.0
561 2 33.8505585263 2.57326014661 0.0
562 2 40.6056585263 1.03781014661 0.0
563 2 41.5126585263 3.65226014661 0.0
564 2 39.0488585263 3.02228014661 0.0
565 2 46.8086585263 1.40292014661 0.0
566 2 48.4499585263 3.49265014661 0.0
567 2 46.1538585263 4.10772014661 0.0
568 2 51.9471585263 0.792770146609 0.0
569 2 53.5262585263 2.97407014661 0.0
570 2 50.9798585263 3.10313014661 0.0
571 2 57.1233585263 0.741020146609 0.0
572 2 58.6134585263 3.06400014661 0.0
573 2 56.0998585263 3.00153014661 0.0
574 2 62.0613585263 0.538900146609 0.0
575 2 63.5565585263 2.66179014661 0.0
576 2 61.0422585263 3.01303014661 0.0
577 2 67.1008585263 0.0278301466092 0.0
578 2 66.1190585263 2.41202014661 0.0
579 2 68.6236585263 2.28519014661 0.0
580 2 71.9471585263 79.7418301466 0.0
581 2 73.4721585263 1.68103014661 0.0
582 2 71.0354585263 1.89002014661 0.0
583 2 77.1681585263 79.6393301466 0.0
584 2 78.4235585263 1.74498014661 0.0
585 2 75.9760585263 1.65451014661 0.0
586 2 0.115174326283 4.14174014661 0.0
587 2 78.1606585263 6.50717014661 0.0
588 2 1.18644852628 6.55673014661 0.0
589 2 4.78968852628 4.18918014661 0.0
590 2 6.15623852628 6.45829014661 0.0
591 2 3.63551852628 6.53737014661 0.0
592 2 10.1674585263 4.14103014661 0.0
593 2 8.19056852628 5.64137014661 0.0
594 2 16.6949585263 3.23456014661 0.0
595 2 14.7088585263 4.56843014661 0.0
596 2 22.0849585263 3.26090014661 0.0
597 2 23.0989585263 5.67255014661 0.0
598 2 20.6727585263 5.53589014661 0.0
599 2 27.9085585263 5.92867014661 0.0
600 2 27.0806585263 3.51329014661 0.0
601 2 25.5020585263 5.79308014661 0.0
602 2 32.1957585263 4.73740014661 0.0
603 2 32.5332585263 7.51891014661 0.0
604 2 30.3473585263 6.63566014661 0.0
605 2 36.8839585263 7.76985014661 0.0
606 2 39.2396585263 6.97909014661 0.0
607 2 37.6072585263 5.08190014661 0.0
608 2 43.8607585263 5.12287014661 0.0
609 2 41.5950585263 6.19613014661 0.0
610 2 50.5870585263 7.75064014661 0.0
611 2 50.6202585263 5.35654014661 0.0
612 2 53.0018585263 6.76253014661 0.0
613 2 54.7429585263 5.24332014661 0.0
614 2 55.7317585263 7.60900014661 0.0
615 2 59.7364585263 5.42992014661 0.0
616 2 61.0647585263 7.49051014661 0.0
617 2 58.3514585263 7.70673014661 0.0
618 2 65.0112585263 4.79777014661 0.0
619 2 66.3343585263 7.08093014661 0.0
620 2 63.7360585263 7.03718014661 0.0
621 2 71.0727585263 6.86192014661 0.0
622 2 70.7110585263 4.26563014661 0.0
623 2 73.1182585263 5.54587014661 0.0
624 2 74.7801585263 3.98546014661 0.0
625 2 75.7230585263 6.51211014661 0.0
626 2 2.77251852628 8.87258014661 0.0
627 2 4.61086852628 10.7735301466 0.0
628 2 1.86818852628 11.1130301466 0.0
629 2 8.20366852628 8.36146014661 0.0
630 2 10.1501585263 10.2574301466 0.0
631 2 7.38831852628 10.5357301466 0.0
632 2 14.0151585263 7.34525014661 0.0
633 2 15.3477585263 9.59553014661 0.0
634 2 12.7667585263 9.66553014661 0.0
635 2 17.9999585263 9.80723014661 0.0
636 2 20.4569585263 10.3548301466 0.0
637 2 19.3556585263 7.74447014661 0.0
638 2 23.9796585263 8.09398014661 0.0
639 2 25.4746585263 9.58843014661 0.0
640 2 22.8146585263 10.5959301466 0.0
641 2 27.7350585263 10.6158301466 0.0
642 2 29.9928585263 11.6337301466 0.0
643 2 27.5320585263 13.0242301466 0.0
644 2 34.6233585263 9.01603014661 0.0
645 2 32.2996585263 10.1715301466 0.0
646 2 40.8225585263 8.89122014661 0.0
647 2 41.9310585263 11.3110301466 0.0
648 2 39.3494585263 10.9834301466 0.0
649 2 46.1426585263 9.52273014661 0.0
650 2 47.0292585263 11.9619301466 0.0
651 2 44.4854585263 11.6051301466 0.0
652 2 50.3059585263 10.1955301466 0.0
653 2 52.3461585263 12.0301301466 0.0
654 2 49.6045585263 12.3459301466 0.0
655 2 56.7674585263 9.89993014661 0.0
656 2 57.8313585263 12.1446301466 0.0
657 2 55.1210585263 11.9833301466 0.0
658 2 62.9035585263 11.8819301466 0.0
659 2 63.0641585263 9.31413014661 0.0
660 2 65.2290585263 10.8936301466 0.0
661 2 67.1044585263 9.46993014661 0.0
662 2 67.9591585263 11.7886301466 0.0
663 2 71.2762585263 9.52633014661 0.0
664 2 73.2909585263 11.4041301466 0.0
665 2 70.6096585263 11.7657301466 0.0
666 2 77.1124585263 8.90578014661 0.0
667 2 78.6257585263 11.1363301466 0.0
668 2 75.9848585263 11.1794301466 0.0
669 2 0.818386526283 13.3425301466 0.0
670 2 2.53512852628 15.3688301466 0.0
671 2 79.1595585263 15.5169301466 0.0
672 2 6.33423852628 12.7216301466 0.0
673 2 7.87336852628 14.9647301466 0.0
674 2 5.23093852628 14.9131301466 0.0
675 2 12.7005585263 14.5495301466 0.0
676 2 12.3864585263 11.9618301466 0.0
677 2 14.7964585263 13.3322301466 0.0
678 2 16.5653585263 11.9028301466 0.0
679 2 17.3231585263 14.5179301466 0.0
680 2 21.3551585263 12.9510301466 0.0
681 2 22.5990585263 15.1480301466 0.0
682 2 19.8072585263 15.1446301466 0.0
683 2 28.0396585263 15.0733301466 0.0
684 2 25.3329585263 14.8638301466 0.0
685 2 31.9326585263 12.8813301466 0.0
686 2 33.4219585263 15.0601301466 0.0
687 2 30.7528585263 15.0851301466 0.0
688 2 37.6157585263 12.9533301466 0.0
689 2 38.6702585263 15.2807301466 0.0
690 2 36.0628585263 15.1333301466 0.0
691 2 42.9645585263 13.7314301466 0.0
692 2 43.9926585263 16.1388301466 0.0
693 2 41.3445585263 15.6886301466 0.0
694 2 48.0633585263 14.3970301466 0.0
695 2 49.3760585263 16.4950301466 0.0
696 2 46.6139585263 16.5104301466 0.0
697 2 53.6035585263 14.1257301466 0.0
698 2 54.7479585263 16.3864301466 0.0
699 2 52.0985585263 16.3184301466 0.0
700 2 58.9086585263 14.4502301466 0.0
701 2 60.1332585263 16.7139301466 0.0
702 2 57.4467585263 16.4828301466 0.0
703 2 63.0469585263 14.3351301466 0.0
704 2 65.3023585263 16.0882301466 0.0
705 2 62.7172585263 16.5874301466 0.0
706 2 69.3558585263 13.9885301466 0.0
707 2 70.8809585263 15.9658301466 0.0
708 2 68.0665585263 16.0983301466 0.0
709 2 74.8404585263 13.4720301466 0.0
710 2 76.3816585263 15.5409301466 0.0
711 2 73.6454585263 15.7142301466 0.0
712 2 4.80896852628 19.4453301466 0.0
713 2 4.82429852628 17.0710301466 0.0
714 2 7.20473852628 18.6766301466 0.0
715 2 8.92780852628 17.3392301466 0.0
716 2 9.97440852628 19.7030301466 0.0
717 2 12.9396585263 17.1852301466 0.0
718 2 15.2292585263 18.4201301466 0.0
719 2 12.5898585263 19.5574301466 0.0
720 2 17.4176585263 19.6884301466 0.0
721 2 19.5956585263 21.0491301466 0.0
722 2 17.2658585263 22.3971301466 0.0
723 2 24.7975585263 19.6729301466 0.0
724 2 24.6857585263 17.0638301466 0.0
725 2 27.0232585263 18.5410301466 0.0
726 2 29.0461585263 17.1768301466 0.0
727 2 29.8619585263 19.3371301466 0.0
728 2 34.4129585263 17.2980301466 0.0
729 2 35.3507585263 19.5833301466 0.0
730 2 32.6553585263 19.2945301466 0.0
731 2 39.6556585263 17.6326301466 0.0
732 2 40.5987585263 20.0470301466 0.0
733 2 38.0219585263 19.6921301466 0.0
734 2 44.9823585263 18.5412301466 0.0
735 2 45.4183585263 21.3028301466 0.0
736 2 43.1957585263 20.4045301466 0.0
737 2 50.7985585263 18.5552301466 0.0
738 2 52.3755585263 20.4577301466 0.0
739 2 49.9169585263 21.1700301466 0.0
740 2 56.3694585263 18.5648301466 0.0
741 2 57.8299585263 20.9271301466 0.0
742 2 55.1901585263 20.5281301466 0.0
743 2 61.5903585263 18.9059301466 0.0
744 2 63.1458585263 20.9168301466 0.0
745 2 60.4130585263 21.1205301466 0.0
746 2 66.8440585263 18.2152301466 0.0
747 2 68.4077585263 20.3513301466 0.0
748 2 65.8010585263 20.5640301466 0.0
749 2 72.3280585263 17.9520301466 0.0
750 2 73.7160585263 20.0534301466 0.0
751 2 71.0467585263 20.2508301466 0.0
752 2 77.7422585263 17.6498301466 0.0
753 2 79.0623585263 19.8308301466 0.0
754 2 76.4000585263 19.9150301466 0.0
755 2 0.657658526283 22.1022301466 0.0
756 2 1.93560852628 24.1881301466 0.0
757 2 78.6964585263 24.3736301466 0.0
758 2 4.94997852628 21.7888301466 0.0
759 2 7.21596852628 23.5948301466 0.0
760 2 4.61058852628 23.9282301466 0.0
761 2 11.3859585263 21.9484301466 0.0
762 2 12.6254585263 24.3455301466 0.0
763 2 9.93426852628 24.0112301466 0.0
764 2 15.2386585263 24.4334301466 0.0
765 2 17.6792585263 24.9057301466 0.0
766 2 21.2500585263 22.7781301466 0.0
767 2 22.7450585263 24.9295301466 0.0
768 2 20.1343585263 25.0208301466 0.0
769 2 25.1805585263 22.1674301466 0.0
770 2 27.5119585263 23.9657301466 0.0
771 2 25.1703585263 24.5748301466 0.0
772 2 31.3058585263 21.4083301466 0.0
773 2 32.6488585263 23.6587301466 0.0
774 2 30.0715585263 23.6961301466 0.0
775 2 36.6949585263 21.8395301466 0.0
776 2 37.8958585263 24.2515301466 0.0
777 2 35.3029585263 23.9171301466 0.0
778 2 41.8012585263 22.4574301466 0.0
779 2 43.1688585263 24.6986301466 0.0
780 2 40.4874585263 24.5797301466 0.0
781 2 45.4134585263 24.0062301466 0.0
782 2 47.5760585263 22.5300301466 0.0
783 2 53.7866585263 22.4928301466 0.0
784 2 54.3860585263 25.2471301466 0.0
785 2 52.1595585263 24.3430301466 0.0
786 2 59.1519585263 23.2980301466 0.0
787 2 60.8158585263 25.2959301466 0.0