ITEM: TIMESTEP
0
ITEM: NUMBER OF ATOMS
1350
ITEM: BOX BOUNDS xy xz yz pp pp pp
0.0 77.4359043662 0
0.0 82.0905790432 0
-10.0 10.0 0
ITEM: ATOMS id type x y z vx vy vz
1 1 2.68734995994 1.01704952162 0.0 0.0 0.0 0.0
2 1 7.99879995994 0.366937521617 0.0 0.0 0.0 0.0
3 1 11.8849899599 3.74770952162 0.0 0.0 0.0 0.0
4 1 17.3697899599 2.06666952162 0.0 0.0 0.0 0.0
5 1 24.0246899599 1.64408952162 0.0 0.0 0.0 0.0
6 1 29.4108899599 1.11454952162 0.0 0.0 0.0 0.0
7 1 34.5730899599 1.28786952162 0.0 0.0 0.0 0.0
8 1 39.2693899599 1.14158952162 0.0 0.0 0.0 0.0
9 1 45.0913899599 0.416950521617 0.0 0.0 0.0 0.0
10 1 48.1308899599 0.659894521617 0.0 0.0 0.0 0.0
11 1 53.6721899599 0.983199521617 0.0 0.0 0.0 0.0
12 1 57.7705899599 4.25598952162 0.0 0.0 0.0 0.0
13 1 63.0603899599 1.74385952162 0.0 0.0 0.0 0.0
14 1 68.7954899599 2.31497952162 0.0 0.0 0.0 0.0
15 1 74.7449899599 2.17004952162 0.0 0.0 0.0 0.0
16 1 77.4131899599 5.79384952162 0.0 0.0 0.0 0.0
17 1 5.29788995994 5.06274952162 0.0 0.0 0.0 0.0
18 1 10.4799899599 6.44106952162 0.0 0.0 0.0 0.0
19 1 15.7359899599 6.68260952162 0.0 0.0 0.0 0.0
20 1 19.4998899599 4.20784952162 0.0 0.0 0.0 0.0
21 1 27.2602899599 5.61332952162 0.0 0.0 0.0 0.0
22 1 32.9893899599 5.52977952162 0.0 0.0 0.0 0.0
23 1 35.9884899599 5.96359952162 0.0 0.0 0.0 0.0
24 1 40.6868899599 6.77602952162 0.0 0.0 0.0 0.0
25 1 45.3234899599 6.06119952162 0.0 0.0 0.0 0.0
26 1 50.7545899599 5.13113952162 0.0 0.0 0.0 0.0
27 1 55.9087899599 6.62828952162 0.0 0.0 0.0 0.0
28 1 60.7485899599 6.69315952162 0.0 0.0 0.0 0.0
29 1 65.9084899599 5.88870952162 0.0 0.0 0.0 0.0
30 1 70.3020899599 4.94673952162 0.0 0.0 0.0 0.0
31 1 2.90362995994 9.75015952162 0.0 0.0 0.0 0.0
32 1 7.22612995994 12.2850895216 0.0 0.0 0.0 0.0
33 1 11.5264899599 9.27503952162 0.0 0.0 0.0 0.0
34 1 19.3203899599 10.0492895216 0.0 0.0 0.0 0.0
35 1 24.0518899599 9.53664952162 0.0 0.0 0.0 0.0
36 1 27.4274899599 13.3047895216 0.0 0.0 0.0 0.0
37 1 32.2893899599 11.1018895216 0.0 0.0 0.0 0.0
38 1 37.9758899599 11.2544895216 0.0 0.0 0.0 0.0
39 1 44.0471899599 11.1200895216 0.0 0.0 0.0 0.0
40 1 48.9873899599 9.76036952162 0.0 0.0 0.0 0.0
41 1 53.3818899599 12.7774895216 0.0 0.0 0.0 0.0
42 1 58.8492899599 11.3867895216 0.0 0.0 0.0 0.0
43 1 64.2755899599 10.6098895216 0.0 0.0 0.0 0.0
44 1 67.9688899599 13.0577895216 0.0 0.0 0.0 0.0
45 1 75.0487899599 10.5143895216 0.0 0.0 0.0 0.0
46 1 0.467879959943 14.5404895216 0.0 0.0 0.0 0.0
47 1 5.86162995994 14.9593895216 0.0 0.0 0.0 0.0
48 1 10.9696899599 14.8917895216 0.0 0.0 0.0 0.0
49 1 16.5427899599 14.5028895216 0.0 0.0 0.0 0.0
50 1 21.8330899599 14.6517895216 0.0 0.0 0.0 0.0
51 1 26.5607899599 16.1586895216 0.0 0.0 0.0 0.0
52 1 31.5725899599 16.1735895216 0.0 0.0 0.0 0.0
53 1 36.0092899599 17.5250895216 0.0 0.0 0.0 0.0
54 1 39.5834899599 13.8470895216 0.0 0.0 0.0 0.0
55 1 46.5672899599 17.3783895216 0.0 0.0 0.0 0.0
56 1 52.2060899599 15.5683895216 0.0 0.0 0.0 0.0
57 1 57.4044899599 15.9522895216 0.0 0.0 0.0 0.0
58 1 62.4890899599 15.1684895216 0.0 0.0 0.0 0.0
59 1 67.0856899599 17.3439895216 0.0 0.0 0.0 0.0
60 1 70.8321899599 14.0146895216 0.0 0.0 0.0 0.0
61 1 2.40592995994 19.0138895216 0.0 0.0 0.0 0.0
62 1 7.65349995994 19.4191895216 0.0 0.0 0.0 0.0
63 1 13.9961899599 18.7967895216 0.0 0.0 0.0 0.0
64 1 19.4938899599 19.0075895216 0.0 0.0 0.0 0.0
65 1 24.0461899599 20.0275895216 0.0 0.0 0.0 0.0
66 1 29.2072899599 20.7833895216 0.0 0.0 0.0 0.0
67 1 34.6037899599 20.1817895216 0.0 0.0 0.0 0.0
68 1 39.7492899599 19.7165895216 0.0 0.0 0.0 0.0
69 1 44.7999899599 19.8386895216 0.0 0.0 0.0 0.0
70 1 49.7885899599 20.0841895216 0.0 0.0 0.0 0.0
71 1 55.0935899599 20.2600895216 0.0 0.0 0.0 0.0
72 1 59.9253899599 20.1538895216 0.0 0.0 0.0 0.0
73 1 67.4043899599 20.3109895216 0.0 0.0 0.0 0.0
74 1 70.3661899599 19.8853895216 0.0 0.0 0.0 0.0
75 1 74.9874899599 19.0075895216 0.0 0.0 0.0 0.0
76 1 0.0553009599429 23.8362895216 0.0 0.0 0.0 0.0
77 1 4.88297995994 23.6422895216 0.0 0.0 0.0 0.0
78 1 9.23558995994 21.9622895216 0.0 0.0 0.0 0.0
79 1 16.6508899599 23.0692895216 0.0 0.0 0.0 0.0
80 1 21.3384899599 24.4009895216 0.0 0.0 0.0 0.0
81 1 26.6668899599 24.8995895216 0.0 0.0 0.0 0.0
82 1 31.6678899599 24.7689895216 0.0 0.0 0.0 0.0
83 1 36.7218899599 24.4336895216 0.0 0.0 0.0 0.0
84 1 41.6992899599 24.4414895216 0.0 0.0 0.0 0.0
85 1 46.7911899599 24.5845895216 0.0 0.0 0.0 0.0
86 1 52.1178899599 24.5288895216 0.0 0.0 0.0 0.0
87 1 57.3509899599 25.0373895216 0.0 0.0 0.0 0.0
88 1 62.0877899599 25.1857895216 0.0 0.0 0.0 0.0
89 1 67.4713899599 27.0444895216 0.0 0.0 0.0 0.0
90 1 72.6939899599 24.3257895216 0.0 0.0 0.0 0.0
91 1 3.17693995994 28.4831895216 0.0 0.0 0.0 0.0
92 1 7.99887995994 27.5626895216 0.0 0.0 0.0 0.0
93 1 13.2617899599 26.5765895216 0.0 0.0 0.0 0.0
94 1 15.8955899599 30.2995895216 0.0 0.0 0.0 0.0
95 1 24.3714899599 28.9973895216 0.0 0.0 0.0 0.0
96 1 29.6756899599 29.5244895216 0.0 0.0 0.0 0.0
97 1 34.5846899599 29.2130895216 0.0 0.0 0.0 0.0
98 1 39.5862899599 30.9001895216 0.0 0.0 0.0 0.0
99 1 44.9699899599 29.0222895216 0.0 0.0 0.0 0.0
100 1 49.8806899599 28.8947895216 0.0 0.0 0.0 0.0
101 1 54.1096899599 31.4179895216 0.0 0.0 0.0 0.0
102 1 59.7708899599 29.9843895216 0.0 0.0 0.0 0.0
103 1 66.3814899599 29.8541895216 0.0 0.0 0.0 0.0
104 1 71.4994899599 29.1026895216 0.0 0.0 0.0 0.0
105 1 76.0002899599 28.8335895216 0.0 0.0 0.0 0.0
106 1 1.34545995994 33.5987895216 0.0 0.0 0.0 0.0
107 1 6.12011995994 32.7524895216 0.0 0.0 0.0 0.0
108 1 11.2028899599 31.3747895216 0.0 0.0 0.0 0.0
109 1 18.8091899599 30.9141895216 0.0 0.0 0.0 0.0
110 1 21.7057899599 33.4680895216 0.0 0.0 0.0 0.0
111 1 26.6789899599 33.6846895216 0.0 0.0 0.0 0.0
112 1 31.8921899599 34.2009895216 0.0 0.0 0.0 0.0
113 1 39.7106899599 33.8799895216 0.0 0.0 0.0 0.0
114 1 42.6962899599 33.8063895216 0.0 0.0 0.0 0.0
115 1 47.4936899599 33.7191895216 0.0 0.0 0.0 0.0
116 1 52.4986899599 33.9490895216 0.0 0.0 0.0 0.0
117 1 57.4927899599 34.3274895216 0.0 0.0 0.0 0.0
118 1 61.6120899599 32.3825895216 0.0 0.0 0.0 0.0
119 1 69.2314899599 33.9303895216 0.0 0.0 0.0 0.0
120 1 74.0535899599 33.9667895216 0.0 0.0 0.0 0.0
121 1 4.26472995994 37.9707895216 0.0 0.0 0.0 0.0
122 1 10.6139899599 35.9987895216 0.0 0.0 0.0 0.0
123 1 13.5805899599 35.5781895216 0.0 0.0 0.0 0.0
124 1 17.8709899599 36.7542895216 0.0 0.0 0.0 0.0
125 1 22.3664899599 36.3640895216 0.0 0.0 0.0 0.0
126 1 28.6245899599 38.3603895216 0.0 0.0 0.0 0.0
127 1 32.5274899599 37.1748895216 0.0 0.0 0.0 0.0
128 1 39.2870899599 39.1629895216 0.0 0.0 0.0 0.0
129 1 44.6508899599 38.5316895216 0.0 0.0 0.0 0.0
130 1 49.6933899599 38.4976895216 0.0 0.0 0.0 0.0
131 1 54.6584899599 38.7451895216 0.0 0.0 0.0 0.0
132 1 60.1125899599 38.1315895216 0.0 0.0 0.0 0.0
133 1 67.3284899599 37.6057895216 0.0 0.0 0.0 0.0
134 1 70.2475899599 38.3981895216 0.0 0.0 0.0 0.0
135 1 76.5492899599 38.6710895216 0.0 0.0 0.0 0.0
136 1 1.44333995994 42.8239895216 0.0 0.0 0.0 0.0
137 1 7.94089995994 42.3712895216 0.0 0.0 0.0 0.0
138 1 10.8460899599 41.6357895216 0.0 0.0 0.0 0.0
139 1 15.7446899599 41.0762895216 0.0 0.0 0.0 0.0
140 1 20.9387899599 41.4240895216 0.0 0.0 0.0 0.0
141 1 24.8412899599 44.5737895216 0.0 0.0 0.0 0.0
142 1 30.5276899599 42.8900895216 0.0 0.0 0.0 0.0
143 1 35.7067899599 43.3310895216 0.0 0.0 0.0 0.0
144 1 41.4249899599 43.0640895216 0.0 0.0 0.0 0.0
145 1 46.8641899599 43.1434895216 0.0 0.0 0.0 0.0
146 1 51.7322899599 43.2965895216 0.0 0.0 0.0 0.0
147 1 56.4660899599 42.4917895216 0.0 0.0 0.0 0.0
148 1 61.3933899599 42.7632895216 0.0 0.0 0.0 0.0
149 1 67.2177899599 42.4202895216 0.0 0.0 0.0 0.0
150 1 71.7628899599 41.0081895216 0.0 0.0 0.0 0.0
151 1 3.15559995994 47.7246895216 0.0 0.0 0.0 0.0
152 1 8.01074995994 47.8188895216 0.0 0.0 0.0 0.0
153 1 14.8873899599 45.7457895216 0.0 0.0 0.0 0.0
154 1 17.9057899599 45.7505895216 0.0 0.0 0.0 0.0
155 1 22.9450899599 46.9641895216 0.0 0.0 0.0 0.0
156 1 27.6997899599 47.4341895216 0.0 0.0 0.0 0.0
157 1 32.8638899599 47.7063895216 0.0 0.0 0.0 0.0
158 1 38.3617899599 47.1409895216 0.0 0.0 0.0 0.0
159 1 43.8891899599 47.3717895216 0.0 0.0 0.0 0.0
160 1 49.1441899599 47.9890895216 0.0 0.0 0.0 0.0
161 1 55.4909899599 47.4596895216 0.0 0.0 0.0 0.0
162 1 58.4775899599 47.2657895216 0.0 0.0 0.0 0.0
163 1 62.6530899599 45.4706895216 0.0 0.0 0.0 0.0
164 1 69.8370899599 46.4902895216 0.0 0.0 0.0 0.0
165 1 75.2145899599 46.8073895216 0.0 0.0 0.0 0.0
166 1 77.1282899599 51.4307895216 0.0 0.0 0.0 0.0
167 1 4.78384995994 52.4483895216 0.0 0.0 0.0 0.0
168 1 10.6297899599 52.1529895216 0.0 0.0 0.0 0.0
169 1 15.6552899599 50.7555895216 0.0 0.0 0.0 0.0
170 1 19.9859899599 53.3807895216 0.0 0.0 0.0 0.0
171 1 25.2918899599 52.0528895216 0.0 0.0 0.0 0.0
172 1 30.5573899599 53.5209895216 0.0 0.0 0.0 0.0
173 1 37.4855899599 51.1129895216 0.0 0.0 0.0 0.0
174 1 40.4847899599 51.3607895216 0.0 0.0 0.0 0.0
175 1 45.6087899599 52.0004895216 0.0 0.0 0.0 0.0
176 1 50.6500899599 53.1827895216 0.0 0.0 0.0 0.0
177 1 55.5208899599 52.8253895216 0.0 0.0 0.0 0.0
178 1 63.0432899599 50.6188895216 0.0 0.0 0.0 0.0
179 1 66.0411899599 50.3529895216 0.0 0.0 0.0 0.0
180 1 70.5641899599 49.4116895216 0.0 0.0 0.0 0.0
181 1 1.30305995994 56.3111895216 0.0 0.0 0.0 0.0
182 1 5.94799995994 55.2139895216 0.0 0.0 0.0 0.0
183 1 12.9786899599 55.8734895216 0.0 0.0 0.0 0.0
184 1 18.0247899599 55.7099895216 0.0 0.0 0.0 0.0
185 1 22.5722899599 57.1088895216 0.0 0.0 0.0 0.0
186 1 30.1316899599 56.4760895216 0.0 0.0 0.0 0.0
187 1 33.0830899599 56.8615895216 0.0 0.0 0.0 0.0
188 1 38.1772899599 56.4642895216 0.0 0.0 0.0 0.0
189 1 43.3109899599 56.1869895216 0.0 0.0 0.0 0.0
190 1 48.0738899599 59.0874895216 0.0 0.0 0.0 0.0
191 1 53.5896899599 57.7469895216 0.0 0.0 0.0 0.0
192 1 58.4618899599 56.7797895216 0.0 0.0 0.0 0.0
193 1 63.1998899599 55.3859895216 0.0 0.0 0.0 0.0
194 1 68.6369899599 54.8230895216 0.0 0.0 0.0 0.0
195 1 73.7295899599 55.2883895216 0.0 0.0 0.0 0.0
196 1 76.1414899599 60.3867895216 0.0 0.0 0.0 0.0
197 1 3.82858995994 60.5611895216 0.0 0.0 0.0 0.0
198 1 9.15898995994 60.0696895216 0.0 0.0 0.0 0.0
199 1 14.4809899599 60.2668895216 0.0 0.0 0.0 0.0
200 1 19.1491899599 61.1004895216 0.0 0.0 0.0 0.0
201 1 23.0357899599 60.1127895216 0.0 0.0 0.0 0.0
202 1 29.8955899599 61.6091895216 0.0 0.0 0.0 0.0
203 1 35.4334899599 61.1777895216 0.0 0.0 0.0 0.0
204 1 40.8302899599 60.9149895216 0.0 0.0 0.0 0.0
205 1 46.5382899599 61.6726895216 0.0 0.0 0.0 0.0
206 1 51.8841899599 62.3009895216 0.0 0.0 0.0 0.0
207 1 57.4970899599 61.7401895216 0.0 0.0 0.0 0.0
208 1 62.6379899599 60.3992895216 0.0 0.0 0.0 0.0
209 1 68.1775899599 60.6865895216 0.0 0.0 0.0 0.0
210 1 71.0336899599 59.6912895216 0.0 0.0 0.0 0.0
211 1 1.01940995994 65.1348895216 0.0 0.0 0.0 0.0
212 1 6.15966995994 64.7183895216 0.0 0.0 0.0 0.0
213 1 11.3455899599 64.5592895216 0.0 0.0 0.0 0.0
214 1 16.3742899599 65.5035895216 0.0 0.0 0.0 0.0
215 1 21.3453899599 65.8635895216 0.0 0.0 0.0 0.0
216 1 26.4639899599 66.0318895216 0.0 0.0 0.0 0.0
217 1 31.9853899599 65.3994895216 0.0 0.0 0.0 0.0
218 1 37.0439899599 65.1795895216 0.0 0.0 0.0 0.0
219 1 42.7041899599 65.0956895216 0.0 0.0 0.0 0.0
220 1 49.0988899599 66.3509895216 0.0 0.0 0.0 0.0
221 1 55.0301899599 66.1402895216 0.0 0.0 0.0 0.0
222 1 61.9931899599 65.1261895216 0.0 0.0 0.0 0.0
223 1 65.0177899599 64.9004895216 0.0 0.0 0.0 0.0
224 1 70.5621899599 64.8994895216 0.0 0.0 0.0 0.0
225 1 73.5775899599 64.6532895216 0.0 0.0 0.0 0.0
226 1 76.2045899599 69.7752895216 0.0 0.0 0.0 0.0
227 1 4.12225995994 69.5296895216 0.0 0.0 0.0 0.0
228 1 9.36378995994 69.1192895216 0.0 0.0 0.0 0.0
229 1 14.5899899599 71.3982895216 0.0 0.0 0.0 0.0
230 1 19.3896899599 72.4082895216 0.0 0.0 0.0 0.0
231 1 24.7137899599 70.4672895216 0.0 0.0 0.0 0.0
232 1 29.8731899599 69.8021895216 0.0 0.0 0.0 0.0
233 1 34.3482899599 72.0075895216 0.0 0.0 0.0 0.0
234 1 39.4381899599 69.0615895216 0.0 0.0 0.0 0.0
235 1 44.1919899599 67.6954895216 0.0 0.0 0.0 0.0
236 1 51.4914899599 69.7269895216 0.0 0.0 0.0 0.0
237 1 57.1034899599 70.5353895216 0.0 0.0 0.0 0.0
238 1 61.6237899599 70.8081895216 0.0 0.0 0.0 0.0
239 1 66.4880899599 70.5331895216 0.0 0.0 0.0 0.0
240 1 71.3502899599 72.9182895216 0.0 0.0 0.0 0.0
241 1 2.09273995994 74.0922895216 0.0 0.0 0.0 0.0
242 1 7.59313995994 73.7854895216 0.0 0.0 0.0 0.0
243 1 13.2999899599 74.1579895216 0.0 0.0 0.0 0.0
244 1 18.2359899599 75.1949895216 0.0 0.0 0.0 0.0
245 1 23.1524899599 75.3306895216 0.0 0.0 0.0 0.0
246 1 28.4182899599 74.5685895216 0.0 0.0 0.0 0.0
247 1 33.9094899599 74.9710895216 0.0 0.0 0.0 0.0
248 1 38.5935899599 73.5930895216 0.0 0.0 0.0 0.0
249 1 43.1507899599 75.3519895216 0.0 0.0 0.0 0.0
250 1 46.7120899599 71.5877895216 0.0 0.0 0.0 0.0
251 1 53.3676899599 73.8781895216 0.0 0.0 0.0 0.0
252 1 57.7745899599 73.4550895216 0.0 0.0 0.0 0.0
253 1 64.5272899599 75.4004895216 0.0 0.0 0.0 0.0
254 1 69.8097899599 75.5230895216 0.0 0.0 0.0 0.0
255 1 74.6199899599 75.1485895216 0.0 0.0 0.0 0.0
256 1 0.245469959943 2.79754952162 0.0 0.0 0.0 0.0
257 1 5.50884995994 2.06725952162 0.0 0.0 0.0 0.0
258 1 10.9699899599 0.866640521617 0.0 0.0 0.0 0.0
259 1 14.8969899599 3.79666952162 0.0 0.0 0.0 0.0
260 1 22.4977899599 4.22189952162 0.0 0.0 0.0 0.0
261 1 26.8453899599 2.64927952162 0.0 0.0 0.0 0.0
262 1 31.9543899599 2.71046952162 0.0 0.0 0.0 0.0
263 1 36.9775899599 3.10476952162 0.0 0.0 0.0 0.0
264 1 42.7159899599 4.54952952162 0.0 0.0 0.0 0.0
265 1 42.2819899599 1.57999952162 0.0 0.0 0.0 0.0
266 1 50.8280899599 2.09878952162 0.0 0.0 0.0 0.0
267 1 56.6454899599 1.50563952162 0.0 0.0 0.0 0.0
268 1 60.7334899599 3.69598952162 0.0 0.0 0.0 0.0
269 1 65.8428899599 2.89785952162 0.0 0.0 0.0 0.0
270 1 73.3196899599 4.86283952162 0.0 0.0 0.0 0.0
271 1 2.80860995994 6.75259952162 0.0 0.0 0.0 0.0
272 1 7.52966995994 7.06116952162 0.0 0.0 0.0 0.0
273 1 14.5180899599 9.42091952162 0.0 0.0 0.0 0.0
274 1 18.7010899599 7.10434952162 0.0 0.0 0.0 0.0
275 1 24.3984899599 6.55635952162 0.0 0.0 0.0 0.0
276 1 29.7937899599 9.44978952162 0.0 0.0 0.0 0.0
277 1 30.1415899599 6.49291952162 0.0 0.0 0.0 0.0
278 1 38.0292899599 8.20848952162 0.0 0.0 0.0 0.0
279 1 43.2827899599 8.24973952162 0.0 0.0 0.0 0.0
280 1 48.2500899599 6.82184952162 0.0 0.0 0.0 0.0
281 1 52.9466899599 7.21938952162 0.0 0.0 0.0 0.0
282 1 58.2976899599 8.43721952162 0.0 0.0 0.0 0.0
283 1 63.5456899599 7.71848952162 0.0 0.0 0.0 0.0
284 1 68.5056899599 7.38278952162 0.0 0.0 0.0 0.0
285 1 74.8971899599 7.45978952162 0.0 0.0 0.0 0.0
286 1 0.458089959943 11.5222895216 0.0 0.0 0.0 0.0
287 1 5.90598995994 9.60427952162 0.0 0.0 0.0 0.0
288 1 10.2119899599 11.9867895216 0.0 0.0 0.0 0.0
289 1 16.6856899599 11.4985895216 0.0 0.0 0.0 0.0
290 1 21.8846899599 11.6278895216 0.0 0.0 0.0 0.0
291 1 26.9306899599 10.3682895216 0.0 0.0 0.0 0.0
292 1 30.4134899599 13.4307895216 0.0 0.0 0.0 0.0
293 1 35.0987899599 12.1422895216 0.0 0.0 0.0 0.0
294 1 42.5923899599 13.7232895216 0.0 0.0 0.0 0.0
295 1 46.9179899599 11.9600895216 0.0 0.0 0.0 0.0
296 1 51.9854899599 10.0883895216 0.0 0.0 0.0 0.0
297 1 56.3883899599 13.1215895216 0.0 0.0 0.0 0.0
298 1 61.7424899599 12.2597895216 0.0 0.0 0.0 0.0
299 1 67.2627899599 10.1445895216 0.0 0.0 0.0 0.0
300 1 73.7574899599 13.2811895216 0.0 0.0 0.0 0.0
301 1 3.05564995994 16.0717895216 0.0 0.0 0.0 0.0
302 1 8.43209995994 16.5200895216 0.0 0.0 0.0 0.0
303 1 13.8303899599 15.8052895216 0.0 0.0 0.0 0.0
304 1 19.1549899599 16.0117895216 0.0 0.0 0.0 0.0
305 1 23.7007899599 17.0271895216 0.0 0.0 0.0 0.0
306 1 29.0680899599 17.8021895216 0.0 0.0 0.0 0.0
307 1 34.3461899599 15.0530895216 0.0 0.0 0.0 0.0
308 1 38.9273899599 16.8119895216 0.0 0.0 0.0 0.0
309 1 45.4670899599 14.5961895216 0.0 0.0 0.0 0.0
310 1 49.5820899599 17.0929895216 0.0 0.0 0.0 0.0
311 1 54.7028899599 17.2777895216 0.0 0.0 0.0 0.0
312 1 60.1860899599 17.1389895216 0.0 0.0 0.0 0.0
313 1 65.4953899599 14.8185895216 0.0 0.0 0.0 0.0
314 1 70.0507899599 16.9087895216 0.0 0.0 0.0 0.0
315 1 75.2330899599 15.9500895216 0.0 0.0 0.0 0.0
316 1 77.4160899599 20.8011895216 0.0 0.0 0.0 0.0
317 1 4.91749995994 20.6412895216 0.0 0.0 0.0 0.0
318 1 12.1030899599 21.1175895216 0.0 0.0 0.0 0.0
319 1 16.7047899599 20.0802895216 0.0 0.0 0.0 0.0
320 1 21.3669899599 21.3759895216 0.0 0.0 0.0 0.0
321 1 26.4205899599 21.8966895216 0.0 0.0 0.0 0.0
322 1 32.0398899599 21.7814895216 0.0 0.0 0.0 0.0
323 1 37.3032899599 21.4882895216 0.0 0.0 0.0 0.0
324 1 42.2228899599 21.4401895216 0.0 0.0 0.0 0.0
325 1 47.2058899599 21.6200895216 0.0 0.0 0.0 0.0
326 1 52.3939899599 21.5536895216 0.0 0.0 0.0 0.0
327 1 57.5438899599 22.0108895216 0.0 0.0 0.0 0.0
328 1 62.1365899599 22.1816895216 0.0 0.0 0.0 0.0
329 1 65.1256899599 22.2474895216 0.0 0.0 0.0 0.0
330 1 73.0016899599 21.3061895216 0.0 0.0 0.0 0.0
331 1 2.54957995994 25.5293895216 0.0 0.0 0.0 0.0
332 1 7.73341995994 24.5665895216 0.0 0.0 0.0 0.0
333 1 13.7129899599 23.6328895216 0.0 0.0 0.0 0.0
334 1 18.5053899599 25.4193895216 0.0 0.0 0.0 0.0
335 1 23.8825899599 26.0309895216 0.0 0.0 0.0 0.0
336 1 29.2198899599 26.5262895216 0.0 0.0 0.0 0.0
337 1 34.2912899599 26.2158895216 0.0 0.0 0.0 0.0
338 1 39.1819899599 26.1346895216 0.0 0.0 0.0 0.0
339 1 44.2102899599 26.1089895216 0.0 0.0 0.0 0.0
340 1 49.4643899599 25.9319895216 0.0 0.0 0.0 0.0
341 1 54.5817899599 26.2316895216 0.0 0.0 0.0 0.0
342 1 59.6720899599 26.9683895216 0.0 0.0 0.0 0.0
343 1 65.0826899599 25.2366895216 0.0 0.0 0.0 0.0
344 1 70.4073899599 26.3032895216 0.0 0.0 0.0 0.0
345 1 75.2799899599 25.8853895216 0.0 0.0 0.0 0.0
346 1 1.02248995994 30.5802895216 0.0 0.0 0.0 0.0
347 1 5.90989995994 29.7376895216 0.0 0.0 0.0 0.0
348 1 10.8768899599 28.3957895216 0.0 0.0 0.0 0.0
349 1 16.1687899599 27.3209895216 0.0 0.0 0.0 0.0
350 1 21.7704899599 30.4871895216 0.0 0.0 0.0 0.0
351 1 26.8807899599 30.6768895216 0.0 0.0 0.0 0.0
352 1 32.2425899599 31.1638895216 0.0 0.0 0.0 0.0
353 1 37.5683899599 28.6984895216 0.0 0.0 0.0 0.0
354 1 42.5756899599 30.8185895216 0.0 0.0 0.0 0.0
355 1 47.4755899599 30.7009895216 0.0 0.0 0.0 0.0
356 1 52.8776899599 28.7057895216 0.0 0.0 0.0 0.0
357 1 57.1064899599 31.3620895216 0.0 0.0 0.0 0.0
358 1 64.6176899599 32.2959895216 0.0 0.0 0.0 0.0
359 1 69.1584899599 30.9548895216 0.0 0.0 0.0 0.0
360 1 73.8681899599 30.9486895216 0.0 0.0 0.0 0.0
361 1 4.04550995994 34.9468895216 0.0 0.0 0.0 0.0
362 1 9.03883995994 33.4503895216 0.0 0.0 0.0 0.0
363 1 13.9460899599 32.5901895216 0.0 0.0 0.0 0.0
364 1 18.7510899599 33.8959895216 0.0 0.0 0.0 0.0
365 1 25.3280899599 36.3694895216 0.0 0.0 0.0 0.0
366 1 29.1375899599 35.3800895216 0.0 0.0 0.0 0.0
367 1 35.4562899599 37.7067895216 0.0 0.0 0.0 0.0
368 1 38.1331899599 36.4078895216 0.0 0.0 0.0 0.0
369 1 45.1169899599 35.5615895216 0.0 0.0 0.0 0.0
370 1 49.9196899599 35.4891895216 0.0 0.0 0.0 0.0
371 1 54.8693899599 35.7681895216 0.0 0.0 0.0 0.0
372 1 60.3706899599 35.1325895216 0.0 0.0 0.0 0.0
373 1 66.3554899599 34.7623895216 0.0 0.0 0.0 0.0
374 1 71.6210899599 35.7304895216 0.0 0.0 0.0 0.0
375 1 76.5538899599 35.6395895216 0.0 0.0 0.0 0.0
376 1 1.88728995994 39.8353895216 0.0 0.0 0.0 0.0
377 1 6.80970995994 39.5902895216 0.0 0.0 0.0 0.0
378 1 9.71598995994 38.8540895216 0.0 0.0 0.0 0.0
379 1 15.2093899599 38.1075895216 0.0 0.0 0.0 0.0
380 1 20.2903899599 38.5058895216 0.0 0.0 0.0 0.0
381 1 25.8016899599 39.3380895216 0.0 0.0 0.0 0.0
382 1 31.1762899599 39.9085895216 0.0 0.0 0.0 0.0
383 1 36.5909899599 40.4693895216 0.0 0.0 0.0 0.0
384 1 42.1105899599 40.1403895216 0.0 0.0 0.0 0.0
385 1 47.1777899599 40.1491895216 0.0 0.0 0.0 0.0
386 1 52.0915899599 40.3090895216 0.0 0.0 0.0 0.0
387 1 57.5078899599 39.6719895216 0.0 0.0 0.0 0.0
388 1 62.4840899599 39.9718895216 0.0 0.0 0.0 0.0
389 1 65.4883899599 39.9642895216 0.0 0.0 0.0 0.0
390 1 74.7723899599 41.1254895216 0.0 0.0 0.0 0.0
391 1 3.72784995994 44.7844895216 0.0 0.0 0.0 0.0
392 1 6.71591995994 45.1008895216 0.0 0.0 0.0 0.0
393 1 13.4973899599 43.0678895216 0.0 0.0 0.0 0.0
394 1 18.2512899599 42.7604895216 0.0 0.0 0.0 0.0
395 1 23.9303899599 41.7111895216 0.0 0.0 0.0 0.0
396 1 27.8781899599 44.4291895216 0.0 0.0 0.0 0.0
397 1 32.9853899599 44.6720895216 0.0 0.0 0.0 0.0
398 1 38.6077899599 44.1601895216 0.0 0.0 0.0 0.0
399 1 44.1239899599 44.3859895216 0.0 0.0 0.0 0.0
400 1 49.2478899599 44.9786895216 0.0 0.0 0.0 0.0
401 1 54.3937899599 44.6604895216 0.0 0.0 0.0 0.0
402 1 58.8336899599 44.2908895216 0.0 0.0 0.0 0.0
403 1 65.5754899599 44.9161895216 0.0 0.0 0.0 0.0
404 1 70.0360899599 43.4740895216 0.0 0.0 0.0 0.0
405 1 76.0395899599 43.8745895216 0.0 0.0 0.0 0.0
406 1 0.261329959943 48.4882895216 0.0 0.0 0.0 0.0
407 1 5.54970995994 49.5426895216 0.0 0.0 0.0 0.0
408 1 10.7113899599 49.1488895216 0.0 0.0 0.0 0.0
409 1 13.6567899599 48.4883895216 0.0 0.0 0.0 0.0
410 1 20.0411899599 47.8976895216 0.0 0.0 0.0 0.0
411 1 25.1270899599 49.0353895216 0.0 0.0 0.0 0.0
412 1 30.1668899599 49.1324895216 0.0 0.0 0.0 0.0
413 1 35.7523899599 48.6473895216 0.0 0.0 0.0 0.0
414 1 41.0799899599 48.4301895216 0.0 0.0 0.0 0.0
415 1 46.3476899599 49.0921895216 0.0 0.0 0.0 0.0
416 1 51.1662899599 50.2194895216 0.0 0.0 0.0 0.0
417 1 54.1658899599 50.1444895216 0.0 0.0 0.0 0.0
418 1 61.3280899599 48.1605895216 0.0 0.0 0.0 0.0
419 1 67.0244899599 47.5161895216 0.0 0.0 0.0 0.0
420 1 73.5570899599 49.3608895216 0.0 0.0 0.0 0.0
421 1 1.94364995994 53.3854895216 0.0 0.0 0.0 0.0
422 1 8.88855995994 54.6205895216 0.0 0.0 0.0 0.0
423 1 13.5399899599 52.9156895216 0.0 0.0 0.0 0.0
424 1 18.6949899599 50.6300895216 0.0 0.0 0.0 0.0
425 1 22.9620899599 54.0764895216 0.0 0.0 0.0 0.0
426 1 28.3080899599 51.5441895216 0.0 0.0 0.0 0.0
427 1 33.5282899599 53.9055895216 0.0 0.0 0.0 0.0
428 1 36.5300899599 53.9414895216 0.0 0.0 0.0 0.0
429 1 42.8563899599 53.2127895216 0.0 0.0 0.0 0.0
430 1 47.7801899599 54.0701895216 0.0 0.0 0.0 0.0
431 1 53.2157899599 54.7591895216 0.0 0.0 0.0 0.0
432 1 58.3767899599 53.7758895216 0.0 0.0 0.0 0.0
433 1 61.3033899599 53.0602895216 0.0 0.0 0.0 0.0
434 1 68.6814899599 51.7920895216 0.0 0.0 0.0 0.0
435 1 74.2703899599 52.3041895216 0.0 0.0 0.0 0.0
436 1 75.9274899599 57.3716895216 0.0 0.0 0.0 0.0
437 1 4.03499995994 57.5530895216 0.0 0.0 0.0 0.0
438 1 10.3039899599 57.2661895216 0.0 0.0 0.0 0.0
439 1 15.5319899599 57.4271895216 0.0 0.0 0.0 0.0
440 1 19.7583899599 58.1454895216 0.0 0.0 0.0 0.0
441 1 25.9790899599 60.5247895216 0.0 0.0 0.0 0.0
442 1 28.5066899599 58.9644895216 0.0 0.0 0.0 0.0
443 1 35.7435899599 58.2137895216 0.0 0.0 0.0 0.0
444 1 40.8315899599 57.8960895216 0.0 0.0 0.0 0.0
445 1 46.2857899599 56.6725895216 0.0 0.0 0.0 0.0
446 1 51.0781899599 59.4048895216 0.0 0.0 0.0 0.0
447 1 56.3690899599 58.9333895216 0.0 0.0 0.0 0.0
448 1 61.3119899599 57.7122895216 0.0 0.0 0.0 0.0
449 1 66.0351899599 56.3652895216 0.0 0.0 0.0 0.0
450 1 71.0408899599 56.6581895216 0.0 0.0 0.0 0.0
451 1 1.21016995994 62.0983895216 0.0 0.0 0.0 0.0
452 1 6.61010995994 61.7246895216 0.0 0.0 0.0 0.0
453 1 11.7619899599 61.5783895216 0.0 0.0 0.0 0.0
454 1 16.4955899599 62.4946895216 0.0 0.0 0.0 0.0
455 1 21.6131899599 62.8107895216 0.0 0.0 0.0 0.0
456 1 27.3428899599 63.1741895216 0.0 0.0 0.0 0.0
457 1 32.7426899599 62.5046895216 0.0 0.0 0.0 0.0
458 1 38.1711899599 62.3808895216 0.0 0.0 0.0 0.0
459 1 43.5594899599 62.2185895216 0.0 0.0 0.0 0.0
460 1 49.0420899599 63.3567895216 0.0 0.0 0.0 0.0
461 1 54.8085899599 63.1438895216 0.0 0.0 0.0 0.0
462 1 60.4579899599 62.5097895216 0.0 0.0 0.0 0.0
463 1 65.4814899599 59.3380895216 0.0 0.0 0.0 0.0
464 1 67.7911899599 63.6625895216 0.0 0.0 0.0 0.0
465 1 73.3921899599 61.6221895216 0.0 0.0 0.0 0.0
466 1 75.8525899599 66.7155895216 0.0 0.0 0.0 0.0
467 1 3.72103995994 66.5170895216 0.0 0.0 0.0 0.0
468 1 8.80001995994 66.1610895216 0.0 0.0 0.0 0.0
469 1 13.5655899599 66.5801895216 0.0 0.0 0.0 0.0
470 1 18.7090899599 67.4075895216 0.0 0.0 0.0 0.0
471 1 23.8670899599 67.5555895216 0.0 0.0 0.0 0.0
472 1 29.3494899599 66.8572895216 0.0 0.0 0.0 0.0
473 1 34.5612899599 66.9281895216 0.0 0.0 0.0 0.0
474 1 39.8811899599 66.1147895216 0.0 0.0 0.0 0.0
475 1 47.0458899599 68.5789895216 0.0 0.0 0.0 0.0
476 1 52.0744899599 66.8037895216 0.0 0.0 0.0 0.0
477 1 57.6944899599 67.6003895216 0.0 0.0 0.0 0.0
478 1 60.7063899599 67.8807895216 0.0 0.0 0.0 0.0
479 1 66.3884899599 67.5569895216 0.0 0.0 0.0 0.0
480 1 69.3851899599 67.6335895216 0.0 0.0 0.0 0.0
481 1 1.52072995994 71.1020895216 0.0 0.0 0.0 0.0
482 1 6.87595995994 70.8385895216 0.0 0.0 0.0 0.0
483 1 12.3780899599 69.3453895216 0.0 0.0 0.0 0.0
484 1 17.3851899599 70.1582895216 0.0 0.0 0.0 0.0
485 1 22.4076899599 72.4159895216 0.0 0.0 0.0 0.0
486 1 27.5075899599 71.6770895216 0.0 0.0 0.0 0.0
487 1 32.8617899599 69.4268895216 0.0 0.0 0.0 0.0
488 1 37.1524899599 70.9825895216 0.0 0.0 0.0 0.0
489 1 42.2755899599 70.0007895216 0.0 0.0 0.0 0.0
490 1 49.6436899599 72.0787895216 0.0 0.0 0.0 0.0
491 1 54.1681899599 71.0089895216 0.0 0.0 0.0 0.0
492 1 60.7298899599 73.7070895216 0.0 0.0 0.0 0.0
493 1 64.1741899599 72.4016895216 0.0 0.0 0.0 0.0
494 1 69.4693899599 70.6066895216 0.0 0.0 0.0 0.0
495 1 74.2732899599 72.1473895216 0.0 0.0 0.0 0.0
496 1 77.4048899599 76.2625895216 0.0 0.0 0.0 0.0
497 1 4.91190995994 75.2117895216 0.0 0.0 0.0 0.0
498 1 10.3793899599 75.0397895216 0.0 0.0 0.0 0.0
499 1 15.4291899599 76.3167895216 0.0 0.0 0.0 0.0
500 1 20.6441899599 76.9974895216 0.0 0.0 0.0 0.0
501 1 25.9853899599 76.3501895216 0.0 0.0 0.0 0.0
502 1 31.0883899599 76.0139895216 0.0 0.0 0.0 0.0
503 1 36.7525899599 75.9564895216 0.0 0.0 0.0 0.0
504 1 41.4984899599 72.8794895216 0.0 0.0 0.0 0.0
505 1 46.0282899599 74.5388895216 0.0 0.0 0.0 0.0
506 1 50.5674899599 74.9137895216 0.0 0.0 0.0 0.0
507 1 55.7598899599 75.6493895216 0.0 0.0 0.0 0.0
508 1 61.7493899599 76.5559895216 0.0 0.0 0.0 0.0
509 1 67.1230899599 76.9302895216 0.0 0.0 0.0 0.0
510 1 72.3365899599 77.1394895216 0.0 0.0 0.0 0.0
511 1 4.86391995994 78.2323895216 0.0 0.0 0.0 0.0
512 1 10.2780899599 78.0678895216 0.0 0.0 0.0 0.0
513 1 15.2495899599 79.3459895216 0.0 0.0 0.0 0.0
514 1 20.5092899599 80.0038895216 0.0 0.0 0.0 0.0
515 1 26.1075899599 79.3580895216 0.0 0.0 0.0 0.0
516 1 31.7549899599 78.9595895216 0.0 0.0 0.0 0.0
517 1 38.8003899599 78.1496895216 0.0 0.0 0.0 0.0
518 1 41.7996899599 78.0244895216 0.0 0.0 0.0 0.0
519 1 46.5364899599 77.5156895216 0.0 0.0 0.0 0.0
520 1 50.8440899599 77.8836895216 0.0 0.0 0.0 0.0
521 1 55.2487899599 80.5138895216 0.0 0.0 0.0 0.0
522 1 60.8768899599 79.4717895216 0.0 0.0 0.0 0.0
523 1 66.4856899599 79.8947895216 0.0 0.0 0.0 0.0
524 1 71.8801899599 80.1206895216 0.0 0.0 0.0 0.0
525 1 77.0272899599 79.2705895216 0.0 0.0 0.0 0.0
526 1 2.48757995994 80.1037895216 0.0 0.0 0.0 0.0
527 1 7.61089995994 79.4736895216 0.0 0.0 0.0 0.0
528 1 12.3611899599 80.2636895216 0.0 0.0 0.0 0.0
529 1 17.6983899599 81.1461895216 0.0 0.0 0.0 0.0
530 1 23.4337899599 80.7914895216 0.0 0.0 0.0 0.0
531 1 29.0108899599 80.2310895216 0.0 0.0 0.0 0.0
532 1 34.4488899599 80.3844895216 0.0 0.0 0.0 0.0
533 1 37.4460899599 80.8090895216 0.0 0.0 0.0 0.0
534 1 44.3528899599 79.5855895216 0.0 0.0 0.0 0.0
535 1 48.5323899599 79.7644895216 0.0 0.0 0.0 0.0
536 1 53.8317899599 77.9142895216 0.0 0.0 0.0 0.0
537 1 58.2179899599 81.0067895216 0.0 0.0 0.0 0.0
538 1 63.5816899599 80.8564895216 0.0 0.0 0.0 0.0
539 1 69.1278899599 81.4026895216 0.0 0.0 0.0 0.0
540 1 74.6885899599 81.2299895216 0.0 0.0 0.0 0.0
541 2 2.60299995994 81.6061895216 0.0 0.0 0.0 0.0
542 2 1.46858995994 1.91326952162 0.0 0.0 0.0 0.0
543 2 4.10310995994 1.52865952162 0.0 0.0 0.0 0.0
544 2 7.75691995994 80.9721895216 0.0 0.0 0.0 0.0
545 2 9.46868995994 0.689218521617 0.0 0.0 0.0 0.0
546 2 6.77888995994 1.25755952162 0.0 0.0 0.0 0.0
547 2 11.4063899599 2.31312952162 0.0 0.0 0.0 0.0
548 2 13.3949899599 3.72523952162 0.0 0.0 0.0 0.0
549 2 11.1573899599 5.08400952162 0.0 0.0 0.0 0.0
550 2 17.5279899599 0.565560521617 0.0 0.0 0.0 0.0
551 2 18.4959899599 3.08432952162 0.0 0.0 0.0 0.0
552 2 16.0608899599 2.83462952162 0.0 0.0 0.0 0.0
553 2 23.6853899599 0.189853521617 0.0 0.0 0.0 0.0
554 2 25.4618899599 2.08586952162 0.0 0.0 0.0 0.0
555 2 23.1891899599 2.88921952162 0.0 0.0 0.0 0.0
556 2 29.2258899599 81.7218895216 0.0 0.0 0.0 0.0
557 2 30.6682899599 1.93834952162 0.0 0.0 0.0 0.0
558 2 28.1161899599 1.86497952162 0.0 0.0 0.0 0.0
559 2 34.4280899599 81.8928895216 0.0 0.0 0.0 0.0
560 2 35.7871899599 2.16909952162 0.0 0.0 0.0 0.0
561 2 33.2364899599 1.94592952162 0.0 0.0 0.0 0.0
562 2 38.3834899599 81.9969895216 0.0 0.0 0.0 0.0
563 2 40.7848899599 1.27067952162 0.0 0.0 0.0 0.0
564 2 38.2295899599 2.25703952162 0.0 0.0 0.0 0.0
565 2 43.6910899599 1.01436952162 0.0 0.0 0.0 0.0
566 2 44.7399899599 81.0330895216 0.0 0.0 0.0 0.0
567 2 46.5929899599 0.720261521617 0.0 0.0 0.0 0.0
568 2 48.3750899599 81.2515895216 0.0 0.0 0.0 0.0
569 2 49.4549899599 1.42119952162 0.0 0.0 0.0 0.0
570 2 54.3067899599 81.6915895216 0.0 0.0 0.0 0.0
571 2 55.1313899599 1.43847952162 0.0 0.0 0.0 0.0
572 2 52.2467899599 1.51399952162 0.0 0.0 0.0 0.0
573 2 57.1632899599 2.89343952162 0.0 0.0 0.0 0.0
574 2 59.2328899599 3.89494952162 0.0 0.0 0.0 0.0
575 2 56.7950899599 5.40182952162 0.0 0.0 0.0 0.0
576 2 63.2746899599 0.251024521617 0.0 0.0 0.0 0.0
577 2 64.4633899599 2.30950952162 0.0 0.0 0.0 0.0
578 2 61.8469899599 2.66498952162 0.0 0.0 0.0 0.0
579 2 69.0576899599 0.825800521617 0.0 0.0 0.0 0.0
580 2 69.6010899599 3.59711952162 0.0 0.0 0.0 0.0
581 2 67.2975899599 2.52232952162 0.0 0.0 0.0 0.0
582 2 74.6554899599 0.655583521617 0.0 0.0 0.0 0.0
583 2 76.2312899599 2.41099952162 0.0 0.0 0.0 0.0
584 2 73.9707899599 3.48247952162 0.0 0.0 0.0 0.0
585 2 0.130789959943 4.29753952162 0.0 0.0 0.0 0.0
586 2 1.39227995994 6.28194952162 0.0 0.0 0.0 0.0
587 2 76.2073899599 6.68924952162 0.0 0.0 0.0 0.0
588 2 5.44650995994 3.57194952162 0.0 0.0 0.0 0.0
589 2 6.48036995994 5.98518952162 0.0 0.0 0.0 0.0
590 2 4.02202995994 5.86541952162 0.0 0.0 0.0 0.0
591 2 11.0350899599 7.85155952162 0.0 0.0 0.0 0.0
592 2 8.98788995994 6.70168952162 0.0 0.0 0.0 0.0
593 2 15.2841899599 5.25528952162 0.0 0.0 0.0 0.0
594 2 17.2133899599 6.91561952162 0.0 0.0 0.0 0.0
595 2 15.0592899599 8.01909952162 0.0 0.0 0.0 0.0
596 2 21.0026899599 4.16394952162 0.0 0.0 0.0 0.0
597 2 19.1799899599 5.68109952162 0.0 0.0 0.0 0.0
598 2 27.0668899599 4.12608952162 0.0 0.0 0.0 0.0