ITEM: TIMESTEP
0
ITEM: NUMBER OF ATOMS
1350
ITEM: BOX BOUNDS xy xz yz pp pp pp
0.0 78.8643080254 0
0.0 80.4057590817 0
-10.0 10.0 0
ITEM: ATOMS id type x y z vx vy vz
1 1 2.98837178957 2.16277954083 0.0 0.0 0.0 0.0
2 1 8.34227178957 2.37508954083 0.0 0.0 0.0 0.0
3 1 13.9048917896 2.23864954083 0.0 0.0 0.0 0.0
4 1 18.9515917896 2.35442954083 0.0 0.0 0.0 0.0
5 1 24.2012917896 1.92895954083 0.0 0.0 0.0 0.0
6 1 29.3204917896 1.01557954083 0.0 0.0 0.0 0.0
7 1 34.3257917896 0.839389540832 0.0 0.0 0.0 0.0
8 1 39.2820917896 80.2508795408 0.0 0.0 0.0 0.0
9 1 44.9772917896 0.518439540832 0.0 0.0 0.0 0.0
10 1 50.8449917896 1.33118954083 0.0 0.0 0.0 0.0
11 1 55.9929917896 1.06364954083 0.0 0.0 0.0 0.0
12 1 60.7459917896 3.35685954083 0.0 0.0 0.0 0.0
13 1 66.5335917896 1.63101954083 0.0 0.0 0.0 0.0
14 1 71.6339917896 1.91259954083 0.0 0.0 0.0 0.0
15 1 77.0201917896 1.84161954083 0.0 0.0 0.0 0.0
16 1 0.130324789565 6.77034954083 0.0 0.0 0.0 0.0
17 1 5.11780178957 6.58415954083 0.0 0.0 0.0 0.0
18 1 10.3691917896 6.34942954083 0.0 0.0 0.0 0.0
19 1 15.4960917896 6.89449954083 0.0 0.0 0.0 0.0
20 1 21.8746917896 6.68879954083 0.0 0.0 0.0 0.0
21 1 28.7596917896 5.47533954083 0.0 0.0 0.0 0.0
22 1 31.7747917896 5.57894954083 0.0 0.0 0.0 0.0
23 1 38.8289917896 4.34621954083 0.0 0.0 0.0 0.0
24 1 41.7956917896 4.03100954083 0.0 0.0 0.0 0.0
25 1 46.2804917896 3.24615954083 0.0 0.0 0.0 0.0
26 1 53.6346917896 5.75435954083 0.0 0.0 0.0 0.0
27 1 58.8261917896 5.70759954083 0.0 0.0 0.0 0.0
28 1 63.9037917896 5.86229954083 0.0 0.0 0.0 0.0
29 1 68.8777917896 6.40035954083 0.0 0.0 0.0 0.0
30 1 73.8703917896 6.26356954083 0.0 0.0 0.0 0.0
31 1 2.84382178957 11.3563795408 0.0 0.0 0.0 0.0
32 1 7.95167178957 10.9060795408 0.0 0.0 0.0 0.0
33 1 12.6448917896 13.0258795408 0.0 0.0 0.0 0.0
34 1 17.0410917896 9.47927954083 0.0 0.0 0.0 0.0
35 1 24.0700917896 11.0091795408 0.0 0.0 0.0 0.0
36 1 29.0510917896 10.8533795408 0.0 0.0 0.0 0.0
37 1 35.5976917896 10.0742795408 0.0 0.0 0.0 0.0
38 1 38.5233917896 9.38567954083 0.0 0.0 0.0 0.0
39 1 44.0900917896 8.56623954083 0.0 0.0 0.0 0.0
40 1 49.8241917896 9.38387954083 0.0 0.0 0.0 0.0
41 1 56.0986917896 10.3192795408 0.0 0.0 0.0 0.0
42 1 61.4459917896 10.3569795408 0.0 0.0 0.0 0.0
43 1 65.6477917896 12.9456795408 0.0 0.0 0.0 0.0
44 1 71.0360917896 11.0262795408 0.0 0.0 0.0 0.0
45 1 76.1976917896 11.0756795408 0.0 0.0 0.0 0.0
46 1 78.5325917896 15.4192795408 0.0 0.0 0.0 0.0
47 1 5.22972178957 15.7300795408 0.0 0.0 0.0 0.0
48 1 11.3187917896 15.7241795408 0.0 0.0 0.0 0.0
49 1 16.3008917896 15.0000795408 0.0 0.0 0.0 0.0
50 1 21.1016917896 14.8912795408 0.0 0.0 0.0 0.0
51 1 25.9750917896 15.5149795408 0.0 0.0 0.0 0.0
52 1 31.0518917896 15.7027795408 0.0 0.0 0.0 0.0
53 1 36.4919917896 15.0013795408 0.0 0.0 0.0 0.0
54 1 41.6048917896 13.0908795408 0.0 0.0 0.0 0.0
55 1 46.7566917896 12.8006795408 0.0 0.0 0.0 0.0
56 1 51.2228917896 12.0748795408 0.0 0.0 0.0 0.0
57 1 58.2613917896 14.6832795408 0.0 0.0 0.0 0.0
58 1 63.6494917896 15.2008795408 0.0 0.0 0.0 0.0
59 1 68.7597917896 15.8959795408 0.0 0.0 0.0 0.0
60 1 73.4931917896 15.6246795408 0.0 0.0 0.0 0.0
61 1 2.51249178957 19.6664795408 0.0 0.0 0.0 0.0
62 1 6.50731178957 18.4668795408 0.0 0.0 0.0 0.0
63 1 13.5125917896 19.9118795408 0.0 0.0 0.0 0.0
64 1 18.6373917896 19.7385795408 0.0 0.0 0.0 0.0
65 1 23.4579917896 19.9148795408 0.0 0.0 0.0 0.0
66 1 28.5688917896 20.1621795408 0.0 0.0 0.0 0.0
67 1 32.7900917896 18.1476795408 0.0 0.0 0.0 0.0
68 1 40.1600917896 18.1504795408 0.0 0.0 0.0 0.0
69 1 45.3092917896 17.2857795408 0.0 0.0 0.0 0.0
70 1 49.5685917896 20.0059795408 0.0 0.0 0.0 0.0
71 1 54.8599917896 18.4774795408 0.0 0.0 0.0 0.0
72 1 60.0618917896 19.1878795408 0.0 0.0 0.0 0.0
73 1 65.3234917896 19.9799795408 0.0 0.0 0.0 0.0
74 1 70.5866917896 20.5458795408 0.0 0.0 0.0 0.0
75 1 76.0087917896 20.1570795408 0.0 0.0 0.0 0.0
76 1 0.0315917895651 24.1790795408 0.0 0.0 0.0 0.0
77 1 4.81568178957 24.1726795408 0.0 0.0 0.0 0.0
78 1 10.0424917896 23.8133795408 0.0 0.0 0.0 0.0
79 1 15.3016917896 24.2419795408 0.0 0.0 0.0 0.0
80 1 20.6445917896 24.5894795408 0.0 0.0 0.0 0.0
81 1 26.6865917896 24.4878795408 0.0 0.0 0.0 0.0
82 1 32.2781917896 23.7246795408 0.0 0.0 0.0 0.0
83 1 37.5574917896 23.0664795408 0.0 0.0 0.0 0.0
84 1 42.8025917896 22.1790795408 0.0 0.0 0.0 0.0
85 1 48.2389917896 22.7208795408 0.0 0.0 0.0 0.0
86 1 52.5316917896 23.4613795408 0.0 0.0 0.0 0.0
87 1 57.1210917896 23.3483795408 0.0 0.0 0.0 0.0
88 1 62.6742917896 23.9585795408 0.0 0.0 0.0 0.0
89 1 67.7530917896 24.6532795408 0.0 0.0 0.0 0.0
90 1 71.7871917896 23.3025795408 0.0 0.0 0.0 0.0
91 1 2.43748178957 30.6803795408 0.0 0.0 0.0 0.0
92 1 7.59584178957 28.4768795408 0.0 0.0 0.0 0.0
93 1 12.7385917896 28.4603795408 0.0 0.0 0.0 0.0
94 1 17.8417917896 28.7325795408 0.0 0.0 0.0 0.0
95 1 22.1049917896 27.2135795408 0.0 0.0 0.0 0.0
96 1 29.3879917896 28.1105795408 0.0 0.0 0.0 0.0
97 1 34.7041917896 27.7830795408 0.0 0.0 0.0 0.0
98 1 41.5212917896 26.7972795408 0.0 0.0 0.0 0.0
99 1 44.5135917896 26.5576795408 0.0 0.0 0.0 0.0
100 1 49.4539917896 28.1154795408 0.0 0.0 0.0 0.0
101 1 54.6127917896 28.3773795408 0.0 0.0 0.0 0.0
102 1 60.0227917896 27.7244795408 0.0 0.0 0.0 0.0
103 1 65.4255917896 28.8428795408 0.0 0.0 0.0 0.0
104 1 70.9002917896 28.9775795408 0.0 0.0 0.0 0.0
105 1 76.3303917896 28.4996795408 0.0 0.0 0.0 0.0
106 1 2.61637178957 33.6701795408 0.0 0.0 0.0 0.0
107 1 5.61526178957 33.5585795408 0.0 0.0 0.0 0.0
108 1 10.5757917896 32.9900795408 0.0 0.0 0.0 0.0
109 1 15.7397917896 33.1134795408 0.0 0.0 0.0 0.0
110 1 20.6969917896 32.8350795408 0.0 0.0 0.0 0.0
111 1 25.8527917896 32.3985795408 0.0 0.0 0.0 0.0
112 1 31.0685917896 32.1592795408 0.0 0.0 0.0 0.0
113 1 36.4313917896 32.4945795408 0.0 0.0 0.0 0.0
114 1 41.3279917896 32.1972795408 0.0 0.0 0.0 0.0
115 1 46.1804917896 31.7659795408 0.0 0.0 0.0 0.0
116 1 50.6024917896 30.9164795408 0.0 0.0 0.0 0.0
117 1 57.5773917896 32.2786795408 0.0 0.0 0.0 0.0
118 1 62.2304917896 34.1533795408 0.0 0.0 0.0 0.0
119 1 67.9466917896 33.2445795408 0.0 0.0 0.0 0.0
120 1 73.7577917896 33.1237795408 0.0 0.0 0.0 0.0
121 1 1.58166178957 38.4558795408 0.0 0.0 0.0 0.0
122 1 9.95539178957 37.4354795408 0.0 0.0 0.0 0.0
123 1 12.9636917896 37.5741795408 0.0 0.0 0.0 0.0
124 1 17.8787917896 37.6620795408 0.0 0.0 0.0 0.0
125 1 22.8506917896 37.1170795408 0.0 0.0 0.0 0.0
126 1 28.0054917896 36.7437795408 0.0 0.0 0.0 0.0
127 1 33.2202917896 36.5964795408 0.0 0.0 0.0 0.0
128 1 38.9124917896 37.0520795408 0.0 0.0 0.0 0.0
129 1 45.0120917896 36.5382795408 0.0 0.0 0.0 0.0
130 1 49.5578917896 38.8398795408 0.0 0.0 0.0 0.0
131 1 54.9568917896 36.9842795408 0.0 0.0 0.0 0.0
132 1 60.6819917896 36.7414795408 0.0 0.0 0.0 0.0
133 1 65.3403917896 39.6520795408 0.0 0.0 0.0 0.0
134 1 70.6274917896 37.1214795408 0.0 0.0 0.0 0.0
135 1 75.6232917896 37.7511795408 0.0 0.0 0.0 0.0
136 1 78.2666917896 42.7835795408 0.0 0.0 0.0 0.0
137 1 3.28494178957 40.9739795408 0.0 0.0 0.0 0.0
138 1 10.6099917896 42.7602795408 0.0 0.0 0.0 0.0
139 1 15.6148917896 42.4010795408 0.0 0.0 0.0 0.0
140 1 20.3097917896 42.0829795408 0.0 0.0 0.0 0.0
141 1 25.3006917896 41.4666795408 0.0 0.0 0.0 0.0
142 1 30.8102917896 41.1379795408 0.0 0.0 0.0 0.0
143 1 35.9816917896 40.6832795408 0.0 0.0 0.0 0.0
144 1 40.4944917896 39.6068795408 0.0 0.0 0.0 0.0
145 1 47.6077917896 41.1864795408 0.0 0.0 0.0 0.0
146 1 52.7517917896 42.0271795408 0.0 0.0 0.0 0.0
147 1 58.1668917896 40.9657795408 0.0 0.0 0.0 0.0
148 1 63.6584917896 42.1318795408 0.0 0.0 0.0 0.0
149 1 68.6675917896 41.9058795408 0.0 0.0 0.0 0.0
150 1 73.5495917896 41.9909795408 0.0 0.0 0.0 0.0
151 1 2.06607178957 46.8491795408 0.0 0.0 0.0 0.0
152 1 8.33170178957 46.9440795408 0.0 0.0 0.0 0.0
153 1 13.5641917896 47.2592795408 0.0 0.0 0.0 0.0
154 1 18.2242917896 47.1834795408 0.0 0.0 0.0 0.0
155 1 23.0810917896 46.4356795408 0.0 0.0 0.0 0.0
156 1 28.7884917896 45.3860795408 0.0 0.0 0.0 0.0
157 1 34.6999917896 45.1639795408 0.0 0.0 0.0 0.0
158 1 40.6399917896 45.9686795408 0.0 0.0 0.0 0.0
159 1 43.4300917896 44.6989795408 0.0 0.0 0.0 0.0
160 1 48.1431917896 44.1441795408 0.0 0.0 0.0 0.0
161 1 55.5893917896 45.6960795408 0.0 0.0 0.0 0.0
162 1 60.8481917896 45.6434795408 0.0 0.0 0.0 0.0
163 1 67.7222917896 46.2488795408 0.0 0.0 0.0 0.0
164 1 70.6948917896 46.6266795408 0.0 0.0 0.0 0.0
165 1 75.7544917896 47.1549795408 0.0 0.0 0.0 0.0
166 1 78.6499917896 51.5347795408 0.0 0.0 0.0 0.0
167 1 3.66443178957 49.4069795408 0.0 0.0 0.0 0.0
168 1 9.80877178957 53.9535795408 0.0 0.0 0.0 0.0
169 1 15.5271917896 52.1933795408 0.0 0.0 0.0 0.0
170 1 21.0213917896 51.6335795408 0.0 0.0 0.0 0.0
171 1 25.7953917896 49.7601795408 0.0 0.0 0.0 0.0
172 1 30.5456917896 48.7732795408 0.0 0.0 0.0 0.0
173 1 38.2142917896 50.7736795408 0.0 0.0 0.0 0.0
174 1 42.5548917896 51.3282795408 0.0 0.0 0.0 0.0
175 1 46.8399917896 49.2220795408 0.0 0.0 0.0 0.0
176 1 50.9543917896 47.6462795408 0.0 0.0 0.0 0.0
177 1 57.4842917896 49.9848795408 0.0 0.0 0.0 0.0
178 1 62.0206917896 50.9891795408 0.0 0.0 0.0 0.0
179 1 66.9953917896 51.0066795408 0.0 0.0 0.0 0.0
180 1 72.7996917896 51.4440795408 0.0 0.0 0.0 0.0
181 1 3.04830178957 55.2442795408 0.0 0.0 0.0 0.0
182 1 8.17099178957 56.5136795408 0.0 0.0 0.0 0.0
183 1 13.1757917896 56.4843795408 0.0 0.0 0.0 0.0
184 1 17.2174917896 54.7400795408 0.0 0.0 0.0 0.0
185 1 24.6030917896 55.0616795408 0.0 0.0 0.0 0.0
186 1 28.6046917896 53.9874795408 0.0 0.0 0.0 0.0
187 1 32.6107917896 50.8857795408 0.0 0.0 0.0 0.0
188 1 37.2616917896 56.6078795408 0.0 0.0 0.0 0.0
189 1 41.2776917896 54.0432795408 0.0 0.0 0.0 0.0
190 1 49.8481917896 53.4601795408 0.0 0.0 0.0 0.0
191 1 54.3456917896 54.0531795408 0.0 0.0 0.0 0.0
192 1 59.0452917896 56.9602795408 0.0 0.0 0.0 0.0
193 1 64.5687917896 55.6364795408 0.0 0.0 0.0 0.0
194 1 69.7880917896 54.8947795408 0.0 0.0 0.0 0.0
195 1 74.3559917896 54.0133795408 0.0 0.0 0.0 0.0
196 1 0.286437789565 59.6135795408 0.0 0.0 0.0 0.0
197 1 4.66259178957 62.4003795408 0.0 0.0 0.0 0.0
198 1 12.4344917896 60.6170795408 0.0 0.0 0.0 0.0
199 1 15.4559917896 60.5077795408 0.0 0.0 0.0 0.0
200 1 24.0027917896 59.4276795408 0.0 0.0 0.0 0.0
201 1 27.0667917896 59.6128795408 0.0 0.0 0.0 0.0
202 1 34.3653917896 54.5946795408 0.0 0.0 0.0 0.0
203 1 35.2520917896 61.4211795408 0.0 0.0 0.0 0.0
204 1 40.8167917896 59.7380795408 0.0 0.0 0.0 0.0
205 1 46.1862917896 57.4713795408 0.0 0.0 0.0 0.0
206 1 52.1929917896 58.8335795408 0.0 0.0 0.0 0.0
207 1 57.6826917896 59.6200795408 0.0 0.0 0.0 0.0
208 1 63.0885917896 60.0143795408 0.0 0.0 0.0 0.0
209 1 68.6293917896 59.3788795408 0.0 0.0 0.0 0.0
210 1 73.7236917896 61.3480795408 0.0 0.0 0.0 0.0
211 1 2.95428178957 64.9100795408 0.0 0.0 0.0 0.0
212 1 7.79241178957 65.7133795408 0.0 0.0 0.0 0.0
213 1 12.0045917896 65.7950795408 0.0 0.0 0.0 0.0
214 1 16.8581917896 63.2062795408 0.0 0.0 0.0 0.0
215 1 23.5916917896 65.0972795408 0.0 0.0 0.0 0.0
216 1 29.3292917896 64.2772795408 0.0 0.0 0.0 0.0
217 1 34.7947917896 64.3777795408 0.0 0.0 0.0 0.0
218 1 39.9969917896 63.8447795408 0.0 0.0 0.0 0.0
219 1 45.0351917896 62.0026795408 0.0 0.0 0.0 0.0
220 1 50.0272917896 64.2490795408 0.0 0.0 0.0 0.0
221 1 55.2917917896 63.3983795408 0.0 0.0 0.0 0.0
222 1 60.4880917896 64.0862795408 0.0 0.0 0.0 0.0
223 1 66.2141917896 63.7975795408 0.0 0.0 0.0 0.0
224 1 71.6717917896 63.5687795408 0.0 0.0 0.0 0.0
225 1 76.3828917896 64.5312795408 0.0 0.0 0.0 0.0
226 1 77.3105917896 67.3910795408 0.0 0.0 0.0 0.0
227 1 5.04223178957 69.9299795408 0.0 0.0 0.0 0.0
228 1 10.0561917896 70.8376795408 0.0 0.0 0.0 0.0
229 1 14.0208917896 68.0396795408 0.0 0.0 0.0 0.0
230 1 20.1507917896 70.8216795408 0.0 0.0 0.0 0.0
231 1 24.9574917896 67.7867795408 0.0 0.0 0.0 0.0
232 1 32.2903917896 68.5690795408 0.0 0.0 0.0 0.0
233 1 37.7550917896 68.5471795408 0.0 0.0 0.0 0.0
234 1 43.3469917896 67.2328795408 0.0 0.0 0.0 0.0
235 1 48.6302917896 66.9585795408 0.0 0.0 0.0 0.0
236 1 53.3065917896 68.1530795408 0.0 0.0 0.0 0.0
237 1 58.2569917896 68.1754795408 0.0 0.0 0.0 0.0
238 1 63.4617917896 67.8155795408 0.0 0.0 0.0 0.0
239 1 68.7660917896 67.9484795408 0.0 0.0 0.0 0.0
240 1 73.1602917896 68.7577795408 0.0 0.0 0.0 0.0
241 1 2.09816178957 73.4880795408 0.0 0.0 0.0 0.0
242 1 7.42443178957 75.9483795408 0.0 0.0 0.0 0.0
243 1 13.1869917896 73.9857795408 0.0 0.0 0.0 0.0
244 1 18.8093917896 73.5522795408 0.0 0.0 0.0 0.0
245 1 23.8920917896 73.1976795408 0.0 0.0 0.0 0.0
246 1 29.2799917896 72.6104795408 0.0 0.0 0.0 0.0
247 1 34.9572917896 72.8308795408 0.0 0.0 0.0 0.0
248 1 40.5758917896 71.7776795408 0.0 0.0 0.0 0.0
249 1 45.8886917896 71.5930795408 0.0 0.0 0.0 0.0
250 1 50.5956917896 72.3123795408 0.0 0.0 0.0 0.0
251 1 55.7626917896 72.8504795408 0.0 0.0 0.0 0.0
252 1 62.5774917896 72.0078795408 0.0 0.0 0.0 0.0
253 1 65.5739917896 72.2109795408 0.0 0.0 0.0 0.0
254 1 70.3675917896 73.3279795408 0.0 0.0 0.0 0.0
255 1 75.7489917896 73.0402795408 0.0 0.0 0.0 0.0
256 1 0.449680789565 3.77978954083 0.0 0.0 0.0 0.0
257 1 5.60717178957 3.62474954083 0.0 0.0 0.0 0.0
258 1 11.1428917896 3.45518954083 0.0 0.0 0.0 0.0
259 1 16.3767917896 3.98201954083 0.0 0.0 0.0 0.0
260 1 21.6947917896 3.65776954083 0.0 0.0 0.0 0.0
261 1 27.0431917896 2.98304954083 0.0 0.0 0.0 0.0
262 1 31.8906917896 2.57897954083 0.0 0.0 0.0 0.0
263 1 37.1195917896 1.90518954083 0.0 0.0 0.0 0.0
264 1 42.0286917896 1.04583954083 0.0 0.0 0.0 0.0
265 1 49.2228917896 3.87223954083 0.0 0.0 0.0 0.0
266 1 53.5100917896 2.74624954083 0.0 0.0 0.0 0.0
267 1 58.9988917896 0.938309540832 0.0 0.0 0.0 0.0
268 1 63.7492917896 2.87276954083 0.0 0.0 0.0 0.0
269 1 68.9926917896 3.38661954083 0.0 0.0 0.0 0.0
270 1 74.3346917896 3.26552954083 0.0 0.0 0.0 0.0
271 1 2.68776178957 8.34901954083 0.0 0.0 0.0 0.0
272 1 7.79812178957 7.91033954083 0.0 0.0 0.0 0.0
273 1 12.7468917896 8.15635954083 0.0 0.0 0.0 0.0
274 1 20.0302917896 9.10287954083 0.0 0.0 0.0 0.0
275 1 24.5589917896 8.05715954083 0.0 0.0 0.0 0.0
276 1 27.5662917896 8.22350954083 0.0 0.0 0.0 0.0
277 1 34.1771917896 7.41922954083 0.0 0.0 0.0 0.0
278 1 37.0959917896 6.75715954083 0.0 0.0 0.0 0.0
279 1 44.3612917896 5.56845954083 0.0 0.0 0.0 0.0
280 1 50.7205917896 6.50043954083 0.0 0.0 0.0 0.0
281 1 56.2337917896 7.28800954083 0.0 0.0 0.0 0.0
282 1 61.3041917896 7.37353954083 0.0 0.0 0.0 0.0
283 1 66.2018917896 7.77407954083 0.0 0.0 0.0 0.0
284 1 71.4086917896 8.02343954083 0.0 0.0 0.0 0.0
285 1 76.2806917896 8.06598954083 0.0 0.0 0.0 0.0
286 1 0.0224577895651 12.4361795408 0.0 0.0 0.0 0.0
287 1 5.53929178957 12.7288795408 0.0 0.0 0.0 0.0
288 1 10.9462917896 10.5792795408 0.0 0.0 0.0 0.0
289 1 15.5216917896 12.1039795408 0.0 0.0 0.0 0.0
290 1 21.2109917896 11.8795795408 0.0 0.0 0.0 0.0
291 1 26.6075917896 12.5915795408 0.0 0.0 0.0 0.0
292 1 31.4194917896 12.7211795408 0.0 0.0 0.0 0.0
293 1 34.4217917896 12.8200795408 0.0 0.0 0.0 0.0
294 1 41.4656917896 10.0828795408 0.0 0.0 0.0 0.0
295 1 46.8404917896 9.80467954083 0.0 0.0 0.0 0.0
296 1 54.1823917896 12.6700795408 0.0 0.0 0.0 0.0
297 1 58.7624917896 11.7197795408 0.0 0.0 0.0 0.0
298 1 64.4484917896 10.2175795408 0.0 0.0 0.0 0.0
299 1 68.6609917896 12.8967795408 0.0 0.0 0.0 0.0
300 1 73.5996917896 12.6110795408 0.0 0.0 0.0 0.0
301 1 2.38844178957 16.6745795408 0.0 0.0 0.0 0.0
302 1 9.47946178957 18.1073795408 0.0 0.0 0.0 0.0
303 1 14.0351917896 16.9673795408 0.0 0.0 0.0 0.0
304 1 18.7391917896 16.7315795408 0.0 0.0 0.0 0.0
305 1 23.3279917896 16.9082795408 0.0 0.0 0.0 0.0
306 1 28.4517917896 17.1747795408 0.0 0.0 0.0 0.0
307 1 35.7646917896 17.9102795408 0.0 0.0 0.0 0.0
308 1 39.4818917896 15.2153795408 0.0 0.0 0.0 0.0
309 1 44.2713917896 14.4681795408 0.0 0.0 0.0 0.0
310 1 49.2966917896 14.3984795408 0.0 0.0 0.0 0.0
311 1 55.3507917896 15.4745795408 0.0 0.0 0.0 0.0
312 1 60.8192917896 16.2678795408 0.0 0.0 0.0 0.0
313 1 65.9930917896 17.0673795408 0.0 0.0 0.0 0.0
314 1 71.2251917896 17.6014795408 0.0 0.0 0.0 0.0
315 1 76.0732917896 17.1509795408 0.0 0.0 0.0 0.0
316 1 78.8126917896 21.1915795408 0.0 0.0 0.0 0.0
317 1 5.11209178957 21.1520795408 0.0 0.0 0.0 0.0
318 1 10.6734917896 20.8678795408 0.0 0.0 0.0 0.0
319 1 16.1168917896 21.3636795408 0.0 0.0 0.0 0.0
320 1 20.9857917896 21.6047795408 0.0 0.0 0.0 0.0
321 1 25.9423917896 21.5925795408 0.0 0.0 0.0 0.0
322 1 31.4812917896 20.8416795408 0.0 0.0 0.0 0.0
323 1 37.8406917896 20.0689795408 0.0 0.0 0.0 0.0
324 1 42.9783917896 19.1840795408 0.0 0.0 0.0 0.0
325 1 48.3252917896 17.2584795408 0.0 0.0 0.0 0.0
326 1 52.5482917896 20.4370795408 0.0 0.0 0.0 0.0
327 1 57.2590917896 20.3216795408 0.0 0.0 0.0 0.0
328 1 62.4942917896 20.9625795408 0.0 0.0 0.0 0.0
329 1 67.8043917896 21.6528795408 0.0 0.0 0.0 0.0
330 1 74.7399917896 22.8834795408 0.0 0.0 0.0 0.0
331 1 2.39341178957 26.0027795408 0.0 0.0 0.0 0.0
332 1 7.52715178957 25.4678795408 0.0 0.0 0.0 0.0
333 1 12.5600917896 25.4606795408 0.0 0.0 0.0 0.0
334 1 17.8833917896 25.7440795408 0.0 0.0 0.0 0.0
335 1 25.0864917896 27.0226795408 0.0 0.0 0.0 0.0
336 1 29.6167917896 25.1239795408 0.0 0.0 0.0 0.0
337 1 35.0847917896 24.7956795408 0.0 0.0 0.0 0.0
338 1 40.4124917896 24.0077795408 0.0 0.0 0.0 0.0
339 1 45.3944917896 23.6866795408 0.0 0.0 0.0 0.0
340 1 50.0337917896 25.1408795408 0.0 0.0 0.0 0.0
341 1 54.8587917896 25.3552795408 0.0 0.0 0.0 0.0
342 1 59.7826917896 24.7440795408 0.0 0.0 0.0 0.0
343 1 65.0132917896 25.8608795408 0.0 0.0 0.0 0.0
344 1 70.4381917896 25.9924795408 0.0 0.0 0.0 0.0
345 1 76.2093917896 25.4987795408 0.0 0.0 0.0 0.0
346 1 0.507793789565 28.3864795408 0.0 0.0 0.0 0.0
347 1 5.43092178957 30.5584795408 0.0 0.0 0.0 0.0
348 1 10.1762917896 30.0128795408 0.0 0.0 0.0 0.0
349 1 15.2151917896 30.1600795408 0.0 0.0 0.0 0.0
350 1 20.6244917896 29.8297795408 0.0 0.0 0.0 0.0
351 1 26.7335917896 29.5215795408 0.0 0.0 0.0 0.0
352 1 32.1144917896 29.3374795408 0.0 0.0 0.0 0.0
353 1 37.1122917896 29.5745795408 0.0 0.0 0.0 0.0
354 1 40.1131917896 29.4463795408 0.0 0.0 0.0 0.0
355 1 46.5246917896 28.7830795408 0.0 0.0 0.0 0.0
356 1 53.5871917896 31.2403795408 0.0 0.0 0.0 0.0
357 1 57.4562917896 29.2833795408 0.0 0.0 0.0 0.0
358 1 62.4730917896 29.4463795408 0.0 0.0 0.0 0.0
359 1 68.1253917896 30.2267795408 0.0 0.0 0.0 0.0
360 1 73.7343917896 30.0932795408 0.0 0.0 0.0 0.0
361 1 0.371510789565 35.6643795408 0.0 0.0 0.0 0.0
362 1 8.29021178957 34.9311795408 0.0 0.0 0.0 0.0
363 1 13.1308917896 34.5782795408 0.0 0.0 0.0 0.0
364 1 18.3060917896 34.6731795408 0.0 0.0 0.0 0.0
365 1 23.3916917896 34.1470795408 0.0 0.0 0.0 0.0
366 1 28.5183917896 33.7757795408 0.0 0.0 0.0 0.0
367 1 33.6619917896 33.6433795408 0.0 0.0 0.0 0.0
368 1 38.9877917896 34.0620795408 0.0 0.0 0.0 0.0
369 1 43.9144917896 33.7267795408 0.0 0.0 0.0 0.0
370 1 48.7575917896 33.3033795408 0.0 0.0 0.0 0.0
371 1 55.0463917896 33.9187795408 0.0 0.0 0.0 0.0
372 1 60.5253917896 31.7298795408 0.0 0.0 0.0 0.0
373 1 65.2053917896 34.6101795408 0.0 0.0 0.0 0.0
374 1 70.8678917896 34.1197795408 0.0 0.0 0.0 0.0
375 1 76.2993917896 34.8294795408 0.0 0.0 0.0 0.0
376 1 77.7902917896 39.8258795408 0.0 0.0 0.0 0.0
377 1 6.24243178957 41.4924795408 0.0 0.0 0.0 0.0
378 1 8.96691178957 40.2519795408 0.0 0.0 0.0 0.0
379 1 15.3903917896 39.3782795408 0.0 0.0 0.0 0.0
380 1 20.5364917896 39.0662795408 0.0 0.0 0.0 0.0
381 1 25.5297917896 38.4644795408 0.0 0.0 0.0 0.0
382 1 30.6561917896 38.1468795408 0.0 0.0 0.0 0.0
383 1 35.9948917896 37.7046795408 0.0 0.0 0.0 0.0
384 1 43.4656917896 39.1434795408 0.0 0.0 0.0 0.0
385 1 48.0230917896 36.2359795408 0.0 0.0 0.0 0.0
386 1 52.5992917896 38.9837795408 0.0 0.0 0.0 0.0
387 1 57.8688917896 37.9480795408 0.0 0.0 0.0 0.0
388 1 63.6593917896 37.2077795408 0.0 0.0 0.0 0.0
389 1 68.2522917896 38.9501795408 0.0 0.0 0.0 0.0
390 1 72.9332917896 39.0484795408 0.0 0.0 0.0 0.0
391 1 2.21227178957 43.8150795408 0.0 0.0 0.0 0.0
392 1 7.87913178957 43.9972795408 0.0 0.0 0.0 0.0
393 1 13.2362917896 44.2470795408 0.0 0.0 0.0 0.0
394 1 18.0878917896 44.1373795408 0.0 0.0 0.0 0.0
395 1 22.9975917896 43.4188795408 0.0 0.0 0.0 0.0
396 1 28.1272917896 42.4712795408 0.0 0.0 0.0 0.0
397 1 33.5382917896 42.3944795408 0.0 0.0 0.0 0.0
398 1 38.6638917896 42.0052795408 0.0 0.0 0.0 0.0
399 1 44.6647917896 41.9050795408 0.0 0.0 0.0 0.0
400 1 51.1035917896 44.6050795408 0.0 0.0 0.0 0.0
401 1 55.6840917896 42.6901795408 0.0 0.0 0.0 0.0
402 1 60.6929917896 42.6358795408 0.0 0.0 0.0 0.0
403 1 66.2342917896 43.6510795408 0.0 0.0 0.0 0.0
404 1 71.0831917896 43.6625795408 0.0 0.0 0.0 0.0
405 1 75.6229917896 44.1601795408 0.0 0.0 0.0 0.0
406 1 78.4228917896 48.5275795408 0.0 0.0 0.0 0.0
407 1 6.64835178957 49.4027795408 0.0 0.0 0.0 0.0
408 1 10.8538917896 48.5609795408 0.0 0.0 0.0 0.0
409 1 15.9191917896 49.1595795408 0.0 0.0 0.0 0.0
410 1 20.9077917896 48.5812795408 0.0 0.0 0.0 0.0
411 1 26.0854917896 46.7805795408 0.0 0.0 0.0 0.0
412 1 31.7616917896 46.0364795408 0.0 0.0 0.0 0.0
413 1 37.7783917896 44.8945795408 0.0 0.0 0.0 0.0
414 1 40.6412917896 48.9938795408 0.0 0.0 0.0 0.0
415 1 46.0122917896 46.2938795408 0.0 0.0 0.0 0.0
416 1 53.8830917896 48.1754795408 0.0 0.0 0.0 0.0
417 1 58.2292917896 47.0861795408 0.0 0.0 0.0 0.0
418 1 62.6432917896 48.0516795408 0.0 0.0 0.0 0.0
419 1 65.6201917896 48.3558795408 0.0 0.0 0.0 0.0
420 1 73.0648917896 48.4669795408 0.0 0.0 0.0 0.0
421 1 2.69394178957 52.2537795408 0.0 0.0 0.0 0.0
422 1 9.14979178957 51.0337795408 0.0 0.0 0.0 0.0
423 1 12.8045917896 53.5172795408 0.0 0.0 0.0 0.0
424 1 20.2369917896 54.5860795408 0.0 0.0 0.0 0.0
425 1 23.9716917896 52.1291795408 0.0 0.0 0.0 0.0
426 1 28.5082917896 50.9814795408 0.0 0.0 0.0 0.0
427 1 35.4265917896 51.7743795408 0.0 0.0 0.0 0.0
428 1 38.2993917896 53.7797795408 0.0 0.0 0.0 0.0
429 1 45.4981917896 51.9186795408 0.0 0.0 0.0 0.0
430 1 49.6251917896 50.3851795408 0.0 0.0 0.0 0.0
431 1 54.6876917896 51.0617795408 0.0 0.0 0.0 0.0
432 1 59.3399917896 52.3118795408 0.0 0.0 0.0 0.0
433 1 64.5071917896 52.6549795408 0.0 0.0 0.0 0.0
434 1 69.8435917896 51.9115795408 0.0 0.0 0.0 0.0
435 1 77.3404917896 54.2373795408 0.0 0.0 0.0 0.0
436 1 0.348015789565 56.5931795408 0.0 0.0 0.0 0.0
437 1 5.23040178957 57.3157795408 0.0 0.0 0.0 0.0
438 1 10.6927917896 58.1646795408 0.0 0.0 0.0 0.0
439 1 15.9882917896 57.5205795408 0.0 0.0 0.0 0.0
440 1 22.2481917896 56.9022795408 0.0 0.0 0.0 0.0
441 1 27.1682917896 56.6091795408 0.0 0.0 0.0 0.0
442 1 31.5491917896 53.6710795408 0.0 0.0 0.0 0.0
443 1 34.4111917896 57.5988795408 0.0 0.0 0.0 0.0
444 1 40.2488917896 56.8272795408 0.0 0.0 0.0 0.0
445 1 47.0184917896 54.5409795408 0.0 0.0 0.0 0.0
446 1 51.8605917896 55.7735795408 0.0 0.0 0.0 0.0
447 1 57.3175917896 54.5248795408 0.0 0.0 0.0 0.0
448 1 62.0352917896 57.2138795408 0.0 0.0 0.0 0.0
449 1 67.3815917896 56.6574795408 0.0 0.0 0.0 0.0
450 1 72.4281917896 56.3018795408 0.0 0.0 0.0 0.0
451 1 3.33158178957 59.6945795408 0.0 0.0 0.0 0.0
452 1 7.68315178957 62.7347795408 0.0 0.0 0.0 0.0
453 1 10.6916917896 63.0573795408 0.0 0.0 0.0 0.0
454 1 19.8603917896 62.9912795408 0.0 0.0 0.0 0.0
455 1 22.7650917896 62.1899795408 0.0 0.0 0.0 0.0
456 1 29.6855917896 61.2251795408 0.0 0.0 0.0 0.0
457 1 32.5549917896 60.0247795408 0.0 0.0 0.0 0.0
458 1 38.2889917896 61.3643795408 0.0 0.0 0.0 0.0
459 1 43.7790917896 59.2837795408 0.0 0.0 0.0 0.0
460 1 47.4506917896 60.2137795408 0.0 0.0 0.0 0.0
461 1 54.7823917896 60.4177795408 0.0 0.0 0.0 0.0
462 1 60.2908917896 61.1125795408 0.0 0.0 0.0 0.0
463 1 65.9939917896 60.8179795408 0.0 0.0 0.0 0.0
464 1 71.6397917896 59.1908795408 0.0 0.0 0.0 0.0
465 1 76.7577917896 61.5274795408 0.0 0.0 0.0 0.0
466 1 1.41914178957 67.5152795408 0.0 0.0 0.0 0.0
467 1 5.11255178957 66.9583795408 0.0 0.0 0.0 0.0
468 1 9.84669178957 67.8571795408 0.0 0.0 0.0 0.0
469 1 16.4404917896 66.2344795408 0.0 0.0 0.0 0.0
470 1 20.7059917896 65.8610795408 0.0 0.0 0.0 0.0
471 1 27.8857917896 66.9848795408 0.0 0.0 0.0 0.0
472 1 32.0443917896 65.5752795408 0.0 0.0 0.0 0.0
473 1 37.5454917896 65.5725795408 0.0 0.0 0.0 0.0
474 1 42.9984917896 64.2390795408 0.0 0.0 0.0 0.0
475 1 50.2809917896 61.2096795408 0.0 0.0 0.0 0.0
476 1 52.8821917896 65.1849795408 0.0 0.0 0.0 0.0
477 1 57.7090917896 65.2159795408 0.0 0.0 0.0 0.0
478 1 63.3958917896 64.8340795408 0.0 0.0 0.0 0.0
479 1 68.9927917896 64.9464795408 0.0 0.0 0.0 0.0
480 1 73.6557917896 65.7936795408 0.0 0.0 0.0 0.0
481 1 2.10731178957 70.4680795408 0.0 0.0 0.0 0.0
482 1 7.25515178957 71.9154795408 0.0 0.0 0.0 0.0
483 1 13.0598917896 70.9482795408 0.0 0.0 0.0 0.0
484 1 18.7764917896 68.1419795408 0.0 0.0 0.0 0.0
485 1 23.1492917896 70.2654795408 0.0 0.0 0.0 0.0
486 1 29.4595917896 69.5821795408 0.0 0.0 0.0 0.0
487 1 35.0265917896 69.8292795408 0.0 0.0 0.0 0.0
488 1 40.7577917896 68.7930795408 0.0 0.0 0.0 0.0
489 1 46.0588917896 68.5628795408 0.0 0.0 0.0 0.0
490 1 50.5395917896 69.2990795408 0.0 0.0 0.0 0.0
491 1 55.7767917896 69.8516795408 0.0 0.0 0.0 0.0
492 1 60.9722917896 69.4708795408 0.0 0.0 0.0 0.0
493 1 66.0804917896 69.2624795408 0.0 0.0 0.0 0.0
494 1 70.6052917896 70.3226795408 0.0 0.0 0.0 0.0
495 1 75.8626917896 70.0323795408 0.0 0.0 0.0 0.0
496 1 78.2074917896 74.7825795408 0.0 0.0 0.0 0.0
497 1 5.10551178957 74.0205795408 0.0 0.0 0.0 0.0
498 1 10.4840917896 75.4909795408 0.0 0.0 0.0 0.0
499 1 16.0925917896 74.9693795408 0.0 0.0 0.0 0.0
500 1 21.4586917896 75.0184795408 0.0 0.0 0.0 0.0
501 1 26.7226917896 74.2708795408 0.0 0.0 0.0 0.0
502 1 32.0764917896 73.8110795408 0.0 0.0 0.0 0.0
503 1 37.9625917896 73.2758795408 0.0 0.0 0.0 0.0
504 1 43.2774917896 73.0978795408 0.0 0.0 0.0 0.0
505 1 47.9742917896 73.7783795408 0.0 0.0 0.0 0.0
506 1 53.0216917896 74.0947795408 0.0 0.0 0.0 0.0
507 1 58.3566917896 74.3665795408 0.0 0.0 0.0 0.0
508 1 61.3415917896 74.7221795408 0.0 0.0 0.0 0.0
509 1 67.5674917896 74.4627795408 0.0 0.0 0.0 0.0
510 1 73.1281917896 74.5513795408 0.0 0.0 0.0 0.0
511 1 5.68007178957 78.4366795408 0.0 0.0 0.0 0.0
512 1 11.0725917896 78.4430795408 0.0 0.0 0.0 0.0
513 1 16.4083917896 77.9950795408 0.0 0.0 0.0 0.0
514 1 21.4573917896 78.0486795408 0.0 0.0 0.0 0.0
515 1 26.5183917896 77.2991795408 0.0 0.0 0.0 0.0
516 1 31.8949917896 76.8190795408 0.0 0.0 0.0 0.0
517 1 39.6767917896 75.7486795408 0.0 0.0 0.0 0.0
518 1 42.6885917896 76.0464795408 0.0 0.0 0.0 0.0
519 1 47.8680917896 76.8034795408 0.0 0.0 0.0 0.0
520 1 52.6469917896 77.0826795408 0.0 0.0 0.0 0.0
521 1 57.9795917896 77.3237795408 0.0 0.0 0.0 0.0
522 1 63.1178917896 77.1617795408 0.0 0.0 0.0 0.0
523 1 68.1041917896 79.4380795408 0.0 0.0 0.0 0.0
524 1 73.6131917896 77.5265795408 0.0 0.0 0.0 0.0
525 1 78.6383917896 79.6726795408 0.0 0.0 0.0 0.0
526 1 2.82823178957 79.5644795408 0.0 0.0 0.0 0.0
527 1 8.36751178957 79.7913795408 0.0 0.0 0.0 0.0
528 1 13.8565917896 79.6239795408 0.0 0.0 0.0 0.0
529 1 18.9171917896 79.7118795408 0.0 0.0 0.0 0.0
530 1 24.2163917896 79.2923795408 0.0 0.0 0.0 0.0
531 1 29.3243917896 78.4087795408 0.0 0.0 0.0 0.0
532 1 34.5442917896 78.2517795408 0.0 0.0 0.0 0.0
533 1 37.5257917896 77.8284795408 0.0 0.0 0.0 0.0
534 1 45.0696917896 77.9140795408 0.0 0.0 0.0 0.0
535 1 50.1616917896 78.7805795408 0.0 0.0 0.0 0.0
536 1 55.2539917896 78.5694795408 0.0 0.0 0.0 0.0
537 1 60.5937917896 78.8040795408 0.0 0.0 0.0 0.0
538 1 66.1542917896 77.1300795408 0.0 0.0 0.0 0.0
539 1 71.1546917896 79.3419795408 0.0 0.0 0.0 0.0
540 1 76.6609917896 77.3912795408 0.0 0.0 0.0 0.0
541 2 2.95728178957 0.665359540832 0.0 0.0 0.0 0.0
542 2 4.31810178957 2.85774954083 0.0 0.0 0.0 0.0
543 2 1.74115178957 3.00569954083 0.0 0.0 0.0 0.0
544 2 8.35302178957 0.880749540832 0.0 0.0 0.0 0.0
545 2 6.99078178957 3.03866954083 0.0 0.0 0.0 0.0
546 2 9.75139178957 2.88056954083 0.0 0.0 0.0 0.0
547 2 13.9139917896 0.729609540832 0.0 0.0 0.0 0.0
548 2 15.1417917896 3.10006954083 0.0 0.0 0.0 0.0
549 2 12.5187917896 2.85347954083 0.0 0.0 0.0 0.0
550 2 18.9174917896 0.830119540832 0.0 0.0 0.0 0.0
551 2 20.3206917896 3.01487954083 0.0 0.0 0.0 0.0
552 2 17.6899917896 3.21364954083 0.0 0.0 0.0 0.0
553 2 22.9520917896 2.79751954083 0.0 0.0 0.0 0.0
554 2 25.5995917896 2.53371954083 0.0 0.0 0.0 0.0
555 2 24.2188917896 0.407779540832 0.0 0.0 0.0 0.0
556 2 30.6114917896 1.79269954083 0.0 0.0 0.0 0.0
557 2 29.3365917896 79.9182795408 0.0 0.0 0.0 0.0
558 2 28.1235917896 1.92521954083 0.0 0.0 0.0 0.0
559 2 34.3746917896 79.7487795408 0.0 0.0 0.0 0.0
560 2 33.1205917896 1.72053954083 0.0 0.0 0.0 0.0
561 2 35.6948917896 1.45971954083 0.0 0.0 0.0 0.0
562 2 38.4462917896 79.0164795408 0.0 0.0 0.0 0.0
563 2 40.7095917896 0.319639540832 0.0 0.0 0.0 0.0
564 2 38.2075917896 0.883389540832 0.0 0.0 0.0 0.0
565 2 45.1009917896 79.4223795408 0.0 0.0 0.0 0.0
566 2 45.7214917896 1.83497954083 0.0 0.0 0.0 0.0
567 2 43.4827917896 0.713249540832 0.0 0.0 0.0 0.0
568 2 50.4391917896 80.2749795408 0.0 0.0 0.0 0.0
569 2 52.2199917896 1.96794954083 0.0 0.0 0.0 0.0
570 2 49.9767917896 2.56616954083 0.0 0.0 0.0 0.0
571 2 55.5371917896 80.0379795408 0.0 0.0 0.0 0.0
572 2 57.4980917896 1.07809954083 0.0 0.0 0.0 0.0
573 2 54.8067917896 1.97963954083 0.0 0.0 0.0 0.0
574 2 59.8701917896 2.14295954083 0.0 0.0 0.0 0.0
575 2 62.2261917896 3.00002954083 0.0 0.0 0.0 0.0
576 2 59.7207917896 4.48024954083 0.0 0.0 0.0 0.0
577 2 67.2616917896 0.298469540832 0.0 0.0 0.0 0.0
578 2 67.7193917896 2.57921954083 0.0 0.0 0.0 0.0
579 2 65.0845917896 2.12899954083 0.0 0.0 0.0 0.0
580 2 71.4648917896 0.416129540832 0.0 0.0 0.0 0.0
581 2 72.9965917896 2.55901954083 0.0 0.0 0.0 0.0
582 2 70.3319917896 2.68226954083 0.0 0.0 0.0 0.0
583 2 75.6430917896 2.49298954083 0.0 0.0 0.0 0.0
584 2 78.1207917896 2.87283954083 0.0 0.0 0.0 0.0
585 2 77.7811917896 0.529699540832 0.0 0.0 0.0 0.0
586 2 0.294140789565 5.27370954083 0.0 0.0 0.0 0.0
587 2 1.38850178957 7.59208954083 0.0 0.0 0.0 0.0
588 2 77.6404917896 7.41764954083 0.0 0.0 0.0 0.0
589 2 5.33507178957 5.10141954083 0.0 0.0 0.0 0.0
590 2 6.45677178957 7.25700954083 0.0 0.0 0.0 0.0
591 2 3.89827178957 7.45419954083 0.0 0.0 0.0 0.0
592 2 10.7751917896 4.91246954083 0.0 0.0 0.0 0.0
593 2 11.5911917896 7.20250954083 0.0 0.0 0.0 0.0
594 2 9.06134178957 7.09238954083 0.0 0.0 0.0 0.0
595 2 15.9899917896 5.45932954083 0.0 0.0 0.0 0.0
596 2 16.3196917896 8.16033954083 0.0 0.0 0.0 0.0
597 2 14.1070917896 7.51256954083 0.0 0.0 0.0 0.0
598 2 21.7539917896 5.17932954083 0.0 0.0 0.0 0.0