# input file

1350 atoms
2 atom types

0.0 77.8576209991 xlo xhi
0.0 81.6847499555 ylo yhi
-10.0 10.0 zlo zhi
0.0 0.0 0.0 xy xz yz

Masses

1 28.0855 #Si
2 15.9994 #O

Atoms

1 1 3.8574982764 1.25156497774 0.0
2 1 8.8774382764 0.971184977743 0.0
3 1 13.5294482764 0.345607977743 0.0
4 1 17.7593482764 3.28963497774 0.0
5 1 23.5190482764 2.14389497774 0.0
6 1 29.9143482764 0.913934977743 0.0
7 1 32.9241482764 0.817634977743 0.0
8 1 38.3823482764 0.778514977743 0.0
9 1 43.7188482764 0.983744977743 0.0
10 1 48.1082482764 4.00134497774 0.0
11 1 55.4166482764 1.81572497774 0.0
12 1 60.5708482764 3.13299497774 0.0
13 1 66.0363482764 1.15959497774 0.0
14 1 71.3600482764 2.02078497774 0.0
15 1 76.4830482764 1.98453497774 0.0
16 1 1.9218782764 6.00057497774 0.0
17 1 7.1266582764 5.64864497774 0.0
18 1 12.4191482764 5.34727497774 0.0
19 1 17.1948482764 7.68345497774 0.0
20 1 21.6085482764 8.81946497774 0.0
21 1 26.8524482764 6.88838497774 0.0
22 1 31.2141482764 5.93474497774 0.0
23 1 36.2507482764 5.03312497774 0.0
24 1 40.6392482764 7.44649497774 0.0
25 1 46.5587482764 6.60800497774 0.0
26 1 50.9763482764 4.99411497774 0.0
27 1 58.9351482764 5.67649497774 0.0
28 1 64.4484482764 5.87413497774 0.0
29 1 69.3111482764 5.94241497774 0.0
30 1 74.3963482764 6.54897497774 0.0
31 1 5.7076282764 10.1412749777 0.0
32 1 11.3345482764 11.4062749777 0.0
33 1 16.7501482764 10.6615749777 0.0
34 1 19.7233482764 11.1596749777 0.0
35 1 25.0809482764 11.7925749777 0.0
36 1 31.4198482764 10.7695749777 0.0
37 1 34.3841482764 10.1050749777 0.0
38 1 39.4064482764 10.2301749777 0.0
39 1 44.8487482764 12.1223749777 0.0
40 1 50.4313482764 10.4296749777 0.0
41 1 56.0550482764 9.80597497774 0.0
42 1 61.6104482764 9.93887497774 0.0
43 1 66.9224482764 10.7150749777 0.0
44 1 72.5094482764 10.7811749777 0.0
45 1 0.137092276396 10.5070749777 0.0
46 1 2.0041882764 14.4258749777 0.0
47 1 6.7417082764 15.0787749777 0.0
48 1 11.0597482764 16.1284749777 0.0
49 1 15.6285482764 15.1096749777 0.0
50 1 22.8370482764 15.7003749777 0.0
51 1 25.8220482764 15.9444749777 0.0
52 1 31.5579482764 16.5515749777 0.0
53 1 36.5307482764 15.0250749777 0.0
54 1 45.2178482764 15.0729749777 0.0
55 1 48.1831482764 14.8430749777 0.0
56 1 52.0918482764 12.9570749777 0.0
57 1 59.2266482764 13.9443749777 0.0
58 1 63.9622482764 14.6067749777 0.0
59 1 68.0292482764 13.5345749777 0.0
60 1 75.0689482764 14.9198749777 0.0
61 1 3.1120682764 19.3722749777 0.0
62 1 7.8436882764 20.4249749777 0.0
63 1 13.1094482764 20.3565749777 0.0
64 1 17.4907482764 20.3812749777 0.0
65 1 22.0696482764 20.3534749777 0.0
66 1 26.7642482764 23.2404749777 0.0
67 1 30.0315482764 19.1718749777 0.0
68 1 38.0162482764 17.6646749777 0.0
69 1 45.1793482764 19.8573749777 0.0
70 1 50.8201482764 18.7942749777 0.0
71 1 57.8172482764 18.1389749777 0.0
72 1 60.7450482764 18.9796749777 0.0
73 1 65.7902482764 19.1075749777 0.0
74 1 71.4606482764 19.0271749777 0.0
75 1 0.112879276396 19.4736749777 0.0
76 1 77.4681482764 24.9773749777 0.0
77 1 6.6567482764 24.1678749777 0.0
78 1 9.6285482764 24.6472749777 0.0
79 1 14.7232482764 25.3687749777 0.0
80 1 20.1613482764 25.2790749777 0.0
81 1 25.6711482764 26.0455749777 0.0
82 1 30.9957482764 24.8266749777 0.0
83 1 36.3668482764 23.0088749777 0.0
84 1 41.9239482764 24.1746749777 0.0
85 1 47.4492482764 23.1681749777 0.0
86 1 52.7509482764 23.5492749777 0.0
87 1 57.5213482764 23.4348749777 0.0
88 1 62.8426482764 23.8218749777 0.0
89 1 68.6182482764 23.1347749777 0.0
90 1 72.2423482764 26.4256749777 0.0
91 1 2.5248682764 29.6226749777 0.0
92 1 7.4848482764 28.7460749777 0.0
93 1 12.5240482764 31.4306749777 0.0
94 1 17.8668482764 29.5970749777 0.0
95 1 22.1547482764 31.9711749777 0.0
96 1 29.2598482764 29.6790749777 0.0
97 1 34.3556482764 28.0121749777 0.0
98 1 39.3300482764 27.7404749777 0.0
99 1 46.6496482764 27.2477749777 0.0
100 1 49.6355482764 27.7066749777 0.0
101 1 55.0810482764 28.3134749777 0.0
102 1 60.2144482764 28.0546749777 0.0
103 1 64.1558482764 26.5812749777 0.0
104 1 69.3972482764 30.5077749777 0.0
105 1 75.0546482764 29.9958749777 0.0
106 1 1.1494982764 33.9194749777 0.0
107 1 6.4769882764 33.5752749777 0.0
108 1 11.3950482764 34.2272749777 0.0
109 1 16.0606482764 34.5314749777 0.0
110 1 20.9965482764 34.7293749777 0.0
111 1 24.9749482764 32.9577749777 0.0
112 1 32.1029482764 33.1572749777 0.0
113 1 36.7232482764 32.6006749777 0.0
114 1 41.5769482764 32.3917749777 0.0
115 1 46.7951482764 31.9907749777 0.0
116 1 52.3997482764 32.2741749777 0.0
117 1 57.9348482764 32.7767749777 0.0
118 1 62.9816482764 32.4942749777 0.0
119 1 68.0819482764 33.2137749777 0.0
120 1 72.8573482764 36.2990749777 0.0
121 1 3.1989982764 37.9819749777 0.0
122 1 8.0388382764 38.5292749777 0.0
123 1 13.2871482764 39.2514749777 0.0
124 1 18.4614482764 39.3394749777 0.0
125 1 24.6875482764 38.5651749777 0.0
126 1 29.5775482764 37.8683749777 0.0
127 1 34.1613482764 37.7561749777 0.0
128 1 39.3112482764 37.2609749777 0.0
129 1 44.5301482764 36.6129749777 0.0
130 1 49.8692482764 36.2530749777 0.0
131 1 54.8632482764 36.7246749777 0.0
132 1 60.0399482764 37.3706749777 0.0
133 1 65.3738482764 37.5278749777 0.0
134 1 71.0113482764 38.6424749777 0.0
135 1 75.4885482764 37.7400749777 0.0
136 1 77.4007482764 43.3252749777 0.0
137 1 4.4945082764 42.8844749777 0.0
138 1 9.7444482764 43.2208749777 0.0
139 1 16.7955482764 43.6841749777 0.0
140 1 20.4354482764 41.6121749777 0.0
141 1 26.0690482764 42.6065749777 0.0
142 1 31.3901482764 42.7728749777 0.0
143 1 36.5214482764 41.9969749777 0.0
144 1 43.8241482764 40.8091749777 0.0
145 1 46.8212482764 40.7263749777 0.0
146 1 52.0639482764 41.1519749777 0.0
147 1 56.9525482764 41.5415749777 0.0
148 1 61.0853482764 40.2313749777 0.0
149 1 68.0513482764 41.9128749777 0.0
150 1 72.7476482764 43.8885749777 0.0
151 1 1.7393882764 47.7941749777 0.0
152 1 6.6130682764 47.4736749777 0.0
153 1 10.9573482764 50.3076749777 0.0
154 1 16.2803482764 48.3526749777 0.0
155 1 21.4667482764 46.9782749777 0.0
156 1 26.6707482764 45.5513749777 0.0
157 1 34.0302482764 46.8928749777 0.0
158 1 38.8162482764 46.3783749777 0.0
159 1 43.6301482764 45.8531749777 0.0
160 1 49.0462482764 45.3594749777 0.0
161 1 54.1983482764 46.1092749777 0.0
162 1 59.5169482764 45.9627749777 0.0
163 1 66.1542482764 46.0120749777 0.0
164 1 68.9533482764 47.1857749777 0.0
165 1 74.3569482764 48.2985749777 0.0
166 1 76.8311482764 52.5232749777 0.0
167 1 4.1230082764 52.4226749777 0.0
168 1 9.3993482764 52.8608749777 0.0
169 1 14.3095482764 53.2132749777 0.0
170 1 19.5694482764 51.9936749777 0.0
171 1 25.5281482764 50.4417749777 0.0
172 1 30.8690482764 50.9111749777 0.0
173 1 38.1640482764 50.9758749777 0.0
174 1 41.1770482764 50.8336749777 0.0
175 1 46.5931482764 49.8481749777 0.0
176 1 51.2106482764 52.1866749777 0.0
177 1 56.4912482764 50.4981749777 0.0
178 1 61.2587482764 51.1017749777 0.0
179 1 66.1702482764 51.2181749777 0.0
180 1 71.5010482764 52.0004749777 0.0
181 1 1.2902582764 57.0543749777 0.0
182 1 7.6476682764 56.9024749777 0.0
183 1 12.3915482764 59.8472749777 0.0
184 1 17.5068482764 56.8222749777 0.0
185 1 21.5693482764 54.2322749777 0.0
186 1 27.4504482764 57.8148749777 0.0
187 1 32.4134482764 56.0773749777 0.0
188 1 37.3217482764 55.6634749777 0.0
189 1 44.3593482764 54.5555749777 0.0
190 1 49.8390482764 54.8471749777 0.0
191 1 54.2664482764 55.4447749777 0.0
192 1 58.8639482764 55.5906749777 0.0
193 1 63.7426482764 55.8892749777 0.0
194 1 68.8673482764 55.9996749777 0.0
195 1 74.0126482764 56.6937749777 0.0
196 1 76.6371482764 61.4782749777 0.0
197 1 3.7335382764 61.9729749777 0.0
198 1 6.5277482764 59.6775749777 0.0
199 1 15.8653482764 61.5748749777 0.0
200 1 21.0120482764 59.9944749777 0.0
201 1 26.4213482764 60.6670749777 0.0
202 1 31.3318482764 61.1906749777 0.0
203 1 36.2043482764 60.3138749777 0.0
204 1 39.7646482764 57.3894749777 0.0
205 1 46.9093482764 58.8632749777 0.0
206 1 51.4869482764 60.1066749777 0.0
207 1 55.9622482764 60.3914749777 0.0
208 1 60.8225482764 60.4651749777 0.0
209 1 65.6908482764 60.4612749777 0.0
210 1 70.9079482764 60.8764749777 0.0
211 1 1.6011682764 66.3084749777 0.0
212 1 7.1137082764 65.6950749777 0.0
213 1 12.6642482764 65.7321749777 0.0
214 1 18.1303482764 64.9511749777 0.0
215 1 23.1556482764 64.5276749777 0.0
216 1 27.2025482764 63.5952749777 0.0
217 1 34.3448482764 65.3788749777 0.0
218 1 40.7918482764 62.8722749777 0.0
219 1 43.7750482764 62.7560749777 0.0
220 1 48.1667482764 64.1859749777 0.0
221 1 52.9411482764 65.1810749777 0.0
222 1 57.4694482764 65.0547749777 0.0
223 1 62.6103482764 65.1587749777 0.0
224 1 68.1838482764 65.1148749777 0.0
225 1 72.3174482764 63.5361749777 0.0
226 1 75.7491482764 69.7985749777 0.0
227 1 3.5868182764 70.1096749777 0.0
228 1 10.3270482764 69.9420749777 0.0
229 1 17.4840482764 68.9018749777 0.0
230 1 20.4748482764 69.3117749777 0.0
231 1 25.4926482764 69.2089749777 0.0
232 1 30.8390482764 69.5086749777 0.0
233 1 38.2544482764 69.1832749777 0.0
234 1 41.1797482764 68.5722749777 0.0
235 1 45.7742482764 68.2908749777 0.0
236 1 50.0518482764 71.6823749777 0.0
237 1 55.3488482764 70.1049749777 0.0
238 1 59.9566482764 69.6300749777 0.0
239 1 63.8738482764 67.8786749777 0.0
240 1 70.9591482764 69.2209749777 0.0
241 1 0.431978276396 73.9289749777 0.0
242 1 5.2969182764 72.5859749777 0.0
243 1 12.5705482764 74.0907749777 0.0
244 1 17.9014482764 73.9787749777 0.0
245 1 22.9059482764 73.9830749777 0.0
246 1 27.5921482764 73.7444749777 0.0
247 1 32.9808482764 74.1132749777 0.0
248 1 38.2253482764 73.8429749777 0.0
249 1 43.7484482764 73.3912749777 0.0
250 1 49.0367482764 74.5144749777 0.0
251 1 53.6996482764 74.9481749777 0.0
252 1 59.0311482764 74.5568749777 0.0
253 1 63.7133482764 73.5187749777 0.0
254 1 68.7393482764 75.2118749777 0.0
255 1 73.0377482764 76.3547749777 0.0
256 1 1.4419882764 3.03093497774 0.0
257 1 6.4624482764 2.73226497774 0.0
258 1 11.4609482764 2.50087497774 0.0
259 1 16.5245482764 0.573040977743 0.0
260 1 20.7817482764 3.49997497774 0.0
261 1 26.0266482764 3.96333497774 0.0
262 1 29.0587482764 3.78168497774 0.0
263 1 35.6566482764 2.09010497774 0.0
264 1 40.9787482764 2.30570497774 0.0
265 1 46.7395482764 1.30431497774 0.0
266 1 54.0021482764 4.52034497774 0.0
267 1 58.3756482764 1.08233497774 0.0
268 1 63.6125482764 2.98074497774 0.0
269 1 68.5024482764 2.99371497774 0.0
270 1 73.9355482764 3.58175497774 0.0
271 1 4.6348282764 7.32545497774 0.0
272 1 9.8431482764 6.93142497774 0.0
273 1 15.4476482764 5.25695497774 0.0
274 1 19.9143482764 6.37636497774 0.0
275 1 24.6009482764 8.85070497774 0.0
276 1 29.4991482764 8.39864497774 0.0
277 1 34.0294482764 7.08338497774 0.0
278 1 39.2611482764 4.79056497774 0.0
279 1 43.6636482764 7.66237497774 0.0
280 1 49.4339482764 7.58753497774 0.0
281 1 56.0832482764 6.75150497774 0.0
282 1 61.6489482764 6.96287497774 0.0
283 1 66.8649482764 7.69213497774 0.0
284 1 71.6844482764 7.85887497774 0.0
285 1 77.2276482764 7.59755497774 0.0
286 1 2.9855582764 11.5600749777 0.0
287 1 8.7730382764 9.75237497774 0.0
288 1 9.3769482764 13.6669749777 0.0
289 1 14.2548482764 12.3762749777 0.0
290 1 22.2368482764 12.7859749777 0.0
291 1 27.5488482764 13.4991749777 0.0
292 1 30.5551482764 13.6763749777 0.0
293 1 36.8424482764 11.9420749777 0.0
294 1 42.4166482764 10.4131749777 0.0
295 1 47.8178482764 11.8715749777 0.0
296 1 55.0820482764 12.6979749777 0.0
297 1 58.8148482764 10.9764749777 0.0
298 1 64.0747482764 11.6212749777 0.0
299 1 71.0218482764 13.4099749777 0.0
300 1 75.3143482764 11.9126749777 0.0
301 1 4.1235982764 16.5323749777 0.0
302 1 8.4466282764 17.5239749777 0.0
303 1 13.7336482764 17.4288749777 0.0
304 1 17.6655482764 17.3523749777 0.0
305 1 20.6412482764 17.7184749777 0.0
306 1 27.0812482764 18.6476749777 0.0
307 1 34.4843482764 17.2817749777 0.0
308 1 40.7871482764 18.7952749777 0.0
309 1 43.4321482764 17.4373749777 0.0
310 1 51.0151482764 15.7844749777 0.0
311 1 56.5933482764 15.3462749777 0.0
312 1 61.3579482764 16.0479749777 0.0
313 1 66.5108482764 16.1571749777 0.0
314 1 72.3192482764 16.1268749777 0.0
315 1 77.6344482764 16.4665749777 0.0
316 1 76.4510482764 22.0933749777 0.0
317 1 5.1081982764 21.6071749777 0.0
318 1 10.4937482764 21.7954749777 0.0
319 1 15.2747482764 22.4088749777 0.0
320 1 19.8113482764 22.2978749777 0.0
321 1 25.0232482764 20.8177749777 0.0
322 1 29.5922482764 22.1657749777 0.0
323 1 36.0126482764 19.9277749777 0.0
324 1 42.5166482764 21.2420749777 0.0
325 1 48.1590482764 20.2455749777 0.0
326 1 53.2391482764 20.5913749777 0.0
327 1 56.2468482764 20.6972749777 0.0
328 1 63.2145482764 20.7768749777 0.0
329 1 68.6314482764 20.1323749777 0.0
330 1 73.5452482764 21.2231749777 0.0
331 1 2.1792482764 26.6289749777 0.0
332 1 5.2007182764 26.7585749777 0.0
333 1 11.9444482764 26.5590749777 0.0
334 1 17.4579482764 26.6276749777 0.0
335 1 22.7277482764 26.8699749777 0.0
336 1 28.6226482764 26.7435749777 0.0
337 1 34.0335482764 24.9970749777 0.0
338 1 38.9297482764 24.7275749777 0.0
339 1 44.9023482764 24.7868749777 0.0
340 1 50.0068482764 24.7382749777 0.0
341 1 55.1801482764 25.3102749777 0.0
342 1 60.0825482764 25.0273749777 0.0
343 1 67.0434482764 25.7015749777 0.0
344 1 71.5987482764 23.5071749777 0.0
345 1 75.2004482764 26.9894749777 0.0
346 1 77.8148482764 31.1799749777 0.0
347 1 5.3153082764 30.8091749777 0.0
348 1 10.4922482764 29.1905749777 0.0
349 1 15.5539482764 31.5584749777 0.0
350 1 20.8773482764 29.2694749777 0.0
351 1 27.9057482764 32.3681749777 0.0
352 1 32.2214482764 30.1488749777 0.0
353 1 36.9310482764 29.5773749777 0.0
354 1 41.8646482764 29.4044749777 0.0
355 1 44.8814482764 29.6528749777 0.0
356 1 52.2219482764 29.2747749777 0.0
357 1 57.7302482764 29.7643749777 0.0
358 1 62.9234482764 29.3972749777 0.0
359 1 69.4353482764 27.5201749777 0.0
360 1 72.3089482764 31.2508749777 0.0
361 1 3.9033882764 35.0771749777 0.0
362 1 8.7083082764 35.5800749777 0.0
363 1 13.6031482764 36.2570749777 0.0
364 1 18.4665482764 36.3295749777 0.0
365 1 23.8165482764 35.7117749777 0.0
366 1 29.6157482764 34.8435749777 0.0
367 1 34.6207482764 34.7670749777 0.0
368 1 39.2272482764 34.2530749777 0.0
369 1 44.3026482764 33.6428749777 0.0
370 1 49.5483482764 33.2587749777 0.0
371 1 55.0602482764 33.7218749777 0.0
372 1 60.5382482764 34.3445749777 0.0
373 1 65.3145482764 34.4694749777 0.0
374 1 71.0077482764 33.9460749777 0.0
375 1 0.454098276396 36.8170749777 0.0
376 1 75.9317482764 40.7020749777 0.0
377 1 5.4000582764 40.0103749777 0.0
378 1 10.4676482764 40.3051749777 0.0
379 1 15.8545482764 40.8234749777 0.0
380 1 23.3992482764 41.2529749777 0.0
381 1 27.3617482764 39.8937749777 0.0
382 1 31.9016482764 39.7720749777 0.0
383 1 36.8755482764 39.0196749777 0.0
384 1 42.1047482764 38.3589749777 0.0
385 1 47.2896482764 37.7737749777 0.0
386 1 52.2149482764 38.1403749777 0.0
387 1 57.2603482764 38.5353749777 0.0
388 1 64.0879482764 40.2959749777 0.0
389 1 68.0383482764 38.9117749777 0.0
390 1 72.9492482764 40.9228749777 0.0
391 1 2.1578982764 44.7921749777 0.0
392 1 7.0142782764 44.4955749777 0.0
393 1 11.6930482764 45.4959749777 0.0
394 1 14.6872482764 45.8058749777 0.0
395 1 19.6938482764 44.5204749777 0.0
396 1 29.6832482764 45.2963749777 0.0
397 1 34.1807482764 43.8882749777 0.0
398 1 39.1539482764 43.4130749777 0.0
399 1 42.1396482764 43.2637749777 0.0
400 1 49.3207482764 42.3783749777 0.0
401 1 54.3701482764 43.0926749777 0.0
402 1 59.6309482764 42.9098749777 0.0
403 1 65.3054482764 43.0859749777 0.0
404 1 69.8152482764 44.3296749777 0.0
405 1 75.2846482764 45.4495749777 0.0
406 1 77.1078482764 49.5235749777 0.0
407 1 4.2894282764 49.4021749777 0.0
408 1 9.6051482764 47.6560749777 0.0
409 1 13.9534482764 50.2498749777 0.0
410 1 19.2305482764 49.0052749777 0.0
411 1 24.4444482764 47.6114749777 0.0
412 1 31.2060482764 47.9080749777 0.0
413 1 36.6208482764 48.3983749777 0.0
414 1 41.4152482764 47.8540749777 0.0
415 1 46.4432482764 46.8524749777 0.0
416 1 51.3882482764 47.2326749777 0.0
417 1 56.8877482764 47.4941749777 0.0
418 1 61.6535482764 48.1217749777 0.0
419 1 64.6381482764 48.5960749777 0.0
420 1 71.4065482764 48.9853749777 0.0
421 1 1.5753882764 54.0478749777 0.0
422 1 6.6519582764 54.0614749777 0.0
423 1 11.7383482764 54.7328749777 0.0
424 1 17.2193482764 53.8471749777 0.0
425 1 24.3822482764 53.2163749777 0.0
426 1 28.0820482764 52.0464749777 0.0
427 1 32.9404482764 53.1077749777 0.0
428 1 35.9537482764 53.0013749777 0.0
429 1 44.1010482764 51.5690749777 0.0
430 1 49.6055482764 49.6680749777 0.0
431 1 54.1935482764 52.4389749777 0.0
432 1 58.6582482764 52.5842749777 0.0
433 1 63.6778482764 52.8865749777 0.0
434 1 68.6480482764 52.9789749777 0.0
435 1 74.0330482764 53.6711749777 0.0
436 1 76.4703482764 58.4557749777 0.0
437 1 3.6008982764 58.9912749777 0.0
438 1 10.5817482764 57.4795749777 0.0
439 1 15.1505482764 58.6794749777 0.0
440 1 20.4950482764 57.0423749777 0.0
441 1 26.9114482764 54.8297749777 0.0
442 1 30.4098482764 58.3181749777 0.0
443 1 35.0176482764 57.5665749777 0.0
444 1 42.7289482764 57.0708749777 0.0
445 1 47.0409482764 55.8722749777 0.0
446 1 51.7828482764 57.1193749777 0.0
447 1 56.4981482764 57.4320749777 0.0
448 1 61.1969482764 57.4758749777 0.0
449 1 66.2651482764 57.5097749777 0.0
450 1 71.2411482764 57.8741749777 0.0
451 1 1.1118282764 63.3558749777 0.0
452 1 6.6357082764 62.6980749777 0.0
453 1 13.1137482764 62.7568749777 0.0
454 1 18.8123482764 62.0403749777 0.0
455 1 23.5621482764 61.5501749777 0.0
456 1 30.1630482764 63.9588749777 0.0
457 1 34.0722482764 62.3937749777 0.0
458 1 39.1921482764 60.3349749777 0.0
459 1 44.0651482764 59.7631749777 0.0
460 1 48.7232482764 61.2404749777 0.0
461 1 53.5898482764 62.2355749777 0.0
462 1 58.3544482764 62.1793749777 0.0
463 1 63.2543482764 62.2174749777 0.0
464 1 68.1781482764 62.1191749777 0.0
465 1 75.2391482764 64.1390749777 0.0
466 1 76.5060482764 66.8848749777 0.0
467 1 4.4810582764 67.2296749777 0.0
468 1 9.8846482764 66.9514749777 0.0
469 1 15.5877482764 66.5515749777 0.0
470 1 20.7794482764 66.3400749777 0.0
471 1 25.6493482764 66.1840749777 0.0
472 1 31.6058482764 66.5961749777 0.0
473 1 37.1552482764 66.4115749777 0.0
474 1 40.0764482764 65.7748749777 0.0
475 1 45.3867482764 65.3004749777 0.0
476 1 50.1954482764 66.3898749777 0.0
477 1 55.2534482764 67.0868749777 0.0
478 1 60.0020482764 66.6292749777 0.0
479 1 66.8435482764 67.7801749777 0.0
480 1 70.9646482764 66.2129749777 0.0
481 1 0.679748276396 70.9375749777 0.0
482 1 8.2906982764 72.1882749777 0.0
483 1 13.0997482764 71.1498749777 0.0
484 1 16.1015482764 71.5439749777 0.0
485 1 23.0100482764 70.9538749777 0.0
486 1 28.0808482764 70.7599749777 0.0
487 1 33.3705482764 71.1478749777 0.0
488 1 36.3641482764 71.4792749777 0.0
489 1 43.5991482764 70.3692749777 0.0
490 1 48.7005482764 68.9952749777 0.0
491 1 53.0338482764 72.0147749777 0.0
492 1 57.8643482764 71.7663749777 0.0
493 1 62.7574482764 70.6662749777 0.0
494 1 68.2121482764 70.4401749777 0.0
495 1 73.1184482764 71.2958749777 0.0
496 1 76.0251482764 75.9211749777 0.0
497 1 3.2983182764 74.8531749777 0.0
498 1 9.6798482764 74.8551749777 0.0
499 1 15.2668482764 75.3900749777 0.0
500 1 20.4183482764 75.6882749777 0.0
501 1 25.3410482764 75.7670749777 0.0
502 1 30.2002482764 75.2258749777 0.0
503 1 35.6832482764 75.4237749777 0.0
504 1 41.0863482764 74.8174749777 0.0
505 1 46.1256482764 75.2682749777 0.0
506 1 51.1989482764 76.6230749777 0.0
507 1 56.4666482764 76.1276749777 0.0
508 1 61.7827482764 75.8453749777 0.0
509 1 66.6834482764 73.0368749777 0.0
510 1 71.4427482764 73.8248749777 0.0
511 1 4.6327882764 80.0383749777 0.0
512 1 9.7913482764 77.8500749777 0.0
513 1 15.3432482764 78.3602749777 0.0
514 1 20.8864482764 78.7040749777 0.0
515 1 25.4406482764 78.8122749777 0.0
516 1 30.4265482764 78.2086749777 0.0
517 1 35.8951482764 78.3970749777 0.0
518 1 41.2019482764 77.8328749777 0.0
519 1 46.2792482764 78.2866749777 0.0
520 1 51.3263482764 79.6447749777 0.0
521 1 56.7391482764 79.1150749777 0.0
522 1 62.4621482764 78.8154749777 0.0
523 1 67.9232482764 78.1341749777 0.0
524 1 72.6364482764 80.9856749777 0.0
525 1 77.5787482764 78.4871749777 0.0
526 1 2.6514882764 77.7893749777 0.0
527 1 7.6338582764 79.9247749777 0.0
528 1 12.4698482764 79.2318749777 0.0
529 1 18.0389482764 79.6819749777 0.0
530 1 23.1335482764 80.7744749777 0.0
531 1 28.1470482764 80.1535749777 0.0
532 1 33.1242482764 79.5200749777 0.0
533 1 38.6861482764 79.4798749777 0.0
534 1 43.5992482764 79.6553749777 0.0
535 1 48.3964482764 80.4462749777 0.0
536 1 54.1714482764 80.7422749777 0.0
537 1 59.6357482764 80.0178749777 0.0
538 1 65.3750482764 79.8502749777 0.0
539 1 70.9269482764 78.5239749777 0.0
540 1 75.6442482764 80.7919749777 0.0
541 2 4.1473982764 81.4627749777 0.0
542 2 5.1367282764 2.04134497774 0.0
543 2 2.6112282764 2.08461497774 0.0
544 2 8.3347782764 81.2562749777 0.0
545 2 10.1633482764 1.74103497774 0.0
546 2 7.6792582764 1.86806497774 0.0
547 2 12.8738482764 80.6826749777 0.0
548 2 12.5548482764 1.47374497774 0.0
549 2 15.0248482764 0.466034977743 0.0
550 2 17.1591482764 1.91745497774 0.0
551 2 19.2700482764 3.26683497774 0.0
552 2 16.5866482764 4.25298497774 0.0
553 2 23.3396482764 0.610522977743 0.0
554 2 24.7899482764 3.03510497774 0.0
555 2 22.1358482764 2.81763497774 0.0
556 2 29.4750482764 2.34230497774 0.0
557 2 28.9374482764 81.4456749777 0.0
558 2 31.4247482764 0.935864977743 0.0
559 2 33.0785482764 81.0104749777 0.0
560 2 34.2603482764 1.51571497774 0.0
561 2 38.5598482764 80.9729749777 0.0
562 2 39.7125482764 1.47607497774 0.0
563 2 37.0023482764 1.39493497774 0.0
564 2 43.5879482764 81.1596749777 0.0
565 2 45.2177482764 1.24489497774 0.0
566 2 42.3917482764 1.74080497774 0.0
567 2 47.4431482764 2.64396497774 0.0
568 2 49.6062482764 4.29943497774 0.0
569 2 47.1873482764 5.21516497774 0.0
570 2 54.6713482764 0.491243977743 0.0
571 2 56.9094482764 1.49151497774 0.0
572 2 54.6904482764 3.15544497774 0.0
573 2 59.6944482764 4.36452497774 0.0
574 2 59.5027482764 2.07645497774 0.0
575 2 62.0860482764 2.97702497774 0.0
576 2 65.7353482764 81.3426749777 0.0
577 2 67.2924482764 2.05608497774 0.0
578 2 64.7685482764 2.00332497774 0.0
579 2 71.9382482764 0.630654977743 0.0
580 2 69.9165482764 2.42959497774 0.0
581 2 72.5986482764 2.89290497774 0.0
582 2 76.1511482764 0.521351977743 0.0
583 2 75.2261482764 2.80533497774 0.0
584 2 0.0342522763955 2.50481497774 0.0
585 2 1.7111482764 4.50894497774 0.0
586 2 3.2678282764 6.68493497774 0.0
587 2 0.630268276396 6.77197497774 0.0
588 2 6.7892182764 4.18980497774 0.0
589 2 8.5202482764 6.19821497774 0.0
590 2 5.8711782764 6.47054497774 0.0
591 2 11.9021482764 3.92829497774 0.0
592 2 13.9334482764 5.33955497774 0.0
593 2 11.1964482764 6.24907497774 0.0
594 2 16.1956482764 6.56445497774 0.0
595 2 18.5420482764 7.00244497774 0.0
596 2 16.8815482764 9.15462497774 0.0
597 2 20.8541482764 7.53466497774 0.0
598 2 23.1034482764 8.77705497774 0.0
599 2 20.6382482764 9.95867497774 0.0
600 2 26.3262482764 5.46897497774 0.0
601 2 28.1407482764 7.70052497774 0.0
602 2 25.6908482764 7.84308497774 0.0
603 2 30.1879482764 4.80428497774 0.0
604 2 32.6585482764 6.41644497774 0.0
605 2 30.3873482764 7.18687497774 0.0
606 2 35.8502482764 3.57888497774 0.0
607 2 37.7593482764 4.95508497774 0.0
608 2 35.1887482764 6.10218497774 0.0
609 2 42.1603482764 7.33879497774 0.0
610 2 39.9380482764 6.12748497774 0.0
611 2 39.8563482764 8.75645497774 0.0
612 2 45.0986482764 7.10301497774 0.0
613 2 47.9392482764 7.27964497774 0.0
614 2 52.4798482764 4.72357497774 0.0
615 2 50.3423482764 6.37652497774 0.0
616 2 57.5121482764 6.19733497774 0.0
617 2 60.2564482764 6.41658497774 0.0
618 2 64.1457482764 4.39680497774 0.0
619 2 65.6439482764 6.79130497774 0.0
620 2 63.0465482764 6.42741497774 0.0
621 2 68.8765482764 4.48285497774 0.0
622 2 70.5205482764 6.88295497774 0.0
623 2 68.1005482764 6.84219497774 0.0
624 2 74.1676482764 5.06212497774 0.0
625 2 75.8058482764 7.09039497774 0.0
626 2 73.0584482764 7.22925497774 0.0
627 2 5.1161282764 8.74901497774 0.0
628 2 7.2534982764 10.0765749777 0.0
629 2 4.3959182764 10.9722749777 0.0
630 2 10.3454482764 12.5417749777 0.0
631 2 10.1076482764 10.4896749777 0.0
632 2 12.8210482764 11.8245749777 0.0
633 2 15.4827482764 11.4689749777 0.0
634 2 18.2212482764 11.0675749777 0.0
635 2 20.8939482764 12.1176749777 0.0
636 2 24.9622482764 10.3027749777 0.0
637 2 26.3883482764 12.5305749777 0.0
638 2 23.6552482764 12.2786749777 0.0
639 2 31.0521482764 12.2446749777 0.0
640 2 30.3719482764 9.65461497774 0.0
641 2 32.9154482764 10.5047749777 0.0
642 2 34.2960482764 8.57871497774 0.0
643 2 35.6006482764 11.0342749777 0.0
644 2 40.9137482764 10.5498749777 0.0
645 2 38.1513482764 11.1061749777 0.0
646 2 43.5765482764 11.3581749777 0.0
647 2 46.3153482764 11.7699749777 0.0
648 2 44.8669482764 13.6210749777 0.0
649 2 50.0616482764 8.96597497774 0.0
650 2 51.3492482764 11.6314749777 0.0
651 2 49.0665482764 11.0702749777 0.0
652 2 55.9473482764 8.28055497774 0.0
653 2 57.4872482764 10.3002749777 0.0
654 2 55.4714482764 11.2187749777 0.0
655 2 61.6683482764 8.45603497774 0.0
656 2 62.8379482764 10.7865749777 0.0
657 2 60.2031482764 10.4288749777 0.0
658 2 66.9828482764 9.20151497774 0.0
659 2 67.5437482764 12.0936749777 0.0
660 2 65.4651482764 11.0939749777 0.0
661 2 71.9922482764 9.35686497774 0.0
662 2 73.9561482764 11.2439749777 0.0
663 2 71.7098482764 12.0687749777 0.0
664 2 77.6093482764 9.05054497774 0.0
665 2 1.5783782764 10.9553749777 0.0
666 2 76.6782482764 11.2656749777 0.0
667 2 2.5251282764 13.0107749777 0.0
668 2 0.832228276396 15.3838749777 0.0
669 2 3.0817582764 15.4651749777 0.0
670 2 7.9225082764 14.1165749777 0.0
671 2 7.5295482764 16.3591749777 0.0
672 2 5.3932682764 15.7247749777 0.0
673 2 10.3282482764 14.8307749777 0.0
674 2 9.8408482764 16.9994749777 0.0
675 2 12.4014482764 16.7437749777 0.0
676 2 14.9469482764 13.7533749777 0.0
677 2 16.8018482764 16.1141749777 0.0
678 2 14.6933482764 16.2946749777 0.0
679 2 21.7224482764 16.6853749777 0.0
680 2 22.4279482764 14.2660749777 0.0
681 2 24.3252482764 15.8680749777 0.0
682 2 26.4729482764 17.2843749777 0.0
683 2 26.7316482764 14.7627749777 0.0
684 2 30.8137482764 17.8802749777 0.0
685 2 31.0887482764 15.1012749777 0.0
686 2 33.0231482764 16.9109749777 0.0
687 2 36.7021482764 13.4914749777 0.0
688 2 35.3848482764 16.0455749777 0.0
689 2 37.4759482764 16.2484749777 0.0
690 2 44.2336482764 16.1836749777 0.0
691 2 46.7185482764 15.1783749777 0.0
692 2 48.1042482764 13.3447749777 0.0
693 2 49.5512482764 15.4197749777 0.0
694 2 53.5833482764 12.8240749777 0.0
695 2 51.6465482764 14.4114749777 0.0
696 2 59.0312482764 12.4640749777 0.0
697 2 60.3119482764 14.9724749777 0.0
698 2 57.9170482764 14.6501749777 0.0
699 2 63.9884482764 13.1144749777 0.0
700 2 65.2091482764 15.4084749777 0.0
701 2 62.6800482764 15.3606749777 0.0
702 2 69.5271482764 13.4759749777 0.0
703 2 67.3910482764 14.9106749777 0.0
704 2 76.3139482764 15.7513749777 0.0
705 2 75.2091482764 13.4199749777 0.0
706 2 73.7388482764 15.6145749777 0.0
707 2 3.6752182764 17.9710749777 0.0
708 2 4.0216482764 20.5759749777 0.0
709 2 1.6217482764 19.5130749777 0.0
710 2 8.0903882764 18.9583749777 0.0
711 2 9.1619682764 21.1166749777 0.0
712 2 6.4606582764 20.9451749777 0.0
713 2 13.4982482764 18.9087749777 0.0
714 2 14.1505482764 21.4195749777 0.0
715 2 11.7746482764 21.0358749777 0.0
716 2 17.4449482764 18.8703749777 0.0
717 2 18.6618482764 21.3358749777 0.0
718 2 16.3998482764 21.4162749777 0.0
719 2 21.3582482764 19.0350749777 0.0
720 2 23.5449482764 20.5982749777 0.0
721 2 21.0296482764 21.4240749777 0.0
722 2 25.7981482764 22.0926749777 0.0
723 2 28.1736482764 22.7041749777 0.0
724 2 26.1312482764 24.6008749777 0.0
725 2 28.5536482764 18.8719749777 0.0
726 2 29.9751482764 20.6979749777 0.0
727 2 37.1243482764 18.8912749777 0.0
728 2 39.4258482764 18.1925749777 0.0
729 2 44.4096482764 18.5732749777 0.0
730 2 46.6741482764 19.9257749777 0.0
731 2 43.9389482764 20.7330749777 0.0
732 2 51.0250482764 17.2960749777 0.0
733 2 52.0670482764 19.6468749777 0.0
734 2 49.4663482764 19.4908749777 0.0
735 2 56.9967482764 19.4029749777 0.0
736 2 57.0813482764 16.8004749777 0.0
737 2 59.2567482764 18.6452749777 0.0
738 2 61.1492482764 17.5206749777 0.0
739 2 61.9209482764 19.9485749777 0.0
740 2 66.1631482764 17.6258749777 0.0
741 2 64.5147482764 19.9533749777 0.0
742 2 67.2127482764 19.6325749777 0.0
743 2 71.8560482764 17.5617749777 0.0
744 2 72.5893482764 20.0414749777 0.0
745 2 70.0183482764 19.5088749777 0.0
746 2 77.2344482764 20.7893749777 0.0
747 2 77.7085482764 17.9781749777 0.0
748 2 76.3286482764 25.9882749777 0.0
749 2 0.953118276396 25.7239749777 0.0
750 2 77.0161482764 23.5138749777 0.0
751 2 5.8808882764 25.4314749777 0.0
752 2 5.7564782764 22.9631749777 0.0
753 2 8.1358882764 24.4578749777 0.0
754 2 10.1747482764 23.2502749777 0.0
755 2 10.7580482764 25.6263749777 0.0
756 2 14.9936482764 23.8818749777 0.0
757 2 16.0767482764 26.0312749777 0.0
758 2 13.3553482764 26.0136749777 0.0
759 2 19.9840482764 23.7849749777 0.0
760 2 21.5046482764 25.9606749777 0.0
761 2 18.8071482764 25.9510749777 0.0
762 2 27.1233482764 26.5104749777 0.0
763 2 24.2138482764 26.5122749777 0.0
764 2 30.4085482764 23.4328749777 0.0
765 2 32.5125482764 24.8730749777 0.0
766 2 29.8338482764 25.8200749777 0.0
767 2 35.1610482764 23.9674749777 0.0
768 2 37.6848482764 23.8294749777 0.0
769 2 36.1648482764 21.4665749777 0.0
770 2 42.1706482764 22.6888749777 0.0
771 2 43.3946482764 24.6186749777 0.0
772 2 40.4352482764 24.4364749777 0.0
773 2 47.8643482764 21.7266749777 0.0
774 2 48.7202482764 23.9762749777 0.0
775 2 46.0994482764 23.8363749777 0.0
776 2 52.9322482764 22.0640749777 0.0
777 2 53.9352482764 24.4664749777 0.0
778 2 51.3703482764 24.1240749777 0.0
779 2 56.9654482764 22.0298749777 0.0
780 2 58.8371482764 24.1710749777 0.0
781 2 56.3865482764 24.4231749777 0.0
782 2 63.0988482764 22.3092749777 0.0
783 2 63.5350482764 25.1807749777 0.0
784 2 61.4146482764 24.3309749777 0.0
785 2 70.1094482764 23.3451749777 0.0
786 2 68.5352482764 21.6362749777 0.0
787 2 67.7038482764 24.3331749777 0.0
788 2 73.7146482764 26.7105749777 0.0
789 2 71.9915482764 24.9468749777 0.0