# input file

1350 atoms
2 atom types

0.0 78.8869441873 xlo xhi
0.0 80.5380874178 ylo yhi
-10.0 10.0 zlo zhi
0.0 0.0 0.0 xy xz yz

Masses

1 28.0855 #Si
2 15.9994 #O

Atoms

1 1 2.45643987049 1.59782370892 0.0
2 1 7.16039987049 0.479223708916 0.0
3 1 12.7129098705 0.984373708916 0.0
4 1 18.3339098705 0.828283708916 0.0
5 1 23.2538098705 80.4308437089 0.0
6 1 28.6551098705 1.18344370892 0.0
7 1 34.4161098705 2.34473370892 0.0
8 1 39.6540098705 0.893943708916 0.0
9 1 44.6660098705 0.855463708916 0.0
10 1 49.3908098705 1.50298370892 0.0
11 1 54.5698098705 1.84359370892 0.0
12 1 60.3369098705 2.68965370892 0.0
13 1 65.5047098705 2.52226370892 0.0
14 1 70.5595098705 3.32085370892 0.0
15 1 76.2579098705 2.49957370892 0.0
16 1 0.191709870485 6.50945370892 0.0
17 1 6.90360987049 5.20497370892 0.0
18 1 9.86240987049 4.81952370892 0.0
19 1 13.8319098705 3.81523370892 0.0
20 1 20.6412098705 5.01385370892 0.0
21 1 25.4664098705 4.62152370892 0.0
22 1 30.0750098705 3.85065370892 0.0
23 1 38.6920098705 5.46916370892 0.0
24 1 41.6747098705 5.41714370892 0.0
25 1 46.5693098705 5.94802370892 0.0
26 1 51.4106098705 6.11363370892 0.0
27 1 55.7949098705 4.61074370892 0.0
28 1 62.9668098705 7.14831370892 0.0
29 1 67.7758098705 7.47927370892 0.0
30 1 72.0190098705 5.94737370892 0.0
31 1 2.04118987049 11.1418437089 0.0
32 1 7.12460987049 10.4264437089 0.0
33 1 12.1157098705 9.55324370892 0.0
34 1 17.2451098705 9.32264370892 0.0
35 1 24.5961098705 9.22374370892 0.0
36 1 27.6066098705 9.04752370892 0.0
37 1 32.9825098705 10.1013437089 0.0
38 1 39.9706098705 9.77044370892 0.0
39 1 42.9710098705 10.1862437089 0.0
40 1 48.4784098705 10.7508437089 0.0
41 1 53.9115098705 10.1763437089 0.0
42 1 59.4169098705 10.8766437089 0.0
43 1 65.3685098705 12.1131437089 0.0
44 1 71.1690098705 11.5485437089 0.0
45 1 76.2684098705 10.8484437089 0.0
46 1 0.220386870485 15.8168437089 0.0
47 1 5.44410987049 15.2057437089 0.0
48 1 9.35201987049 17.1053437089 0.0
49 1 14.2397098705 14.0800437089 0.0
50 1 18.9886098705 14.3491437089 0.0
51 1 23.9982098705 13.9768437089 0.0
52 1 29.6006098705 13.7713437089 0.0
53 1 34.7787098705 14.8948437089 0.0
54 1 39.8561098705 14.8334437089 0.0
55 1 45.4134098705 14.6655437089 0.0
56 1 51.5679098705 14.7400437089 0.0
57 1 56.9089098705 14.6390437089 0.0
58 1 60.5384098705 13.6848437089 0.0
59 1 67.1169098705 14.5420437089 0.0
60 1 74.0585098705 15.7208437089 0.0
61 1 2.57489987049 19.9925437089 0.0
62 1 8.11805987049 19.8774437089 0.0
63 1 12.8588098705 19.3478437089 0.0
64 1 17.1263098705 21.7322437089 0.0
65 1 21.9923098705 18.7656437089 0.0
66 1 27.2521098705 17.9335437089 0.0
67 1 32.3155098705 18.6800437089 0.0
68 1 37.7006098705 19.4157437089 0.0
69 1 43.0348098705 18.8399437089 0.0
70 1 47.2277098705 17.0550437089 0.0
71 1 54.8800098705 18.9326437089 0.0
72 1 59.9023098705 19.4249437089 0.0
73 1 65.1885098705 19.8562437089 0.0
74 1 70.6780098705 20.0185437089 0.0
75 1 76.0463098705 20.3642437089 0.0
76 1 78.3901098705 24.5232437089 0.0
77 1 4.84980987049 24.1420437089 0.0
78 1 10.3970098705 24.4716437089 0.0
79 1 16.6531098705 24.7134437089 0.0
80 1 21.5590098705 23.6054437089 0.0
81 1 25.9503098705 22.4851437089 0.0
82 1 30.1179098705 25.5036437089 0.0
83 1 35.2428098705 23.2562437089 0.0
84 1 40.9438098705 23.4085437089 0.0
85 1 47.2820098705 22.3949437089 0.0
86 1 52.6615098705 22.7383437089 0.0
87 1 56.8525098705 26.1091437089 0.0
88 1 62.3282098705 24.1591437089 0.0
89 1 67.9161098705 24.2730437089 0.0
90 1 73.0879098705 24.6155437089 0.0
91 1 2.04654987049 28.7435437089 0.0
92 1 7.44971987049 28.4692437089 0.0
93 1 12.0091098705 27.0292437089 0.0
94 1 21.3764098705 28.0493437089 0.0
95 1 24.3691098705 27.9155437089 0.0
96 1 29.2828098705 28.3841437089 0.0
97 1 34.1739098705 28.1232437089 0.0
98 1 38.8320098705 27.1278437089 0.0
99 1 42.9452098705 25.6518437089 0.0
100 1 49.3067098705 29.3830437089 0.0
101 1 55.2725098705 28.7034437089 0.0
102 1 60.0150098705 28.9917437089 0.0
103 1 65.3549098705 28.4117437089 0.0
104 1 70.4746098705 29.0800437089 0.0
105 1 75.5586098705 29.0748437089 0.0
106 1 78.5448098705 33.3089437089 0.0
107 1 5.23318987049 32.9092437089 0.0
108 1 10.4776098705 32.5128437089 0.0
109 1 15.8950098705 32.6820437089 0.0
110 1 21.2058098705 32.9883437089 0.0
111 1 26.8699098705 32.8431437089 0.0
112 1 32.6876098705 32.8296437089 0.0
113 1 38.3078098705 32.0074437089 0.0
114 1 44.1064098705 32.3558437089 0.0
115 1 46.9850098705 31.3591437089 0.0
116 1 51.8347098705 32.4908437089 0.0
117 1 57.9126098705 33.7371437089 0.0
118 1 63.3874098705 32.9977437089 0.0
119 1 67.8989098705 35.6674437089 0.0
120 1 73.2381098705 33.7925437089 0.0
121 1 3.32390987049 37.1560437089 0.0
122 1 8.11668987049 37.2259437089 0.0
123 1 13.3583098705 36.9217437089 0.0
124 1 18.6763098705 37.2407437089 0.0
125 1 23.8558098705 36.9959437089 0.0
126 1 30.4428098705 36.6057437089 0.0
127 1 36.0928098705 36.4569437089 0.0
128 1 41.1051098705 37.1859437089 0.0
129 1 45.4963098705 37.5341437089 0.0
130 1 50.0867098705 36.3540437089 0.0
131 1 55.6598098705 38.9611437089 0.0
132 1 61.1180098705 37.5929437089 0.0
133 1 66.3193098705 38.2546437089 0.0
134 1 71.1019098705 38.7920437089 0.0
135 1 76.9389098705 37.9002437089 0.0
136 1 1.87056987049 41.7357437089 0.0
137 1 6.75082987049 44.3210437089 0.0
138 1 11.3768098705 41.4940437089 0.0
139 1 16.6634098705 41.3829437089 0.0
140 1 22.0528098705 41.5536437089 0.0
141 1 25.6614098705 39.3924437089 0.0
142 1 33.1856098705 40.5086437089 0.0
143 1 37.7217098705 41.4109437089 0.0
144 1 43.1363098705 42.3603437089 0.0
145 1 48.7091098705 41.7081437089 0.0
146 1 54.1505098705 41.6036437089 0.0
147 1 59.1398098705 42.2567437089 0.0
148 1 62.6986098705 45.0522437089 0.0
149 1 68.8477098705 43.3047437089 0.0
150 1 73.0991098705 41.0419437089 0.0
151 1 7.04338987049 47.3318437089 0.0
152 1 11.2659098705 46.5970437089 0.0
153 1 14.1751098705 45.8418437089 0.0
154 1 19.7286098705 45.7668437089 0.0
155 1 27.0067098705 44.5800437089 0.0
156 1 30.0250098705 44.3765437089 0.0
157 1 34.0812098705 47.8716437089 0.0
158 1 39.8218098705 46.0773437089 0.0
159 1 45.6812098705 46.1289437089 0.0
160 1 50.9388098705 46.0077437089 0.0
161 1 55.8830098705 46.5583437089 0.0
162 1 60.9627098705 47.4980437089 0.0
163 1 65.0626098705 46.8862437089 0.0
164 1 72.3173098705 46.7210437089 0.0
165 1 77.7594098705 46.0782437089 0.0
166 1 0.175985870485 50.4332437089 0.0
167 1 4.94890987049 51.5178437089 0.0
168 1 10.4974098705 51.9632437089 0.0
169 1 16.3489098705 49.9646437089 0.0
170 1 21.9141098705 49.2606437089 0.0
171 1 26.9201098705 50.0426437089 0.0
172 1 32.8181098705 50.6466437089 0.0
173 1 37.7263098705 50.2962437089 0.0
174 1 42.9382098705 49.8685437089 0.0
175 1 48.0951098705 50.5834437089 0.0
176 1 53.0497098705 51.0032437089 0.0
177 1 57.9113098705 51.5389437089 0.0
178 1 63.1141098705 52.3194437089 0.0
179 1 69.2778098705 51.4802437089 0.0
180 1 74.3123098705 50.5492437089 0.0
181 1 2.02232987049 55.6087437089 0.0
182 1 5.67495987049 54.4406437089 0.0
183 1 12.2434098705 54.4413437089 0.0
184 1 18.8696098705 53.5212437089 0.0
185 1 23.5539098705 54.0855437089 0.0
186 1 28.0944098705 52.8670437089 0.0
187 1 35.3573098705 55.1529437089 0.0
188 1 40.5517098705 54.5118437089 0.0
189 1 44.7353098705 56.8743437089 0.0
190 1 50.4971098705 55.5120437089 0.0
191 1 55.4820098705 56.0354437089 0.0
192 1 60.4745098705 56.3599437089 0.0
193 1 64.9190098705 54.7167437089 0.0
194 1 71.9246098705 55.5582437089 0.0
195 1 77.9847098705 55.0089437089 0.0
196 1 0.192453870485 60.2935437089 0.0
197 1 5.09874987049 60.2194437089 0.0
198 1 10.4986098705 59.7682437089 0.0
199 1 15.9086098705 58.6604437089 0.0
200 1 21.5095098705 58.5257437089 0.0
201 1 25.3063098705 60.6718437089 0.0
202 1 32.6020098705 58.9598437089 0.0
203 1 37.6505098705 59.2809437089 0.0
204 1 42.8379098705 59.2173437089 0.0
205 1 47.5950098705 59.7054437089 0.0
206 1 53.0138098705 60.4786437089 0.0
207 1 58.4536098705 60.8353437089 0.0
208 1 63.8895098705 60.2467437089 0.0
209 1 68.6790098705 59.8747437089 0.0
210 1 73.8289098705 60.2726437089 0.0
211 1 2.00285987049 64.9975437089 0.0
212 1 8.29602987049 64.3448437089 0.0
213 1 13.7852098705 63.4664437089 0.0
214 1 18.9382098705 62.8309437089 0.0
215 1 23.7260098705 63.2149437089 0.0
216 1 27.9987098705 61.9629437089 0.0
217 1 34.9510098705 63.8080437089 0.0
218 1 39.6648098705 63.7215437089 0.0
219 1 44.4795098705 64.1838437089 0.0
220 1 49.4310098705 64.1440437089 0.0
221 1 53.8812098705 63.3837437089 0.0
222 1 61.3715098705 64.7946437089 0.0
223 1 66.4670098705 64.9291437089 0.0
224 1 72.8933098705 64.0315437089 0.0
225 1 75.8319098705 64.6353437089 0.0
226 1 77.9505098705 69.4337437089 0.0
227 1 3.59375987049 67.5662437089 0.0
228 1 11.1973098705 68.0751437089 0.0
229 1 17.9939098705 67.3193437089 0.0
230 1 20.9651098705 67.8563437089 0.0
231 1 27.2318098705 67.3698437089 0.0
232 1 30.8270098705 69.6956437089 0.0
233 1 38.5785098705 68.4384437089 0.0
234 1 41.6319098705 68.6901437089 0.0
235 1 47.3191098705 68.7922437089 0.0
236 1 52.6445098705 70.2022437089 0.0
237 1 58.1868098705 68.8809437089 0.0
238 1 62.9612098705 69.3473437089 0.0
239 1 69.8352098705 69.6770437089 0.0
240 1 72.8341098705 69.5939437089 0.0
241 1 2.34523987049 73.1798437089 0.0
242 1 7.78737987049 72.1070437089 0.0
243 1 13.1375098705 72.8978437089 0.0
244 1 18.0260098705 72.5697437089 0.0
245 1 22.4742098705 70.5212437089 0.0
246 1 28.5739098705 74.1410437089 0.0
247 1 33.4501098705 75.6308437089 0.0
248 1 38.5938098705 72.9799437089 0.0
249 1 44.5819098705 72.8905437089 0.0
250 1 52.5739098705 73.1882437089 0.0
251 1 55.5546098705 73.4428437089 0.0
252 1 60.2413098705 73.9596437089 0.0
253 1 64.9750098705 74.6172437089 0.0
254 1 70.3292098705 76.6817437089 0.0
255 1 75.6638098705 74.1525437089 0.0
256 1 0.178065870485 3.52453370892 0.0
257 1 5.21434987049 2.74568370892 0.0
258 1 9.84300987049 1.81432370892 0.0
259 1 16.8261098705 3.49227370892 0.0
260 1 21.0912098705 2.01509370892 0.0
261 1 25.6908098705 1.63991370892 0.0
262 1 32.8869098705 4.91716370892 0.0
263 1 37.3625098705 2.80050370892 0.0
264 1 42.1742098705 2.48200370892 0.0
265 1 46.7897098705 2.96144370892 0.0
266 1 51.8736098705 3.15265370892 0.0
267 1 58.7267098705 5.23150370892 0.0
268 1 62.9736098705 4.13405370892 0.0
269 1 67.7884098705 4.46870370892 0.0
270 1 74.9220098705 5.21162370892 0.0
271 1 2.62810987049 8.21759370892 0.0
272 1 5.59135987049 7.87177370892 0.0
273 1 12.3550098705 6.49391370892 0.0
274 1 17.9274098705 6.33074370892 0.0
275 1 23.2014098705 6.56723370892 0.0
276 1 28.0772098705 6.08442370892 0.0
277 1 34.4581098705 7.49637370892 0.0
278 1 37.4108098705 8.15332370892 0.0
279 1 43.9365098705 7.35939370892 0.0
280 1 48.9264098705 7.78666370892 0.0
281 1 54.2026098705 7.17669370892 0.0
282 1 60.0722098705 7.93305370892 0.0
283 1 65.2521098705 9.10494370892 0.0
284 1 70.5661098705 8.58934370892 0.0
285 1 76.3993098705 7.83626370892 0.0
286 1 78.4929098705 12.8695437089 0.0
287 1 4.78774987049 12.3012437089 0.0
288 1 9.86250987049 11.6276437089 0.0
289 1 14.7354098705 11.0636437089 0.0
290 1 19.4788098705 11.3714437089 0.0
291 1 22.5000098705 11.3713437089 0.0
292 1 30.0540098705 10.8025437089 0.0
293 1 35.3451098705 11.9625437089 0.0
294 1 38.3360098705 12.2571437089 0.0
295 1 45.6022098705 11.6750437089 0.0
296 1 51.3244098705 11.7447437089 0.0
297 1 56.5291098705 11.6590437089 0.0
298 1 63.4301098705 14.3929437089 0.0
299 1 70.0881098705 14.3580437089 0.0
300 1 73.9259098705 12.7110437089 0.0
301 1 2.99735987049 16.9994437089 0.0
302 1 8.33824987049 14.2843437089 0.0
303 1 12.2728098705 16.3927437089 0.0
304 1 16.5128098705 16.0607437089 0.0
305 1 21.6183098705 15.7976437089 0.0
306 1 26.8439098705 14.9592437089 0.0
307 1 31.9008098705 15.7112437089 0.0
308 1 37.3429098705 16.4522437089 0.0
309 1 42.6710098705 15.8656437089 0.0
310 1 50.1981098705 17.4074437089 0.0
311 1 54.2731098705 16.0077437089 0.0
312 1 59.3122098705 16.4400437089 0.0
313 1 65.1780098705 16.8312437089 0.0
314 1 71.3788098705 17.0765437089 0.0
315 1 76.5465098705 17.3971437089 0.0
316 1 78.8338098705 21.5329437089 0.0
317 1 5.36000987049 21.1653437089 0.0
318 1 10.6904098705 21.4610437089 0.0
319 1 15.8364098705 19.0140437089 0.0
320 1 20.0452098705 21.0332437089 0.0
321 1 24.8386098705 19.7045437089 0.0
322 1 29.5687098705 19.8450437089 0.0
323 1 34.8388098705 20.3011437089 0.0
324 1 40.5184098705 20.4527437089 0.0
325 1 45.8923098705 19.7353437089 0.0
326 1 52.0179098705 19.8083437089 0.0
327 1 57.2191098705 20.8159437089 0.0
328 1 62.4258098705 21.1203437089 0.0
329 1 67.8970098705 21.2412437089 0.0
330 1 73.2710098705 21.5945437089 0.0
331 1 2.26791987049 25.7329437089 0.0
332 1 7.55242987049 25.4686437089 0.0
333 1 15.0156098705 27.2393437089 0.0
334 1 19.4726098705 25.7364437089 0.0
335 1 24.2454098705 24.9269437089 0.0
336 1 28.9200098705 22.7630437089 0.0
337 1 33.1043098705 25.3365437089 0.0
338 1 38.0705098705 24.2450437089 0.0
339 1 45.8710098705 25.0337437089 0.0
340 1 49.8927098705 23.8733437089 0.0
341 1 55.6113098705 23.3672437089 0.0
342 1 59.8795098705 25.9783437089 0.0
343 1 65.1032098705 25.4046437089 0.0
344 1 70.4032098705 26.0353437089 0.0
345 1 75.7579098705 26.0476437089 0.0
346 1 78.3296098705 30.2941437089 0.0
347 1 4.81990987049 29.9326437089 0.0
348 1 10.2749098705 29.5006437089 0.0
349 1 16.6598098705 29.7796437089 0.0
350 1 19.6055098705 30.4420437089 0.0
351 1 26.6666098705 29.8452437089 0.0
352 1 31.8294098705 29.9634437089 0.0
353 1 36.8834098705 29.3744437089 0.0
354 1 41.5752098705 28.3133437089 0.0
355 1 48.4716098705 26.5065437089 0.0
356 1 52.3475098705 29.5450437089 0.0
357 1 57.5312098705 30.7216437089 0.0
358 1 62.8295098705 30.0468437089 0.0
359 1 67.7032098705 30.3073437089 0.0
360 1 73.0192098705 30.7502437089 0.0
361 1 2.53656987049 34.2553437089 0.0
362 1 7.96624987049 34.2042437089 0.0
363 1 13.1490098705 33.9162437089 0.0
364 1 18.4761098705 34.2530437089 0.0
365 1 24.0673098705 33.9952437089 0.0
366 1 29.7809098705 33.6969437089 0.0
367 1 35.6649098705 33.4892437089 0.0
368 1 41.2671098705 31.3060437089 0.0
369 1 43.4746098705 35.3074437089 0.0
370 1 49.0264098705 33.5513437089 0.0
371 1 52.8867098705 35.2833437089 0.0
372 1 60.8198098705 34.5972437089 0.0
373 1 66.4102098705 33.0454437089 0.0
374 1 70.9278098705 35.7759437089 0.0
375 1 76.0301098705 35.0063437089 0.0
376 1 0.890469870485 38.8903437089 0.0
377 1 5.69061987049 39.0162437089 0.0
378 1 10.8236098705 38.5391437089 0.0
379 1 15.9453098705 38.4683437089 0.0
380 1 21.3428098705 38.6264437089 0.0
381 1 28.6124098705 38.9662437089 0.0
382 1 33.2965098705 37.5229437089 0.0
383 1 38.3541098705 38.4409437089 0.0
384 1 43.1425098705 39.3744437089 0.0
385 1 48.2577098705 38.7280437089 0.0
386 1 55.8117098705 35.9393437089 0.0
387 1 58.6436098705 39.3049437089 0.0
388 1 63.5200098705 39.4070437089 0.0
389 1 68.5016098705 40.3166437089 0.0
390 1 76.0856098705 40.7906437089 0.0
391 1 4.88460987049 41.9343437089 0.0
392 1 9.73031987049 43.9988437089 0.0
393 1 14.0542098705 42.8475437089 0.0
394 1 19.3196098705 42.7968437089 0.0
395 1 24.9723098705 42.3207437089 0.0
396 1 30.3358098705 41.4034437089 0.0
397 1 35.0487098705 42.8474437089 0.0
398 1 40.2136098705 43.1051437089 0.0
399 1 46.0489098705 43.1518437089 0.0
400 1 51.4446098705 43.0099437089 0.0
401 1 56.4311098705 43.5895437089 0.0
402 1 62.1490098705 42.1052437089 0.0
403 1 67.9670098705 46.1791437089 0.0
404 1 71.8115098705 43.7554437089 0.0
405 1 78.0646098705 43.0759437089 0.0
406 1 1.41371987049 47.7077437089 0.0
407 1 4.31311987049 48.5741437089 0.0
408 1 9.54442987049 49.0651437089 0.0
409 1 16.9481098705 47.0187437089 0.0
410 1 22.7067098705 46.4037437089 0.0
411 1 25.6402098705 47.2590437089 0.0
412 1 32.9749098705 45.0707437089 0.0
413 1 37.0808098705 47.3818437089 0.0
414 1 42.7470098705 46.8830437089 0.0
415 1 48.3380098705 47.5680437089 0.0
416 1 53.2258098705 47.9796437089 0.0
417 1 58.1465098705 48.5374437089 0.0
418 1 63.3397098705 49.3291437089 0.0
419 1 69.8747098705 48.5054437089 0.0
420 1 75.1704098705 47.6575437089 0.0
421 1 2.19689987049 52.6270437089 0.0
422 1 8.63788987049 54.3148437089 0.0
423 1 15.9487098705 52.9418437089 0.0
424 1 19.2644098705 50.5848437089 0.0
425 1 24.1713098705 51.1849437089 0.0
426 1 31.1079098705 53.1696437089 0.0
427 1 35.3967098705 52.1633437089 0.0
428 1 40.4399098705 51.5228437089 0.0
429 1 45.2984098705 51.7061437089 0.0
430 1 50.4321098705 52.4885437089 0.0
431 1 55.2975098705 53.0187437089 0.0
432 1 60.3008098705 53.3593437089 0.0
433 1 67.8701098705 54.1677437089 0.0
434 1 72.0733098705 52.5527437089 0.0
435 1 76.7309098705 52.2898437089 0.0
436 1 77.2721098705 57.8910437089 0.0
437 1 4.52975987049 57.2395437089 0.0
438 1 10.3392098705 56.7607437089 0.0
439 1 14.9367098705 55.7715437089 0.0
440 1 20.9833098705 55.6021437089 0.0
441 1 26.2654098705 55.3279437089 0.0
442 1 32.4488098705 55.9172437089 0.0
443 1 38.1292098705 56.3143437089 0.0
444 1 43.5378098705 54.1492437089 0.0
445 1 47.7381098705 56.7248437089 0.0
446 1 52.8297098705 57.4545437089 0.0
447 1 57.8775098705 57.8748437089 0.0
448 1 63.3411098705 57.2819437089 0.0
449 1 69.2162098705 56.8794437089 0.0
450 1 74.3255098705 57.3459437089 0.0
451 1 2.66432987049 62.0257437089 0.0
452 1 7.90826987049 61.3487437089 0.0
453 1 13.4537098705 60.4645437089 0.0
454 1 18.7489098705 59.8107437089 0.0
455 1 24.4815098705 57.8042437089 0.0
456 1 30.9511098705 61.4824437089 0.0
457 1 35.0331098705 60.7705437089 0.0
458 1 40.2530098705 60.7664437089 0.0
459 1 45.0286098705 61.2458437089 0.0
460 1 50.1322098705 61.2499437089 0.0
461 1 56.8832098705 63.4074437089 0.0
462 1 61.3078098705 61.7893437089 0.0
463 1 66.4211098705 61.8882437089 0.0
464 1 71.1522098705 61.5907437089 0.0
465 1 76.4566098705 61.7264437089 0.0
466 1 78.2303098705 66.4317437089 0.0
467 1 6.51853987049 66.7980437089 0.0
468 1 11.2270098705 65.0696437089 0.0
469 1 16.5580098705 64.6624437089 0.0
470 1 21.2034098705 64.8355437089 0.0
471 1 26.4189098705 64.5027437089 0.0
472 1 31.9834098705 64.3202437089 0.0
473 1 37.3578098705 65.6471437089 0.0
474 1 41.9099098705 65.7029437089 0.0
475 1 46.9655098705 65.8254437089 0.0
476 1 51.9543098705 65.7289437089 0.0
477 1 58.5763098705 65.8944437089 0.0
478 1 63.8654098705 66.4686437089 0.0
479 1 68.7989098705 66.8593437089 0.0
480 1 71.7926098705 66.7838437089 0.0
481 1 1.99308987049 70.1603437089 0.0
482 1 8.38887987049 69.1551437089 0.0
483 1 13.5576098705 69.9325437089 0.0
484 1 16.5563098705 69.9425437089 0.0
485 1 25.4528098705 69.8172437089 0.0
486 1 30.1956098705 66.7684437089 0.0
487 1 33.5082098705 71.0792437089 0.0
488 1 36.5679098705 70.7143437089 0.0
489 1 44.4626098705 69.8770437089 0.0
490 1 50.3301098705 68.2978437089 0.0
491 1 55.6284098705 70.4385437089 0.0
492 1 60.3960098705 70.9297437089 0.0
493 1 64.9008098705 71.6245437089 0.0
494 1 67.8657098705 71.8943437089 0.0
495 1 75.4394098705 71.1304437089 0.0
496 1 78.6381098705 74.8265437089 0.0
497 1 5.32956987049 73.8515437089 0.0
498 1 10.2839098705 73.8109437089 0.0
499 1 15.6975098705 74.4751437089 0.0
500 1 20.9758098705 73.2158437089 0.0
501 1 28.1537098705 71.1691437089 0.0
502 1 31.5145098705 73.3727437089 0.0
503 1 36.4018098705 75.0636437089 0.0
504 1 41.6015098705 73.5835437089 0.0
505 1 47.2997098705 74.3256437089 0.0
506 1 50.2656098705 75.0849437089 0.0
507 1 57.6909098705 75.5565437089 0.0
508 1 62.3763098705 76.0876437089 0.0
509 1 67.9535098705 74.8693437089 0.0
510 1 73.3090098705 76.1088437089 0.0
511 1 7.19110987049 76.2564437089 0.0
512 1 10.1893098705 76.8170437089 0.0
513 1 15.6490098705 77.4799437089 0.0
514 1 20.9429098705 76.2948437089 0.0
515 1 26.7162098705 76.5666437089 0.0
516 1 31.8044098705 78.1426437089 0.0
517 1 36.5899098705 78.0500437089 0.0
518 1 41.8628098705 76.5759437089 0.0
519 1 46.9803098705 77.3005437089 0.0
520 1 52.0234098705 77.5904437089 0.0
521 1 57.4737098705 78.5681437089 0.0
522 1 62.8307098705 79.0625437089 0.0
523 1 68.6374098705 79.1971437089 0.0
524 1 73.5661098705 79.1120437089 0.0
525 1 78.5671098705 77.8584437089 0.0
526 1 2.40241987049 79.1386437089 0.0
527 1 5.36148987049 78.6207437089 0.0
528 1 12.7712098705 78.4867437089 0.0
529 1 18.5779098705 78.3118437089 0.0
530 1 23.7724098705 77.4422437089 0.0
531 1 28.8512098705 78.7149437089 0.0
532 1 34.2199098705 79.8998437089 0.0
533 1 39.5428098705 78.4569437089 0.0
534 1 44.2197098705 78.4314437089 0.0
535 1 49.4152098705 79.0561437089 0.0
536 1 54.5402098705 79.3415437089 0.0
537 1 60.0280098705 80.2218437089 0.0
538 1 65.7103098705 80.0519437089 0.0
539 1 71.1221098705 0.360563708916 0.0
540 1 76.4292098705 80.0173437089 0.0
541 2 2.36716987049 0.107803708916 0.0
542 2 3.80549987049 2.25245370892 0.0
543 2 1.31875987049 2.56466370892 0.0
544 2 6.31414987049 79.7869437089 0.0
545 2 8.55889987049 1.03209370892 0.0
546 2 6.19377987049 1.62061370892 0.0
547 2 12.8145098705 80.0095437089 0.0
548 2 13.3176098705 2.37590370892 0.0
549 2 11.2394098705 1.29795370892 0.0
550 2 18.4439098705 79.8449437089 0.0
551 2 19.7273098705 1.39082370892 0.0
552 2 17.4849098705 2.11239370892 0.0
553 2 23.5007098705 78.9425437089 0.0
554 2 24.5169098705 0.719323708916 0.0
555 2 22.1560098705 0.938313708916 0.0
556 2 28.8009098705 80.2228437089 0.0
557 2 29.4700098705 2.46065370892 0.0
558 2 27.1629098705 1.37890370892 0.0
559 2 34.2311098705 0.858353708916 0.0
560 2 35.8967098705 2.57791370892 0.0
561 2 33.6448098705 3.61618370892 0.0
562 2 39.6724098705 79.9475437089 0.0
563 2 40.9228098705 1.67176370892 0.0
564 2 38.4400098705 1.76593370892 0.0
565 2 44.4223098705 79.9200437089 0.0
566 2 45.7526098705 1.88247370892 0.0
567 2 43.4184098705 1.67796370892 0.0
568 2 49.3773098705 0.0110667089163 0.0
569 2 50.6436098705 2.30519370892 0.0
570 2 48.1119098705 2.26733370892 0.0
571 2 54.5783098705 0.332733708916 0.0
572 2 55.3141098705 3.17569370892 0.0
573 2 53.1918098705 2.45814370892 0.0
574 2 60.1014098705 1.20067370892 0.0
575 2 61.6945098705 3.34981370892 0.0
576 2 59.4715098705 3.92212370892 0.0
577 2 65.6226098705 1.02687370892 0.0
578 2 66.6509098705 3.49437370892 0.0
579 2 64.2229098705 3.30549370892 0.0
580 2 70.9303098705 1.86040370892 0.0
581 2 71.3237098705 4.61278370892 0.0
582 2 69.1419098705 3.82456370892 0.0
583 2 76.3240098705 0.992973708916 0.0
584 2 77.6802098705 2.98247370892 0.0
585 2 75.4759098705 3.80329370892 0.0
586 2 1.45509987049 7.30245370892 0.0
587 2 0.241339870485 5.01746370892 0.0
588 2 77.7827098705 7.24586370892 0.0
589 2 5.98418987049 4.02632370892 0.0
590 2 6.24985987049 6.54088370892 0.0
591 2 8.39085987049 5.11136370892 0.0
592 2 9.88680987049 3.31671370892 0.0
593 2 11.0357098705 5.74379370892 0.0
594 2 15.3276098705 3.64460370892 0.0
595 2 13.2048098705 5.21031370892 0.0
596 2 20.9136098705 3.52252370892 0.0
597 2 21.8749098705 5.87676370892 0.0
598 2 19.3405098705 5.76928370892 0.0
599 2 25.4903098705 3.12915370892 0.0
600 2 26.7667098705 5.35995370892 0.0
601 2 24.2935098705 5.53835370892 0.0
602 2 31.4692098705 4.41143370892 0.0
603 2 29.1352098705 5.02554370892 0.0
604 2 38.0008098705 6.77541370892 0.0
605 2 37.9785098705 4.16272370892 0.0
606 2 40.1877098705 5.52416370892 0.0
607 2 42.0102098705 3.95957370892 0.0
608 2 42.7749098705 6.41214370892 0.0
609 2 46.6639098705 4.45291370892 0.0
610 2 47.7467098705 6.86394370892 0.0
611 2 45.2603098705 6.67261370892 0.0
612 2 51.5967098705 4.62491370892 0.0
613 2 52.7769098705 6.70936370892 0.0
614 2 50.1883098705 6.97586370892 0.0
615 2 57.2585098705 4.93888370892 0.0
616 2 55.0434098705 5.92664370892 0.0
617 2 63.0256098705 5.64142370892 0.0
618 2 64.0825098705 8.15781370892 0.0
619 2 61.5394098705 7.61013370892 0.0
620 2 67.7293098705 5.97401370892 0.0
621 2 69.1396098705 8.10762370892 0.0
622 2 66.5342098705 8.32076370892 0.0
623 2 73.4719098705 5.58744370892 0.0
624 2 71.3883098705 7.31781370892 0.0
625 2 2.24666987049 9.66324370892 0.0
626 2 3.40253987049 11.7572437089 0.0
627 2 0.836019870485 12.0069437089 0.0
628 2 6.44663987049 9.09362370892 0.0
629 2 8.53105987049 10.9082437089 0.0
630 2 5.98892987049 11.4082437089 0.0
631 2 12.2536098705 8.01983370892 0.0
632 2 13.4381098705 10.2868437089 0.0
633 2 10.9999098705 10.6111437089 0.0
634 2 17.5262098705 7.81273370892 0.0
635 2 18.4119098705 10.3045437089 0.0
636 2 15.9750098705 10.1744437089 0.0
637 2 23.5490098705 10.2957437089 0.0
638 2 23.8442098705 7.91827370892 0.0
639 2 26.1073098705 9.25054370892 0.0
640 2 27.9413098705 7.57686370892 0.0
641 2 28.8187098705 9.94084370892 0.0
642 2 33.6207098705 8.74481370892 0.0
643 2 34.1677098705 11.0389437089 0.0
644 2 31.5117098705 10.4116437089 0.0
645 2 39.2154098705 11.0621437089 0.0
646 2 38.6989098705 8.94112370892 0.0
647 2 41.4669098705 10.0065437089 0.0
648 2 43.5045098705 8.77864370892 0.0
649 2 44.2491098705 11.0011437089 0.0
650 2 48.6905098705 9.25944370892 0.0
651 2 49.8842098705 11.3008437089 0.0
652 2 47.0445098705 11.2143437089 0.0
653 2 54.1311098705 8.68374370892 0.0
654 2 55.2211098705 10.9268437089 0.0
655 2 52.5990098705 10.9302437089 0.0
656 2 59.7571098705 9.40804370892 0.0
657 2 60.0440098705 12.2577437089 0.0
658 2 57.9361098705 11.1374437089 0.0
659 2 65.3006098705 10.6120437089 0.0
660 2 66.4018098705 13.2145437089 0.0
661 2 64.2789098705 13.1510437089 0.0
662 2 70.8580098705 10.0716437089 0.0
663 2 72.5874098705 12.0464437089 0.0
664 2 70.5432098705 12.9232437089 0.0
665 2 76.2772098705 9.34054370892 0.0
666 2 75.0626098705 11.7400437089 0.0
667 2 77.3768098705 11.8662437089 0.0
668 2 78.7674098705 14.3442437089 0.0
669 2 1.61907987049 16.3666437089 0.0
670 2 77.8592098705 16.6642437089 0.0
671 2 4.98760987049 13.7726437089 0.0
672 2 4.28661987049 16.1937437089 0.0
673 2 6.89290987049 14.7767437089 0.0
674 2 8.84172987049 15.6993437089 0.0
675 2 10.8041098705 16.7140437089 0.0
676 2 8.64233987049 18.4457437089 0.0
677 2 14.4851098705 12.5777437089 0.0
678 2 15.4014098705 15.0441437089 0.0
679 2 13.1294098705 15.1395437089 0.0
680 2 19.1384098705 12.8493437089 0.0
681 2 20.2926098705 15.1026437089 0.0
682 2 17.7799098705 15.2424437089 0.0
683 2 23.2918098705 12.6530437089 0.0
684 2 25.4438098705 14.4038437089 0.0
685 2 22.8589098705 14.9587437089 0.0
686 2 29.8260098705 12.2890437089 0.0
687 2 30.7413098705 14.7591437089 0.0
688 2 28.1938098705 14.2995437089 0.0
689 2 35.0110098705 13.4214437089 0.0
690 2 36.0280098705 15.7281437089 0.0
691 2 33.3369098705 15.2738437089 0.0
692 2 39.1577098705 13.5080437089 0.0
693 2 41.2834098705 15.2888437089 0.0
694 2 38.6425098705 15.7134437089 0.0
695 2 45.5514098705 13.1793437089 0.0
696 2 46.4014098705 15.8004437089 0.0
697 2 44.0031098705 15.1867437089 0.0
698 2 51.4095098705 13.2524437089 0.0
699 2 52.9552098705 15.3182437089 0.0
700 2 50.7960098705 16.0278437089 0.0
701 2 56.7293098705 13.1495437089 0.0
702 2 58.0224098705 15.6400437089 0.0
703 2 55.5639098705 15.2734437089 0.0
704 2 61.9956098705 14.0124437089 0.0
705 2 60.0000098705 15.0909437089 0.0
706 2 68.5986098705 14.4699437089 0.0
707 2 66.2940098705 15.8036437089 0.0
708 2 74.0237098705 14.2134437089 0.0
709 2 75.3188098705 16.5280437089 0.0
710 2 72.7711098705 16.4911437089 0.0
711 2 2.78268987049 18.4936437089 0.0
712 2 3.97424987049 20.5658437089 0.0
713 2 1.26135987049 20.7619437089 0.0
714 2 9.36501987049 20.7342437089 0.0
715 2 6.72193987049 20.4809437089 0.0
716 2 12.6185098705 17.8638437089 0.0
717 2 14.3600098705 19.2968437089 0.0
718 2 11.8400098705 20.4685437089 0.0
719 2 16.4741098705 20.3774437089 0.0
720 2 18.5879098705 21.3562437089 0.0
721 2 16.7403098705 23.1986437089 0.0
722 2 21.7633098705 17.2897437089 0.0
723 2 23.4163098705 19.2468437089 0.0
724 2 20.9316098705 19.8227437089 0.0
725 2 27.0605098705 16.4497437089 0.0
726 2 28.4506098705 18.8407437089 0.0
727 2 26.0034098705 18.7647437089 0.0
728 2 32.0751098705 17.2027437089 0.0
729 2 33.5897098705 19.4742437089 0.0
730 2 30.9686098705 19.3298437089 0.0
731 2 37.5327098705 17.9280437089 0.0
732 2 39.0954098705 19.9665437089 0.0
733 2 36.2784098705 19.8841437089 0.0
734 2 42.8307098705 17.3561437089 0.0
735 2 44.4274098705 19.3965437089 0.0
736 2 41.7695098705 19.6354437089 0.0
737 2 48.7119098705 17.2322437089 0.0
738 2 46.5907098705 18.4108437089 0.0
739 2 54.6290098705 17.4583437089 0.0
740 2 56.0857098705 19.8152437089 0.0
741 2 53.4570098705 19.3927437089 0.0
742 2 59.6675098705 17.9145437089 0.0
743 2 61.1797098705 20.2432437089 0.0
744 2 58.5929098705 20.1974437089 0.0
745 2 65.1798098705 18.3330437089 0.0
746 2 66.5433098705 20.5426437089 0.0
747 2 63.8129098705 20.4972437089 0.0
748 2 70.9705098705 18.5261437089 0.0
749 2 71.9689098705 20.8175437089 0.0
750 2 69.2741098705 20.5920437089 0.0
751 2 76.2763098705 18.8716437089 0.0
752 2 77.4362098705 20.9555437089 0.0
753 2 74.6625098705 20.9790437089 0.0
754 2 78.6194098705 23.0289437089 0.0
755 2 0.881609870485 25.1412437089 0.0
756 2 77.0760098705 25.2848437089 0.0
757 2 5.10602987049 22.6554437089 0.0
758 2 6.20446987049 24.8066437089 0.0
759 2 3.55242987049 24.9253437089 0.0
760 2 10.6427098705 22.9767437089 0.0
761 2 11.2860098705 25.6979437089 0.0
762 2 8.94757987049 24.9030437089 0.0
763 2 18.0476098705 25.2919437089 0.0
764 2 15.7469098705 25.9172437089 0.0
765 2 20.9008098705 22.2668437089 0.0
766 2 22.9033098705 24.2514437089 0.0
767 2 20.4800098705 24.6347437089 0.0
768 2 25.3324098705 21.1224437089 0.0
769 2 27.4280098705 22.6680437089 0.0
770 2 25.1667098705 23.7531437089 0.0
771 2 29.5057098705 24.1365437089 0.0
772 2 31.6127098705 25.3630437089 0.0
773 2 29.5929098705 26.9095437089 0.0
774 2 34.9441098705 21.7966437089 0.0
775 2 36.6745098705 23.7134437089 0.0
776 2 34.1268098705 24.2480437089 0.0
777 2 40.8333098705 21.9151437089 0.0
778 2 41.9872098705 24.4857437089 0.0
779 2 39.4826098705 23.7586437089 0.0
780 2 46.6125098705 21.0515437089 0.0
781 2 48.6801098705 22.9605437089 0.0
782 2 46.4309098705 23.6390437089 0.0
783 2 52.2354098705 21.2925437089 0.0
784 2 54.1159098705 23.1223437089 0.0
785 2 51.3222098705 23.4309437089 0.0
786 2 56.1840098705 24.7543437089 0.0
787 2 58.3586098705 25.9460437089 0.0