# input file

1350 atoms
2 atom types

0.0 79.6551569329 xlo xhi
0.0 79.6375051312 ylo yhi
-10.0 10.0 zlo zhi
0.0 0.0 0.0 xy xz yz

Masses

1 28.0855 #Si
2 15.9994 #O

Atoms

1 1 4.43763624329 0.657882565588 0.0
2 1 7.45672624329 0.923242565588 0.0
3 1 12.6577162433 1.46722256559 0.0
4 1 19.3836162433 1.63922256559 0.0
5 1 22.3078162433 1.08524256559 0.0
6 1 27.8138162433 1.80944256559 0.0
7 1 34.0490162433 2.84414256559 0.0
8 1 39.5491162433 3.49359256559 0.0
9 1 45.0377162433 2.94874256559 0.0
10 1 49.8225162433 1.34994256559 0.0
11 1 55.2481162433 0.821542565588 0.0
12 1 60.5793162433 1.25378256559 0.0
13 1 66.2594162433 0.812602565588 0.0
14 1 73.5300162433 79.3354525656 0.0
15 1 76.4853162433 0.370402565588 0.0
16 1 77.9454162433 5.22629256559 0.0
17 1 3.25611624329 5.40985256559 0.0
18 1 8.87285624329 5.68216256559 0.0
19 1 13.8814162433 6.96204256559 0.0
20 1 19.1449162433 5.92016256559 0.0
21 1 24.4056162433 5.59199256559 0.0
22 1 29.2029162433 4.48399256559 0.0
23 1 36.0578162433 7.23713256559 0.0
24 1 41.0690162433 6.08190256559 0.0
25 1 48.8375162433 6.61116256559 0.0
26 1 53.5255162433 5.37875256559 0.0
27 1 58.4453162433 7.66841256559 0.0
28 1 65.2716162433 4.52682256559 0.0
29 1 68.1967162433 5.23361256559 0.0
30 1 72.6822162433 5.08142256559 0.0
31 1 0.267368543294 9.97465256559 0.0
32 1 5.65514624329 9.66345256559 0.0
33 1 9.82893624329 8.57918256559 0.0
34 1 17.3315162433 10.6318525656 0.0
35 1 21.7690162433 12.2271525656 0.0
36 1 27.0678162433 9.71155256559 0.0
37 1 32.8052162433 11.0439525656 0.0
38 1 38.4225162433 11.1115525656 0.0
39 1 45.4151162433 10.8852525656 0.0
40 1 51.7297162433 10.8491525656 0.0
41 1 58.5505162433 10.6886525656 0.0
42 1 62.7932162433 10.5588525656 0.0
43 1 65.7323162433 10.0395525656 0.0
44 1 71.7783162433 9.90135256559 0.0
45 1 74.7748162433 9.55805256559 0.0
46 1 77.3316162433 14.3323525656 0.0
47 1 3.22292624329 14.1436525656 0.0
48 1 8.80269624329 14.1533525656 0.0
49 1 15.3019162433 14.8756525656 0.0
50 1 20.9458162433 15.0943525656 0.0
51 1 25.8894162433 14.1748525656 0.0
52 1 30.5254162433 16.5342525656 0.0
53 1 35.8553162433 15.1235525656 0.0
54 1 40.4755162433 13.2832525656 0.0
55 1 47.2839162433 13.2210525656 0.0
56 1 53.7006162433 15.8700525656 0.0
57 1 57.9215162433 16.0133525656 0.0
58 1 62.5352162433 15.1458525656 0.0
59 1 66.4327162433 17.7716525656 0.0
60 1 71.7163162433 15.3181525656 0.0
61 1 1.31336624329 18.3494525656 0.0
62 1 6.55119624329 18.2516525656 0.0
63 1 10.5983162433 16.6160525656 0.0
64 1 18.2142162433 19.0025525656 0.0
65 1 23.5591162433 19.2318525656 0.0
66 1 29.0012162433 19.1853525656 0.0
67 1 34.4644162433 19.7871525656 0.0
68 1 40.0286162433 18.4815525656 0.0
69 1 45.6369162433 18.5078525656 0.0
70 1 50.8156162433 19.5471525656 0.0
71 1 55.8254162433 21.0785525656 0.0
72 1 61.1521162433 20.3435525656 0.0
73 1 65.4844162433 22.4872525656 0.0
74 1 70.6510162433 20.0762525656 0.0
75 1 75.6938162433 18.7079525656 0.0
76 1 79.3476162433 22.8237525656 0.0
77 1 5.04453624329 22.5957525656 0.0
78 1 10.1921762433 22.2826525656 0.0
79 1 15.3437162433 22.7829525656 0.0
80 1 20.7503162433 23.5028525656 0.0
81 1 25.7692162433 23.4711525656 0.0
82 1 29.9709162433 22.0544525656 0.0
83 1 37.2071162433 22.9783525656 0.0
84 1 42.6476162433 22.5796525656 0.0
85 1 47.8640162433 23.4895525656 0.0
86 1 52.1048162433 24.7523525656 0.0
87 1 58.5346162433 25.1626525656 0.0
88 1 64.7438162433 25.3928525656 0.0
89 1 69.7444162433 24.8306525656 0.0
90 1 74.5507162433 23.6606525656 0.0
91 1 2.84834624329 27.0148525656 0.0
92 1 8.17176624329 26.9924525656 0.0
93 1 13.0567162433 27.0894525656 0.0
94 1 18.1866162433 27.4232525656 0.0
95 1 23.4491162433 28.1853525656 0.0
96 1 28.8313162433 27.6999525656 0.0
97 1 34.3391162433 27.6994525656 0.0
98 1 39.0550162433 26.8208525656 0.0
99 1 44.6980162433 27.3763525656 0.0
100 1 49.1108162433 29.1378525656 0.0
101 1 53.5095162433 27.4152525656 0.0
102 1 60.2809162433 27.6045525656 0.0
103 1 67.4879162433 29.6908525656 0.0
104 1 72.8062162433 28.8608525656 0.0
105 1 77.7201162433 27.9323525656 0.0
106 1 1.89196624329 31.9846525656 0.0
107 1 7.70425624329 32.3784525656 0.0
108 1 10.7153162433 31.8332525656 0.0
109 1 16.1483162433 31.7899525656 0.0
110 1 21.5658162433 33.8580525656 0.0
111 1 27.0007162433 32.2674525656 0.0
112 1 32.5062162433 31.8053525656 0.0
113 1 38.9629162433 31.3454525656 0.0
114 1 41.9293162433 30.9716525656 0.0
115 1 47.1469162433 34.7460525656 0.0
116 1 52.3584162433 33.0106525656 0.0
117 1 58.0402162433 32.8302525656 0.0
118 1 64.8481162433 33.6335525656 0.0
119 1 70.5293162433 33.5507525656 0.0
120 1 76.0877162433 32.9758525656 0.0
121 1 4.03220624329 36.9288525656 0.0
122 1 8.45089624329 37.2034525656 0.0
123 1 13.8314162433 36.2596525656 0.0
124 1 20.8493162433 36.7789525656 0.0
125 1 25.7643162433 36.9093525656 0.0
126 1 31.4753162433 35.8369525656 0.0
127 1 34.4472162433 36.2795525656 0.0
128 1 39.6122162433 36.7753525656 0.0
129 1 45.3895162433 37.2668525656 0.0
130 1 50.0819162433 38.0961525656 0.0
131 1 55.2798162433 36.9393525656 0.0
132 1 59.9521162433 35.1740525656 0.0
133 1 67.5785162433 37.5833525656 0.0
134 1 73.0847162433 37.3847525656 0.0
135 1 78.5288162433 36.6668525656 0.0
136 1 1.01604724329 41.3178525656 0.0
137 1 5.74531624329 42.0204525656 0.0
138 1 10.4999162433 40.8253525656 0.0
139 1 15.7120162433 38.6411525656 0.0
140 1 23.1133162433 41.5428525656 0.0
141 1 28.9386162433 41.8685525656 0.0
142 1 31.9184162433 41.5524525656 0.0
143 1 36.3515162433 41.0335525656 0.0
144 1 41.6748162433 40.9839525656 0.0
145 1 47.5040162433 42.5916525656 0.0
146 1 53.5765162433 41.8196525656 0.0
147 1 58.8053162433 40.5638525656 0.0
148 1 64.1516162433 41.3156525656 0.0
149 1 70.3422162433 41.7044525656 0.0
150 1 75.7235162433 41.2468525656 0.0
151 1 3.70081624329 46.3879525656 0.0
152 1 8.91402624329 46.0574525656 0.0
153 1 12.6153162433 42.9199525656 0.0
154 1 19.2510162433 44.4190525656 0.0
155 1 23.9087162433 46.5800525656 0.0
156 1 29.3428162433 47.3672525656 0.0
157 1 35.5775162433 46.0872525656 0.0
158 1 38.4980162433 45.3580525656 0.0
159 1 42.5604162433 43.8675525656 0.0
160 1 49.1958162433 45.1010525656 0.0
161 1 56.4569162433 45.4754525656 0.0
162 1 61.2724162433 45.2310525656 0.0
163 1 65.5287162433 43.9946525656 0.0
164 1 72.8372162433 45.7510525656 0.0
165 1 78.1703162433 45.9735525656 0.0
166 1 1.00090424329 50.6711525656 0.0
167 1 6.42127624329 50.7065525656 0.0
168 1 14.6799162433 50.0398525656 0.0
169 1 14.6296162433 47.0358525656 0.0
170 1 20.1200162433 49.7789525656 0.0
171 1 25.7062162433 51.0769525656 0.0
172 1 31.2892162433 52.0751525656 0.0
173 1 36.4960162433 51.6479525656 0.0
174 1 42.8472162433 49.1440525656 0.0
175 1 45.5437162433 47.7647525656 0.0
176 1 53.2236162433 49.8392525656 0.0
177 1 58.5326162433 50.0889525656 0.0
178 1 63.8364162433 49.5807525656 0.0
179 1 69.3642162433 49.6441525656 0.0
180 1 75.0123162433 50.1867525656 0.0
181 1 3.52437624329 55.0041525656 0.0
182 1 9.29027624329 55.0293525656 0.0
183 1 13.9997162433 57.0019525656 0.0
184 1 18.4487162433 54.0250525656 0.0
185 1 23.7113162433 55.9996525656 0.0
186 1 28.7753162433 57.1112525656 0.0
187 1 34.3969162433 56.4079525656 0.0
188 1 39.5643162433 56.1887525656 0.0
189 1 44.4093162433 54.0556525656 0.0
190 1 50.0850162433 53.5847525656 0.0
191 1 55.6004162433 54.3985525656 0.0
192 1 60.7672162433 54.2299525656 0.0
193 1 66.2925162433 53.8251525656 0.0
194 1 71.9617162433 53.9375525656 0.0
195 1 77.5193162433 54.4347525656 0.0
196 1 0.870398243294 58.6587525656 0.0
197 1 5.11252624329 57.5654525656 0.0
198 1 12.7049162433 59.7118525656 0.0
199 1 17.5567162433 59.5684525656 0.0
200 1 22.4576162433 58.7270525656 0.0
201 1 27.4284162433 59.7683525656 0.0
202 1 32.2857162433 60.6258525656 0.0
203 1 35.7264162433 59.1360525656 0.0
204 1 43.1349162433 59.3760525656 0.0
205 1 48.0874162433 57.8629525656 0.0
206 1 52.9321162433 58.2185525656 0.0
207 1 57.9790162433 58.9428525656 0.0
208 1 63.4477162433 58.2264525656 0.0
209 1 69.1246162433 57.8837525656 0.0
210 1 75.1115162433 58.2555525656 0.0
211 1 3.23863624329 63.0914525656 0.0
212 1 9.35153624329 63.2839525656 0.0
213 1 15.0365162433 64.3909525656 0.0
214 1 20.9933162433 63.7071525656 0.0
215 1 23.9768162433 63.6789525656 0.0
216 1 29.2207162433 64.7593525656 0.0
217 1 35.2665162433 65.0872525656 0.0
218 1 38.9700162433 62.1924525656 0.0
219 1 45.9612162433 63.0575525656 0.0
220 1 50.7022162433 62.8408525656 0.0
221 1 55.6619162433 63.1645525656 0.0
222 1 59.2927162433 61.6752525656 0.0
223 1 66.5547162433 61.9267525656 0.0
224 1 70.5579162433 60.5097525656 0.0
225 1 77.4892162433 62.6707525656 0.0
226 1 0.0199312432942 67.1047525656 0.0
227 1 4.41564624329 65.8590525656 0.0
228 1 11.3081162433 67.5325525656 0.0
229 1 16.5468162433 69.4388525656 0.0
230 1 21.8915162433 69.0865525656 0.0
231 1 27.5148162433 68.2443525656 0.0
232 1 33.4236162433 70.5612525656 0.0
233 1 39.7062162433 67.9183525656 0.0
234 1 42.7135162433 67.6435525656 0.0
235 1 47.4850162433 67.6494525656 0.0
236 1 53.0077162433 67.7013525656 0.0
237 1 59.1162162433 67.5313525656 0.0
238 1 65.3922162433 66.0037525656 0.0
239 1 68.3992162433 66.0530525656 0.0
240 1 74.2043162433 66.4976525656 0.0
241 1 2.45918624329 71.3718525656 0.0
242 1 7.72796624329 71.3140525656 0.0
243 1 12.8570162433 72.3747525656 0.0
244 1 17.7216162433 72.2080525656 0.0
245 1 25.8076162433 72.4639525656 0.0
246 1 31.2770162433 72.7460525656 0.0
247 1 35.8228162433 74.4753525656 0.0
248 1 40.6789162433 73.6897525656 0.0
249 1 45.4012162433 72.5304525656 0.0
250 1 50.4054162433 71.8190525656 0.0
251 1 54.7011162433 70.1969525656 0.0
252 1 61.6293162433 72.1793525656 0.0
253 1 67.1677162433 70.5627525656 0.0
254 1 69.5951162433 68.8018525656 0.0
255 1 76.6703162433 73.0861525656 0.0
256 1 78.7802162433 2.34236256559 0.0
257 1 2.14241624329 2.60920256559 0.0
258 1 9.86816624329 2.77244256559 0.0
259 1 14.2303162433 4.00420256559 0.0
260 1 17.2053162433 3.65995256559 0.0
261 1 24.9013162433 2.61665256559 0.0
262 1 32.1283162433 5.18098256559 0.0
263 1 36.6597162433 4.30215256559 0.0
264 1 44.0553162433 5.79511256559 0.0
265 1 47.9619162433 3.71472256559 0.0
266 1 52.6767162433 2.44651256559 0.0
267 1 57.7821162433 2.48992256559 0.0
268 1 63.5158162433 2.08036256559 0.0
269 1 68.8716162433 2.31701256559 0.0
270 1 71.8640162433 2.19018256559 0.0
271 1 0.707362243294 7.00390256559 0.0
272 1 6.00380624329 6.65938256559 0.0
273 1 12.6270162433 9.68035256559 0.0
274 1 16.7634162433 7.71460256559 0.0
275 1 21.8428162433 7.18618256559 0.0
276 1 27.1901162433 6.71637256559 0.0
277 1 33.1531162433 8.03288256559 0.0
278 1 38.9103162433 8.16831256559 0.0
279 1 46.1436162433 7.96315256559 0.0
280 1 51.6324162433 7.78543256559 0.0
281 1 56.5713162433 5.27992256559 0.0
282 1 61.4425162433 7.88355256559 0.0
283 1 64.3852162433 7.36043256559 0.0
284 1 70.5097162433 7.16118256559 0.0
285 1 75.2724162433 6.59086256559 0.0
286 1 77.2233162433 11.3199525656 0.0
287 1 3.03687624329 11.1476525656 0.0
288 1 8.26586624329 11.1640525656 0.0
289 1 14.6314162433 11.9442525656 0.0
290 1 20.1918162433 9.71325256559 0.0
291 1 24.6428162433 11.4536525656 0.0
292 1 28.3133162433 12.4337525656 0.0
293 1 35.6013162433 12.1352525656 0.0
294 1 43.4643162433 13.1635525656 0.0
295 1 50.2494162433 13.5129525656 0.0
296 1 53.9480162433 12.8701525656 0.0
297 1 56.9090162433 13.1749525656 0.0
298 1 60.7747162433 12.7227525656 0.0
299 1 67.4069162433 12.5372525656 0.0
300 1 70.4213162433 12.5927525656 0.0
301 1 0.500993243294 15.4483525656 0.0
302 1 6.01533624329 15.2953525656 0.0
303 1 13.5376162433 17.3081525656 0.0
304 1 18.0894162433 16.0050525656 0.0
305 1 23.7176162433 16.2454525656 0.0
306 1 31.0767162433 13.5413525656 0.0
307 1 33.4879162433 16.9702525656 0.0
308 1 38.7924162433 15.7562525656 0.0
309 1 45.3490162433 15.5034525656 0.0
310 1 50.7929162433 16.5081525656 0.0
311 1 55.7430162433 18.0676525656 0.0
312 1 60.5739162433 17.4019525656 0.0
313 1 65.5329162433 14.9051525656 0.0
314 1 69.4437162433 17.3343525656 0.0
315 1 74.7131162433 15.8561525656 0.0
316 1 78.4368162433 19.9593525656 0.0
317 1 3.97560624329 19.7797525656 0.0
318 1 9.34773624329 19.3672525656 0.0
319 1 15.3049162433 19.7677525656 0.0
320 1 20.8309162433 20.4987525656 0.0
321 1 26.2777162433 20.4939525656 0.0
322 1 32.9423162433 22.3703525656 0.0
323 1 37.4429162433 20.0030525656 0.0
324 1 42.8257162433 19.5843525656 0.0
325 1 47.9489162433 20.4694525656 0.0
326 1 52.8733162433 21.8057525656 0.0
327 1 58.6793162433 22.1362525656 0.0
328 1 64.1508162433 19.8051525656 0.0
329 1 68.4671162433 22.1294525656 0.0
330 1 73.5627162433 20.8232525656 0.0
331 1 2.42902624329 24.0532525656 0.0
332 1 7.71892624329 24.0036525656 0.0
333 1 12.6309162433 24.0887525656 0.0
334 1 17.8855162433 24.4272525656 0.0
335 1 23.2709162433 25.1640525656 0.0
336 1 28.5063162433 24.6953525656 0.0
337 1 34.7761162433 24.7306525656 0.0
338 1 40.0037162433 23.9896525656 0.0
339 1 45.0241162433 24.4054525656 0.0
340 1 49.3991162433 26.0937525656 0.0
341 1 56.5019162433 27.3821525656 0.0
342 1 63.2411162433 27.9889525656 0.0
343 1 67.4276162433 26.7065525656 0.0
344 1 72.5411162433 25.8768525656 0.0
345 1 77.2513162433 24.9629525656 0.0
346 1 0.788383243294 29.1867525656 0.0
347 1 5.50724624329 28.3785525656 0.0
348 1 10.5866162433 28.8074525656 0.0
349 1 15.5302162433 28.8322525656 0.0
350 1 20.5984162433 29.2372525656 0.0
351 1 26.2718162433 29.3278525656 0.0
352 1 31.5998162433 28.9303525656 0.0
353 1 37.0338162433 29.0273525656 0.0
354 1 41.7879162433 27.9924525656 0.0
355 1 44.8469162433 30.3670525656 0.0
356 1 51.9818162433 30.0148525656 0.0
357 1 58.2597162433 29.8177525656 0.0
358 1 64.6505162433 30.6437525656 0.0
359 1 70.3461162433 30.5697525656 0.0
360 1 75.5683162433 30.0199525656 0.0
361 1 4.86495624329 31.3109525656 0.0
362 1 6.37517624329 35.0614525656 0.0
363 1 13.4559162433 33.2373525656 0.0
364 1 19.2115162433 31.9296525656 0.0
365 1 24.6050162433 34.1148525656 0.0
366 1 29.8724162433 33.2842525656 0.0
367 1 35.1174162433 33.3695525656 0.0
368 1 38.0361162433 34.1790525656 0.0
369 1 47.4970162433 31.7258525656 0.0
370 1 50.1440162433 35.0888525656 0.0
371 1 55.2285162433 33.9331525656 0.0
372 1 62.8833162433 35.9088525656 0.0
373 1 67.7026162433 34.5907525656 0.0
374 1 73.4175162433 34.4037525656 0.0
375 1 79.0286162433 33.6963525656 0.0
376 1 1.37271624329 38.3266525656 0.0
377 1 6.12410624329 39.0655525656 0.0
378 1 11.3384162433 37.9399525656 0.0
379 1 18.7051162433 38.8724525656 0.0
380 1 23.2694162433 38.5529525656 0.0
381 1 27.8798162433 39.0626525656 0.0
382 1 30.8580162433 38.7513525656 0.0
383 1 36.8764162433 38.0754525656 0.0
384 1 42.4096162433 38.0312525656 0.0
385 1 47.4237162433 39.5394525656 0.0
386 1 52.9781162433 38.8836525656 0.0
387 1 58.2059162433 37.6227525656 0.0
388 1 64.6679162433 38.3490525656 0.0
389 1 70.3688162433 38.7064525656 0.0
390 1 75.9625162433 38.2550525656 0.0
391 1 3.13014624329 43.4444525656 0.0
392 1 8.52426624329 43.0812525656 0.0
393 1 15.3158162433 41.6442525656 0.0
394 1 20.1082162433 41.5450525656 0.0
395 1 25.0703162433 43.8319525656 0.0
396 1 27.9643162433 44.6845525656 0.0
397 1 34.3713162433 43.3024525656 0.0
398 1 39.0141162433 42.3869525656 0.0
399 1 45.4078162433 44.7461525656 0.0
400 1 52.1101162433 44.4370525656 0.0
401 1 56.4964162433 42.4786525656 0.0
402 1 61.2985162433 42.2267525656 0.0
403 1 68.5200162433 44.0895525656 0.0
404 1 73.1387162433 42.7686525656 0.0
405 1 78.1707162433 42.9693525656 0.0
406 1 0.994718243294 47.6734525656 0.0
407 1 6.40380624329 47.7070525656 0.0
408 1 11.8932162433 45.8343525656 0.0
409 1 16.2691162433 44.5042525656 0.0
410 1 20.9280162433 46.9008525656 0.0
411 1 26.4469162433 48.1917525656 0.0
412 1 31.8413162433 49.1079525656 0.0
413 1 34.8810162433 49.0415525656 0.0
414 1 41.2324162433 46.5833525656 0.0
415 1 48.5385162433 48.0712525656 0.0
416 1 53.8218162433 46.8949525656 0.0
417 1 58.9474162433 47.1191525656 0.0
418 1 63.9562162433 46.5628525656 0.0
419 1 69.9903162433 46.7049525656 0.0
420 1 75.4428162433 47.2254525656 0.0
421 1 3.70775624329 52.0092525656 0.0
422 1 9.11829624329 52.0336525656 0.0
423 1 12.0986162433 51.5979525656 0.0
424 1 17.4619162433 51.1900525656 0.0
425 1 22.7009162433 51.3261525656 0.0
426 1 28.2960162433 52.6131525656 0.0
427 1 34.0282162433 53.4063525656 0.0
428 1 39.1892162433 53.1506525656 0.0
429 1 42.0717162433 52.0875525656 0.0
430 1 50.2926162433 50.5562525656 0.0
431 1 55.8104162433 51.3941525656 0.0
432 1 61.3048162433 51.2587525656 0.0
433 1 66.5816162433 50.8289525656 0.0
434 1 72.0910162433 50.9447525656 0.0
435 1 77.7463162433 51.4541525656 0.0
436 1 0.601598243294 55.6782525656 0.0
437 1 8.10095624329 57.7881525656 0.0
438 1 12.2455162433 54.5873525656 0.0
439 1 16.9706162433 56.6345525656 0.0
440 1 21.4495162433 54.0414525656 0.0
441 1 26.5874162433 55.0845525656 0.0
442 1 31.7054162433 57.6882525656 0.0
443 1 38.7071162433 59.1329525656 0.0
444 1 42.5574162433 56.4299525656 0.0
445 1 47.3495162433 54.9143525656 0.0
446 1 52.6763162433 55.2036525656 0.0
447 1 58.2329162433 55.9142525656 0.0
448 1 63.6068162433 55.2298525656 0.0
449 1 69.1138162433 54.8965525656 0.0
450 1 74.6417162433 55.3041525656 0.0
451 1 3.49876624329 60.0967525656 0.0
452 1 9.75364624329 60.3041525656 0.0
453 1 15.1848162433 61.3997525656 0.0
454 1 20.2809162433 60.7878525656 0.0
455 1 24.6292162433 60.7674525656 0.0
456 1 29.5763162433 61.8216525656 0.0
457 1 34.8934162433 62.0636525656 0.0
458 1 41.9488162433 62.1382525656 0.0
459 1 46.0407162433 60.0561525656 0.0
460 1 50.3944162433 59.8204525656 0.0
461 1 55.2395162433 60.1646525656 0.0
462 1 62.1920162433 60.9588525656 0.0
463 1 66.3422162433 58.9514525656 0.0
464 1 73.5150162433 60.7769525656 0.0
465 1 77.7293162433 59.6910525656 0.0
466 1 0.434155243294 64.1382525656 0.0
467 1 7.39837624329 65.5821525656 0.0
468 1 12.0373162433 64.6327525656 0.0
469 1 17.1832162433 66.5102525656 0.0
470 1 20.1830162433 66.5932525656 0.0
471 1 26.3406162433 65.4971525656 0.0
472 1 30.4236162433 67.4826525656 0.0
473 1 38.2839162433 65.1872525656 0.0
474 1 43.4680162433 64.7239525656 0.0
475 1 48.3959162433 64.7758525656 0.0
476 1 53.0843162433 64.6892525656 0.0
477 1 58.3399162433 64.5593525656 0.0
478 1 63.9524162433 63.3834525656 0.0
479 1 69.2548162433 63.1974525656 0.0
480 1 74.6334162433 63.5461525656 0.0
481 1 2.73379624329 68.3684525656 0.0
482 1 8.44612624329 68.3955525656 0.0
483 1 13.5617162433 69.4831525656 0.0
484 1 20.7080162433 71.8596525656 0.0
485 1 24.8610162433 69.6296525656 0.0
486 1 33.4330162433 67.5311525656 0.0
487 1 36.2885162433 71.5149525656 0.0
488 1 39.2611162433 70.9519525656 0.0
489 1 45.0950162433 69.5065525656 0.0
490 1 50.2326162433 68.8374525656 0.0
491 1 57.7019162433 70.2244525656 0.0
492 1 61.6586162433 69.1678525656 0.0
493 1 64.6508162433 68.9009525656 0.0
494 1 72.5841162433 69.0140525656 0.0
495 1 76.8081162433 67.9729525656 0.0
496 1 0.0392572432942 73.1824525656 0.0
497 1 5.11442624329 72.7878525656 0.0
498 1 10.0054362433 73.2758525656 0.0
499 1 15.3419162433 74.0491525656 0.0
500 1 23.0812162433 73.7056525656 0.0
501 1 28.4482162433 73.9004525656 0.0
502 1 32.9228162433 75.2660525656 0.0
503 1 38.5080162433 75.8104525656 0.0
504 1 43.5055162433 74.8830525656 0.0
505 1 48.1499162433 73.7794525656 0.0
506 1 53.2270162433 72.8239525656 0.0
507 1 58.7600162433 73.0757525656 0.0
508 1 64.1484162433 73.8381525656 0.0
509 1 67.1638162433 73.5621525656 0.0
510 1 75.1908162433 70.4869525656 0.0
511 1 5.67180624329 75.7457525656 0.0
512 1 10.6908162433 76.1964525656 0.0
513 1 15.0866162433 79.1978525656 0.0
514 1 23.8512162433 76.5981525656 0.0
515 1 26.9258162433 76.5421525656 0.0
516 1 32.0682162433 78.1516525656 0.0
517 1 37.7266162433 78.7306525656 0.0
518 1 45.0947162433 77.5248525656 0.0
519 1 49.9393162433 76.2091525656 0.0
520 1 52.9518162433 75.8231525656 0.0
521 1 58.2371162433 76.0752525656 0.0
522 1 63.5418162433 76.7731525656 0.0
523 1 69.0878162433 75.9041525656 0.0
524 1 74.8626162433 75.4910525656 0.0
525 1 0.563413243294 76.1470525656 0.0
526 1 3.25217624329 77.5211525656 0.0
527 1 8.04393624329 77.6069525656 0.0
528 1 13.6855162433 76.5514525656 0.0
529 1 18.1133162433 78.5754525656 0.0
530 1 21.1225162433 77.9537525656 0.0
531 1 29.0694162433 78.6945525656 0.0
532 1 34.7692162433 79.5491525656 0.0
533 1 40.3645162433 0.601702565588 0.0
534 1 43.3947162433 0.394982565588 0.0
535 1 48.0087162433 78.5226525656 0.0
536 1 55.5164162433 77.4382525656 0.0
537 1 60.7042162433 77.8605525656 0.0
538 1 66.4901162433 77.4716525656 0.0
539 1 72.0677162433 76.6723525656 0.0
540 1 77.3796162433 77.1562525656 0.0
541 2 3.29173624329 1.63617256559 0.0
542 2 3.80629624329 78.9203525656 0.0
543 2 5.93255624329 0.913932565588 0.0
544 2 7.80897624329 79.0878525656 0.0
545 2 8.62555624329 1.88219256559 0.0
546 2 13.8560162433 0.501912565588 0.0
547 2 13.4043162433 2.77628256559 0.0
548 2 11.2132162433 2.03317256559 0.0
549 2 18.2530162433 2.60148256559 0.0
550 2 18.7078162433 0.308462565588 0.0
551 2 20.8838162433 1.61526256559 0.0
552 2 21.8062162433 79.3107525656 0.0
553 2 23.6317162433 1.79260256559 0.0
554 2 28.4679162433 0.452382565588 0.0
555 2 28.5831162433 3.11205256559 0.0
556 2 26.3288162433 2.12808256559 0.0
557 2 34.3532162433 1.37118256559 0.0
558 2 35.3935162433 3.51554256559 0.0
559 2 33.0207162433 3.95570256559 0.0
560 2 39.9942162433 2.06691256559 0.0
561 2 40.3701162433 4.74991256559 0.0
562 2 38.0826162433 3.83661256559 0.0
563 2 44.2223162433 1.67564256559 0.0
564 2 46.5191162433 3.26081256559 0.0
565 2 44.4742162433 4.35226256559 0.0
566 2 48.9098162433 0.126092565588 0.0
567 2 51.2796162433 1.82785256559 0.0
568 2 48.9231162433 2.56245256559 0.0
569 2 55.3754162433 78.9466525656 0.0
570 2 56.5460162433 1.60623256559 0.0
571 2 53.9325162433 1.58089256559 0.0
572 2 60.6002162433 79.3738525656 0.0
573 2 62.0380162433 1.73935256559 0.0
574 2 59.2108162433 1.93723256559 0.0
575 2 66.4460162433 78.9701525656 0.0
576 2 67.5820162433 1.54190256559 0.0
577 2 64.8460162433 1.33381256559 0.0
578 2 72.7349162433 78.0453525656 0.0
579 2 72.6918162433 0.949452565588 0.0
580 2 74.9918162433 0.103042565588 0.0
581 2 77.0314162433 78.6096525656 0.0
582 2 77.6213162433 1.37062256559 0.0
583 2 79.1400162433 6.13270256559 0.0
584 2 78.2935162433 3.76980256559 0.0
585 2 76.5979162433 5.88798256559 0.0
586 2 2.74045624329 3.99553256559 0.0
587 2 4.65807624329 5.96268256559 0.0
588 2 2.02920624329 6.29061256559 0.0
589 2 9.43447624329 4.26068256559 0.0
590 2 9.45541624329 7.10367256559 0.0
591 2 7.39116624329 6.06350256559 0.0
592 2 13.8583162433 5.45875256559 0.0
593 2 15.3478162433 7.27267256559 0.0
594 2 13.2254162433 8.29470256559 0.0
595 2 18.2200162433 4.75844256559 0.0
596 2 18.0145162433 6.91069256559 0.0
597 2 20.5579162433 6.38366256559 0.0
598 2 23.1441162433 6.42909256559 0.0
599 2 25.7746162433 6.20981256559 0.0
600 2 24.5955162433 4.09584256559 0.0
601 2 30.6624162433 4.82766256559 0.0
602 2 28.2441162433 5.65116256559 0.0
603 2 34.6401162433 7.72679256559 0.0
604 2 37.4643162433 7.75812256559 0.0
605 2 36.3271162433 5.76010256559 0.0
606 2 42.5665162433 6.02774256559 0.0
607 2 40.0639162433 7.20688256559 0.0
608 2 50.2206162433 7.21520256559 0.0
609 2 48.4510162433 5.14575256559 0.0
610 2 47.5371162433 7.39041256559 0.0
611 2 53.0241162433 3.93607256559 0.0
612 2 52.6362162433 6.62788256559 0.0
613 2 55.0555162433 5.40197256559 0.0
614 2 57.4870162433 6.50431256559 0.0
615 2 59.9678162433 7.60209256559 0.0
616 2 58.3654162433 9.19305256559 0.0
617 2 64.7846162433 5.93674256559 0.0
618 2 64.2989162433 3.38516256559 0.0
619 2 66.7312162433 4.90310256559 0.0
620 2 68.6274162433 3.79401256559 0.0
621 2 69.2315162433 6.33922256559 0.0
622 2 72.3570162433 3.61499256559 0.0
623 2 74.0234162433 5.75683256559 0.0
624 2 71.5991162433 6.12122256559 0.0
625 2 0.463603243294 8.48277256559 0.0
626 2 1.64100624329 10.5923525656 0.0
627 2 78.5765162433 10.6450525656 0.0
628 2 5.82631624329 8.16342256559 0.0
629 2 6.89573624329 10.5173525656 0.0
630 2 4.32270624329 10.3674525656 0.0
631 2 11.2119162433 9.18235256559 0.0
632 2 9.06080624329 9.88215256559 0.0
633 2 16.0395162433 11.3901525656 0.0
634 2 18.7917162433 10.2703525656 0.0
635 2 16.9599162433 9.18085256559 0.0
636 2 23.1869162433 11.7550525656 0.0
637 2 20.9617162433 10.9888525656 0.0
638 2 21.2791162433 13.6313525656 0.0
639 2 27.2385162433 8.22497256559 0.0
640 2 27.8735162433 10.9888525656 0.0
641 2 25.7185162433 10.4081525656 0.0
642 2 34.2338162433 11.5359525656 0.0
643 2 32.8192162433 9.51695256559 0.0
644 2 31.9612162433 12.3027525656 0.0
645 2 38.7850162433 9.66235256559 0.0
646 2 39.5076162433 12.1411525656 0.0
647 2 36.9856162433 11.5531525656 0.0
648 2 45.7494162433 9.42195256559 0.0
649 2 46.4813162433 11.9536525656 0.0
650 2 44.2767162433 11.8876525656 0.0
651 2 51.6981162433 9.32345256559 0.0
652 2 52.9688162433 11.7392525656 0.0
653 2 50.9029162433 12.1403525656 0.0
654 2 57.6036162433 11.8579525656 0.0
655 2 59.6602162433 11.7241525656 0.0
656 2 61.8886162433 11.7217525656 0.0
657 2 61.9930162433 9.28835256559 0.0
658 2 64.2806162433 10.4615525656 0.0
659 2 65.2774162433 8.58860256559 0.0
660 2 66.6756162433 11.2080525656 0.0
661 2 71.1035162433 11.2478525656 0.0
662 2 71.0348162433 8.57857256559 0.0
663 2 73.2874162433 9.81725256559 0.0
664 2 75.0745162433 8.07989256559 0.0
665 2 75.9634162433 10.4870525656 0.0
666 2 77.2529162433 12.8239525656 0.0
667 2 78.7395162433 14.9096525656 0.0
668 2 75.9970162433 15.0449525656 0.0
669 2 3.14719624329 12.6436525656 0.0
670 2 4.61498624329 14.7328525656 0.0
671 2 1.85167624329 14.7659525656 0.0
672 2 8.65345624329 12.6333525656 0.0
673 2 9.79656624329 15.3168525656 0.0
674 2 7.38165624329 14.6650525656 0.0
675 2 14.8559162433 13.4379525656 0.0
676 2 16.7409162433 15.3451525656 0.0
677 2 14.3859162433 16.0616525656 0.0
678 2 22.3034162433 15.7325525656 0.0
679 2 19.5067162433 15.5011525656 0.0
680 2 25.2067162433 12.8411525656 0.0
681 2 27.2394162433 13.5017525656 0.0
682 2 24.9064162433 15.3139525656 0.0
683 2 30.7537162433 15.0255525656 0.0
684 2 32.0110162433 16.7976525656 0.0
685 2 29.6727162433 17.8118525656 0.0
686 2 35.6726162433 13.6371525656 0.0
687 2 37.3080162433 15.5195525656 0.0
688 2 34.6456162433 16.0101525656 0.0
689 2 41.9669162433 13.2030525656 0.0
690 2 39.6851162433 14.5546525656 0.0
691 2 48.7620162433 13.3239525656 0.0
692 2 46.4449162433 14.4695525656 0.0
693 2 53.7644162433 14.3693525656 0.0
694 2 54.6588162433 17.0217525656 0.0
695 2 52.2703162433 16.2647525656 0.0
696 2 57.4878162433 14.5711525656 0.0
697 2 59.2595162433 16.6794525656 0.0
698 2 56.8872162433 17.0947525656 0.0
699 2 61.5606162433 13.9973525656 0.0
700 2 64.0246162433 14.9759525656 0.0
701 2 61.6687162433 16.3731525656 0.0
702 2 65.9890162433 16.3326525656 0.0
703 2 67.9455162433 17.5795525656 0.0
704 2 65.2806162433 18.7723525656 0.0
705 2 71.1276162433 13.9212525656 0.0
706 2 73.2220162433 15.5566525656 0.0
707 2 70.5585162433 16.3013525656 0.0
708 2 2.64167624329 19.0716525656 0.0
709 2 0.903540243294 16.9030525656 0.0
710 2 0.0456122432942 19.1535525656 0.0
711 2 6.26935624329 16.7769525656 0.0
712 2 7.90543624329 18.9025525656 0.0
713 2 5.25274624329 18.9933525656 0.0
714 2 12.0808162433 16.9269525656 0.0
715 2 10.0176562433 18.0143525656 0.0
716 2 16.7763162433 19.4327525656 0.0
717 2 19.5187162433 19.7558525656 0.0
718 2 18.1836162433 17.5019525656 0.0
719 2 23.6808162433 17.7375525656 0.0
720 2 22.1952162433 19.8608525656 0.0
721 2 24.9190162433 19.8542525656 0.0
722 2 29.5621162433 20.6027525656 0.0
723 2 27.5681162433 19.7122525656 0.0
724 2 33.9256162433 18.3979525656 0.0
725 2 35.9620162433 19.7628525656 0.0
726 2 33.6949162433 21.0694525656 0.0
727 2 39.4773162433 17.0858525656 0.0
728 2 41.4473162433 18.9679525656 0.0
729 2 38.7509162433 19.2829525656 0.0
730 2 45.5347162433 16.9948525656 0.0
731 2 46.7998162433 19.4730525656 0.0
732 2 44.2186162433 19.0306525656 0.0
733 2 50.7325162433 18.0273525656 0.0
734 2 51.8699162433 20.6544525656 0.0
735 2 49.3776162433 20.0086525656 0.0
736 2 55.7931162433 19.5620525656 0.0
737 2 57.2407162433 21.6293525656 0.0
738 2 54.3696162433 21.5198525656 0.0
739 2 60.7805162433 18.8782525656 0.0
740 2 62.6608162433 20.1168525656 0.0
741 2 59.9606162433 21.3016525656 0.0
742 2 64.7787162433 21.1753525656 0.0
743 2 66.9755162433 22.2597525656 0.0
744 2 64.9522162433 23.9002525656 0.0
745 2 70.1018162433 18.6887525656 0.0
746 2 72.1053162433 20.4549525656 0.0
747 2 69.5247162433 21.0707525656 0.0
748 2 75.2000162433 17.2900525656 0.0
749 2 77.0785162433 19.3122525656 0.0
750 2 74.6165162433 19.7579525656 0.0
751 2 78.8574162433 21.4073525656 0.0
752 2 1.08717224329 23.3842525656 0.0
753 2 78.3198162433 23.9153525656 0.0
754 2 4.50880624329 21.1877525656 0.0
755 2 3.75055624329 23.3603525656 0.0
756 2 6.38205624329 23.2915525656 0.0
757 2 9.85172624329 20.7983525656 0.0
758 2 8.94739624329 23.1358525656 0.0
759 2 11.4305162433 23.1598525656 0.0
760 2 15.2610162433 21.2758525656 0.0
761 2 16.6213162433 23.5989525656 0.0
762 2 13.9874162433 23.4305525656 0.0
763 2 20.8208162433 21.9988525656 0.0
764 2 21.9864162433 24.3651525656 0.0
765 2 19.3123162433 23.9401525656 0.0
766 2 26.0219162433 21.9833525656 0.0
767 2 27.0934162433 24.1777525656 0.0
768 2 24.5131162433 24.3014525656 0.0
769 2 31.4596162433 22.2460525656 0.0
770 2 29.2886162433 23.4012525656 0.0
771 2 37.3313162433 21.4953525656 0.0
772 2 38.6272162433 23.4209525656 0.0
773 2 36.0468162433 23.9240525656 0.0
774 2 42.7453162433 21.0867525656 0.0
775 2 43.8425162433 23.4847525656 0.0
776 2 41.3205162433 23.2867525656 0.0
777 2 47.9354162433 21.9820525656 0.0
778 2 48.5994162433 24.8043525656 0.0
779 2 46.4185162433 23.8929525656 0.0
780 2 52.4800162433 23.2824525656 0.0
781 2 52.9011162433 26.0404525656 0.0
782 2 50.7470162433 25.4070525656 0.0
783 2 58.6508162433 23.6605525656 0.0
784 2 59.5694162433 26.2736525656 0.0
785 2 57.3761162433 26.1482525656 0.0
786 2 66.1031162433 26.0281525656 0.0