ITEM: TIMESTEP
0
ITEM: NUMBER OF ATOMS
2232
ITEM: BOX BOUNDS xy xz yz pp pp pp
0.0 82.68810555352132 0
0.0 83.16 0
-10.0 10.0 0
ITEM: ATOMS id type x y z vx vy vz
1 1 1.615232786885246 0.8668584262295084 1.9266556356e-06 0.0 0.0 0.0
2 1 4.239059540983607 0.7831632131147541 8.79925633693e-05 0.0 0.0 0.0
3 1 6.8010944262295085 0.7112578360655738 7.57777333915e-05 0.0 0.0 0.0
4 1 9.297964590163936 0.8601480655737707 7.11757700049e-05 0.0 0.0 0.0
5 1 11.836339016393444 1.3924124590163935 9.28304222002e-05 0.0 0.0 0.0
6 1 14.363403278688526 0.8544929836065575 8.14525771734e-05 0.0 0.0 0.0
7 1 17.04406360655738 0.5218630819672132 1.5864760689e-05 0.0 0.0 0.0
8 1 19.806470163934428 0.5866188196721313 5.84073211209e-05 0.0 0.0 0.0
9 1 22.533986885245902 0.7990782295081967 8.46235992308e-06 0.0 0.0 0.0
10 1 25.283720000000002 0.6386304262295083 3.72318318603e-05 0.0 0.0 0.0
11 1 27.50647016393443 1.9780113442622953 4.44571419248e-05 0.0 0.0 0.0
12 1 30.309169180327874 1.0491792786885248 4.76914895852e-05 0.0 0.0 0.0
13 1 33.02254819672131 1.4446916721311478 7.60416780267e-05 0.0 0.0 0.0
14 1 35.734462950819676 0.9399806557377051 8.03437948957e-05 0.0 0.0 0.0
15 1 38.42350491803279 0.8058390819672132 5.55730686627e-05 0.0 0.0 0.0
16 1 40.999596721311484 0.8921548196721312 2.23332986109e-05 0.0 0.0 0.0
17 1 43.65677836065574 0.8018098360655739 6.95489755146e-05 0.0 0.0 0.0
18 1 46.46018426229509 0.598141049180328 7.96096977311e-05 0.0 0.0 0.0
19 1 49.13731016393444 0.4100489836065574 8.26099377383e-05 0.0 0.0 0.0
20 1 51.72380327868853 0.23271470163934427 8.42925268571e-05 0.0 0.0 0.0
21 1 54.414511475409846 0.5718954098360656 6.05454951589e-05 0.0 0.0 0.0
22 1 57.03705573770492 0.767884393442623 9.34182221582e-06 0.0 0.0 0.0
23 1 59.64899672131148 0.741552918032787 9.25949794087e-05 0.0 0.0 0.0
24 1 62.468963934426235 0.7657990819672132 4.87862150389e-05 0.0 0.0 0.0
25 1 65.2424786885246 0.7729335737704919 5.45390738197e-05 0.0 0.0 0.0
26 1 67.78423606557378 0.627441442622951 5.62740925911e-05 0.0 0.0 0.0
27 1 70.50473442622952 0.5416407213114754 9.48215421166e-05 0.0 0.0 0.0
28 1 73.51000655737705 0.9010666229508197 2.6842446381e-05 0.0 0.0 0.0
29 1 76.21687213114755 0.8207947540983607 5.4771005368e-05 0.0 0.0 0.0
30 1 78.89394754098362 0.9054543606557377 6.83743678767e-05 0.0 0.0 0.0
31 1 81.6124262295082 0.9237879344262296 7.39801541783e-05 0.0 0.0 0.0
32 1 0.25907041311475415 3.1878555409836067 2.95153037183e-05 0.0 0.0 0.0
33 1 2.91107462295082 3.17941331147541 8.47103607375e-05 0.0 0.0 0.0
34 1 5.492902295081968 3.1554044590163937 6.85906649635e-05 0.0 0.0 0.0
35 1 8.050615081967214 3.221649704918033 3.78670425593e-06 0.0 0.0 0.0
36 1 10.66301049180328 3.433634491803279 4.20059975626e-05 0.0 0.0 0.0
37 1 13.4342531147541 3.4304686557377053 9.9066432842e-05 0.0 0.0 0.0
38 1 16.042861639344263 2.876831081967213 2.6251710513e-05 0.0 0.0 0.0
39 1 18.356951475409836 3.753308196721312 4.95576160963e-05 0.0 0.0 0.0
40 1 21.22816786885246 3.039091540983607 5.15857122556e-05 0.0 0.0 0.0
41 1 23.99138229508197 3.0729109508196726 1.40506621753e-05 0.0 0.0 0.0
42 1 26.73207737704918 3.330732196721312 6.79938673468e-05 0.0 0.0 0.0
43 1 29.209710163934428 3.5233735737704923 2.22119925331e-05 0.0 0.0 0.0
44 1 31.768533770491807 3.4845302295081972 6.24333507329e-05 0.0 0.0 0.0
45 1 34.436672131147546 3.411519081967213 1.5197050631e-05 0.0 0.0 0.0
46 1 37.015641967213114 3.16664393442623 2.25927980974e-05 0.0 0.0 0.0
47 1 39.66524983606558 3.2911668196721315 5.36896298829e-05 0.0 0.0 0.0
48 1 42.62952262295082 3.1824074754098364 1.23055499114e-06 0.0 0.0 0.0
49 1 45.36006885245902 2.8439104262295083 8.0898169102e-05 0.0 0.0 0.0
50 1 48.14403540983607 2.7556204590163937 9.59451237285e-05 0.0 0.0 0.0
51 1 50.96036721311476 2.582322491803279 7.46284632567e-05 0.0 0.0 0.0
52 1 53.90555409836066 3.273595672131148 2.99635092771e-05 0.0 0.0 0.0
53 1 55.46474098360657 2.9992383606557382 3.9683357203e-05 0.0 0.0 0.0
54 1 58.34125901639345 3.1234986885245903 7.33543602983e-05 0.0 0.0 0.0
55 1 61.0764 2.8970480000000003 4.30554160802e-05 0.0 0.0 0.0
56 1 63.8600131147541 2.977259278688525 6.6105301409e-05 0.0 0.0 0.0
57 1 66.57697704918033 3.1205600655737706 1.15173968679e-05 0.0 0.0 0.0
58 1 69.91145573770493 2.6086388196721315 6.22640645929e-05 0.0 0.0 0.0
59 1 71.24898360655739 1.8745940327868855 6.06520446102e-06 0.0 0.0 0.0
60 1 74.81320000000001 3.1060184262295087 6.19216839702e-05 0.0 0.0 0.0
61 1 77.48573114754099 3.157525114754099 9.44417538082e-05 0.0 0.0 0.0
62 1 80.21935737704919 3.179044721311476 3.48151509583e-06 0.0 0.0 0.0
63 1 1.5960913442622953 5.515320655737705 8.41138165247e-05 0.0 0.0 0.0
64 1 4.198438885245902 5.559652459016394 3.60397862993e-05 0.0 0.0 0.0
65 1 6.7819580327868865 5.590704918032787 2.29881297601e-06 0.0 0.0 0.0
66 1 9.427678032786886 5.658767868852459 1.2085196956e-05 0.0 0.0 0.0
67 1 12.17529049180328 5.630946885245902 7.81726221057e-05 0.0 0.0 0.0
68 1 14.969557377049183 5.445490491803279 3.23446587831e-05 0.0 0.0 0.0
69 1 17.719795409836067 5.147285901639345 8.2618214699e-05 0.0 0.0 0.0
70 1 19.940172459016395 6.57236655737705 2.39404261889e-05 0.0 0.0 0.0
71 1 22.68364459016394 5.367278688524591 5.26803554058e-05 0.0 0.0 0.0
72 1 25.340220327868852 5.529155409836066 9.26832232292e-05 0.0 0.0 0.0
73 1 27.920300983606563 5.868914754098361 8.1780400177e-05 0.0 0.0 0.0
74 1 30.539664262295087 5.888808524590165 7.70705525181e-05 0.0 0.0 0.0
75 1 33.189474098360655 5.7606603278688535 1.04977258053e-05 0.0 0.0 0.0
76 1 35.85291672131148 5.649325901639345 1.90303168868e-05 0.0 0.0 0.0
77 1 38.39866295081968 5.523146885245903 7.70347037407e-06 0.0 0.0 0.0
78 1 40.4228793442623 4.652547016393443 5.8403679141e-05 0.0 0.0 0.0
79 1 44.10817508196722 5.214288524590164 2.33191801096e-05 0.0 0.0 0.0
80 1 46.71557180327869 4.989024393442624 4.77282026897e-05 0.0 0.0 0.0
81 1 49.434454426229514 4.849702360655738 7.38254870817e-05 0.0 0.0 0.0
82 1 52.03028852459017 5.589240655737705 6.59003594169e-05 0.0 0.0 0.0
83 1 54.306963934426236 5.767224262295083 9.77748525423e-05 0.0 0.0 0.0
84 1 57.10017049180328 5.23216262295082 1.93482518548e-05 0.0 0.0 0.0
85 1 60.62752786885246 5.035719213114755 1.75392528601e-05 0.0 0.0 0.0
86 1 62.17964590163935 5.092199344262296 2.2367814229e-05 0.0 0.0 0.0
87 1 64.86025573770492 5.297297049180329 8.19310072827e-05 0.0 0.0 0.0
88 1 67.6095344262295 5.513856393442623 1.12530688436e-05 0.0 0.0 0.0
89 1 70.30832131147542 5.320573770491803 2.90315959957e-05 0.0 0.0 0.0
90 1 73.16413770491803 5.208784918032788 9.90643811294e-05 0.0 0.0 0.0
91 1 75.94522622950821 5.4175180327868855 9.63897950709e-05 0.0 0.0 0.0
92 1 78.77226229508197 5.414993442622952 8.09790529603e-05 0.0 0.0 0.0
93 1 81.58314098360657 5.440087868852459 9.03340549197e-05 0.0 0.0 0.0
94 1 0.2854099672131148 7.76240786885246 8.67864818083e-05 0.0 0.0 0.0
95 1 2.9085752786885246 7.9175186885245905 5.49638088609e-05 0.0 0.0 0.0
96 1 5.491438032786886 7.967657049180328 8.38825789232e-05 0.0 0.0 0.0
97 1 8.14124786885246 7.955438032786886 9.34238073423e-06 0.0 0.0 0.0
98 1 10.85164786885246 7.883436721311477 4.70832481806e-05 0.0 0.0 0.0
99 1 13.556089836065574 7.734031475409837 1.06724577626e-05 0.0 0.0 0.0
100 1 16.266994754098363 7.54680786885246 7.27386974976e-05 0.0 0.0 0.0
101 1 18.98097967213115 7.772607213114755 5.37007516982e-05 0.0 0.0 0.0
102 1 21.36712131147541 7.826179016393444 2.80463798166e-05 0.0 0.0 0.0
103 1 23.88509704918033 7.807295081967214 9.74012684839e-05 0.0 0.0 0.0
104 1 26.82690098360656 8.08464655737705 1.03599409058e-05 0.0 0.0 0.0
105 1 29.34240262295082 8.237788196721313 2.37844268402e-05 0.0 0.0 0.0
106 1 31.96848131147541 8.149377049180329 7.60944612504e-06 0.0 0.0 0.0
107 1 34.71180196721312 8.00416262295082 1.09869963639e-06 0.0 0.0 0.0
108 1 37.41760721311476 7.960487213114755 3.20470655332e-05 0.0 0.0 0.0
109 1 40.04373639344263 7.646175737704919 2.26408124294e-05 0.0 0.0 0.0
110 1 42.6165462295082 7.460012459016394 4.994363917e-05 0.0 0.0 0.0
111 1 45.42934360655738 7.429464918032788 8.46353204559e-05 0.0 0.0 0.0
112 1 48.12479803278689 7.1496898360655745 3.82450322767e-05 0.0 0.0 0.0
113 1 50.27549639344263 8.60632786885246 1.55796715722e-05 0.0 0.0 0.0
114 1 53.195639344262304 8.189669508196722 6.73479248694e-05 0.0 0.0 0.0
115 1 55.873724590163945 7.589624918032787 7.53569438753e-05 0.0 0.0 0.0
116 1 58.368019672131155 8.617688524590164 2.6051311902e-05 0.0 0.0 0.0
117 1 60.87443278688525 7.552412459016395 7.28557656319e-05 0.0 0.0 0.0
118 1 63.48536393442623 7.526611147540984 5.25517411831e-05 0.0 0.0 0.0
119 1 66.1624393442623 7.621788196721313 1.21717604269e-06 0.0 0.0 0.0
120 1 69.03188852459017 7.672986885245902 4.04825405814e-05 0.0 0.0 0.0
121 1 71.83216393442623 7.488388852459017 7.16181853893e-05 0.0 0.0 0.0
122 1 74.56982950819673 7.568317377049182 7.07978046864e-05 0.0 0.0 0.0
123 1 77.36202622950822 7.5840708196721325 8.68974728599e-05 0.0 0.0 0.0
124 1 80.23400000000001 7.597400655737705 1.68938429594e-05 0.0 0.0 0.0
125 1 1.5462710819672132 10.200152131147542 6.34631124123e-05 0.0 0.0 0.0
126 1 4.200928131147541 10.348900983606558 6.1562009965e-06 0.0 0.0 0.0
127 1 6.854767213114755 10.302145573770494 4.6384042544e-05 0.0 0.0 0.0
128 1 9.589150819672131 10.195506885245901 2.6806526938e-05 0.0 0.0 0.0
129 1 12.21144262295082 10.089827540983608 2.84057125608e-05 0.0 0.0 0.0
130 1 14.805307540983607 9.907703606557378 7.92577222588e-05 0.0 0.0 0.0
131 1 17.482837377049183 9.912954754098362 3.12777999847e-05 0.0 0.0 0.0
132 1 20.09710098360656 10.258419672131149 5.30851020636e-05 0.0 0.0 0.0
133 1 22.43138754098361 10.165716721311478 9.70665399603e-05 0.0 0.0 0.0
134 1 24.460451147540986 9.23772786885246 5.59549982427e-05 0.0 0.0 0.0
135 1 27.772662950819676 10.582072131147541 9.90300010187e-05 0.0 0.0 0.0
136 1 30.796869508196725 10.54511213114754 2.34390887147e-05 0.0 0.0 0.0
137 1 33.539230819672134 10.299469508196722 5.54950409106e-05 0.0 0.0 0.0
138 1 36.158139672131156 10.262257049180329 7.64101015402e-05 0.0 0.0 0.0
139 1 38.88101114754099 10.173441967213117 5.57476913967e-05 0.0 0.0 0.0
140 1 41.442763278688524 10.010504918032789 2.61845345656e-05 0.0 0.0 0.0
141 1 44.06995278688525 9.628281967213114 8.97911128369e-05 0.0 0.0 0.0
142 1 46.77944393442623 9.573902295081968 4.76051933846e-05 0.0 0.0 0.0
143 1 49.41592393442624 9.879933114754099 9.20544719505e-05 0.0 0.0 0.0
144 1 51.99494426229509 10.323604590163937 4.38347300973e-05 0.0 0.0 0.0
145 1 54.6472786885246 10.11315475409836 3.55099124419e-05 0.0 0.0 0.0
146 1 58.446281967213125 10.12623213114754 7.90049218824e-05 0.0 0.0 0.0
147 1 59.96103606557378 10.204292459016395 3.02782942196e-05 0.0 0.0 0.0
148 1 62.39019672131148 9.937190819672132 7.68936452793e-05 0.0 0.0 0.0
149 1 64.81127868852461 9.891798688524592 5.62557051256e-05 0.0 0.0 0.0
150 1 67.45805901639345 9.73946491803279 1.65031953917e-05 0.0 0.0 0.0
151 1 70.17350819672131 9.754965901639345 6.9406657181e-05 0.0 0.0 0.0
152 1 73.27673442622952 9.826664262295083 2.91578348336e-05 0.0 0.0 0.0
153 1 76.31735081967214 9.767639344262296 1.33041803202e-05 0.0 0.0 0.0
154 1 79.04289836065574 9.664989508196722 3.2398865136e-06 0.0 0.0 0.0
155 1 81.68059016393444 9.913308196721314 6.58174385152e-05 0.0 0.0 0.0
156 1 82.60055081967215 12.428860327868854 2.28207690256e-05 0.0 0.0 0.0
157 1 2.5760716065573774 12.597805901639346 8.85532803657e-05 0.0 0.0 0.0
158 1 5.775151475409836 12.667131147540983 7.57280305984e-06 0.0 0.0 0.0
159 1 8.47848262295082 12.485562622950821 3.70063847639e-05 0.0 0.0 0.0
160 1 11.036245901639345 12.495004590163935 2.43162659875e-05 0.0 0.0 0.0
161 1 13.524986885245903 12.364988196721313 8.11895719719e-05 0.0 0.0 0.0
162 1 16.070935081967214 12.187358032786886 3.68733160533e-05 0.0 0.0 0.0
163 1 18.948816393442627 12.36357442622951 6.20640079062e-05 0.0 0.0 0.0
164 1 21.488402622950822 12.708130491803281 4.12218972548e-05 0.0 0.0 0.0
165 1 23.93372065573771 12.205585573770493 3.81218029179e-05 0.0 0.0 0.0
166 1 26.09507278688525 13.584466229508198 1.34935238509e-05 0.0 0.0 0.0
167 1 28.40663803278689 11.988066885245903 3.45000068555e-05 0.0 0.0 0.0
168 1 32.25320459016394 12.61653836065574 6.2345419553e-05 0.0 0.0 0.0
169 1 34.76118295081968 12.628706885245903 6.83443110038e-05 0.0 0.0 0.0
170 1 37.32308655737705 12.482836065573771 1.55219848648e-05 0.0 0.0 0.0
171 1 40.00950295081967 12.560744918032787 4.37280551674e-05 0.0 0.0 0.0
172 1 43.680610491803286 11.943230163934428 6.00680813029e-05 0.0 0.0 0.0
173 1 45.21944918032788 11.844013770491804 2.61553825588e-05 0.0 0.0 0.0
174 1 47.728235409836074 12.021088524590166 8.38603281208e-05 0.0 0.0 0.0
175 1 50.4075324590164 12.376399344262296 9.87865332362e-05 0.0 0.0 0.0
176 1 53.195134426229515 12.485411147540985 5.68049509554e-05 0.0 0.0 0.0
177 1 55.54148852459017 12.60497573770492 8.35118549984e-05 0.0 0.0 0.0
178 1 58.12666885245902 12.43052655737705 2.75577351478e-05 0.0 0.0 0.0
179 1 60.998137704918044 12.50212393442623 8.90380132256e-05 0.0 0.0 0.0
180 1 63.809016393442626 12.43168786885246 6.59652081354e-05 0.0 0.0 0.0
181 1 66.37097049180329 12.105662295081968 2.52299364032e-06 0.0 0.0 0.0
182 1 68.88697704918033 11.967920655737705 2.06244533315e-05 0.0 0.0 0.0
183 1 70.90059016393442 11.099259672131147 8.60204149411e-05 0.0 0.0 0.0
184 1 74.23102950819673 11.022158688524591 3.64125438106e-05 0.0 0.0 0.0
185 1 77.73869508196722 11.914853770491804 5.5709417185e-05 0.0 0.0 0.0
186 1 80.26076065573771 12.076730491803279 7.16001027816e-06 0.0 0.0 0.0
187 1 1.077585967213115 14.80288393442623 8.08045424742e-05 0.0 0.0 0.0
188 1 3.4894531803278688 13.834350163934428 7.05656825033e-05 0.0 0.0 0.0
189 1 7.263649836065574 14.814547540983607 9.93246246698e-05 0.0 0.0 0.0
190 1 9.83797442622951 14.887205245901642 2.58675274952e-06 0.0 0.0 0.0
191 1 12.43052655737705 14.882812459016394 7.55058150961e-05 0.0 0.0 0.0
192 1 14.835956065573772 14.66741442622951 7.13439742359e-05 0.0 0.0 0.0
193 1 17.555848524590164 14.28206098360656 8.97744159647e-05 0.0 0.0 0.0
194 1 20.108815081967215 14.927901639344265 5.81099400662e-05 0.0 0.0 0.0
195 1 22.79447409836066 14.931688524590166 3.66403956537e-05 0.0 0.0 0.0
196 1 25.481950819672136 15.009849836065575 1.77621706636e-05 0.0 0.0 0.0
197 1 27.946304262295083 14.825453770491805 2.59467504624e-05 0.0 0.0 0.0
198 1 30.649786885245906 14.618285901639345 8.0168375591e-05 0.0 0.0 0.0
199 1 33.279248524590166 15.035954098360657 5.03802768192e-05 0.0 0.0 0.0
200 1 35.92648327868852 14.943251147540986 7.82689041879e-05 0.0 0.0 0.0
201 1 38.54655344262296 14.795411147540985 6.13034927073e-05 0.0 0.0 0.0
202 1 40.60949704918033 14.002790819672134 7.76089697887e-05 0.0 0.0 0.0
203 1 44.07161901639345 14.777638032786886 9.72000395202e-05 0.0 0.0 0.0
204 1 46.50133508196722 14.387184918032789 4.87875781314e-06 0.0 0.0 0.0
205 1 49.03875016393444 14.437070819672133 5.95135001523e-07 0.0 0.0 0.0
206 1 51.765206557377056 14.562088524590164 2.19892003557e-05 0.0 0.0 0.0
207 1 54.3968393442623 15.046708852459018 8.8902497763e-05 0.0 0.0 0.0
208 1 56.93253770491804 14.811871475409838 8.23810933126e-05 0.0 0.0 0.0
209 1 59.56114098360656 14.498872786885247 4.11151904184e-05 0.0 0.0 0.0
210 1 61.713606557377055 13.860403934426232 6.56155322021e-05 0.0 0.0 0.0
211 1 65.29398032786887 14.605259016393443 1.24447363551e-05 0.0 0.0 0.0
212 1 67.91551475409837 14.407078688524592 3.62844853681e-05 0.0 0.0 0.0
213 1 70.70367213114754 13.992591475409837 7.31087803874e-06 0.0 0.0 0.0
214 1 73.5004131147541 13.82460524590164 1.82657890034e-05 0.0 0.0 0.0
215 1 76.30068852459017 14.123769180327871 3.23706375537e-05 0.0 0.0 0.0
216 1 78.98988196721312 14.357748196721314 5.19337643631e-05 0.0 0.0 0.0
217 1 81.06307540983607 16.022866885245904 9.94796850883e-05 0.0 0.0 0.0
218 1 0.41807516065573774 17.24774754098361 8.23291599789e-05 0.0 0.0 0.0
219 1 3.1120673442622953 16.51319278688525 7.01014849146e-06 0.0 0.0 0.0
220 1 5.784290491803279 16.887488524590164 6.98572627301e-05 0.0 0.0 0.0
221 1 8.429000655737706 17.22734885245902 8.5078147857e-05 0.0 0.0 0.0
222 1 11.166868196721312 17.265571147540985 7.07065541173e-05 0.0 0.0 0.0
223 1 13.910239344262296 17.279860327868857 9.74047058018e-06 0.0 0.0 0.0
224 1 17.343480000000003 16.2147862295082 6.56214916952e-05 0.0 0.0 0.0
225 1 18.237386885245904 18.22632918032787 8.87631792039e-06 0.0 0.0 0.0
226 1 21.269520655737704 17.284152131147543 5.6231025704e-05 0.0 0.0 0.0
227 1 24.12109573770492 17.3181331147541 3.52434257876e-05 0.0 0.0 0.0
228 1 26.871788196721315 17.367160655737706 4.80083277696e-05 0.0 0.0 0.0
229 1 29.547247868852462 16.94777573770492 2.8560185928e-05 0.0 0.0 0.0
230 1 31.868760000000005 18.273488524590167 7.09664855636e-06 0.0 0.0 0.0
231 1 34.666258360655746 17.33550229508197 8.26029584056e-05 0.0 0.0 0.0
232 1 37.43871278688525 17.200032786885245 3.72553913591e-05 0.0 0.0 0.0
233 1 40.171228196721316 16.95933836065574 9.47730416146e-05 0.0 0.0 0.0
234 1 42.87814426229509 17.223259016393442 3.71228392479e-06 0.0 0.0 0.0
235 1 45.410459672131154 17.034116721311477 5.01822296295e-05 0.0 0.0 0.0
236 1 47.98771278688525 16.790544262295082 2.95297975188e-06 0.0 0.0 0.0
237 1 50.68013770491804 16.668455081967213 2.43678028913e-05 0.0 0.0 0.0
238 1 53.054262295081976 18.121205245901642 4.55017881324e-05 0.0 0.0 0.0
239 1 56.72451147540984 16.954137704918036 3.12952390632e-05 0.0 0.0 0.0
240 1 58.25996721311476 16.90505967213115 5.24008203613e-05 0.0 0.0 0.0
241 1 60.917855737704926 16.710009836065574 2.62720224996e-07 0.0 0.0 0.0
242 1 63.65653114754099 16.815436721311478 5.30120521568e-05 0.0 0.0 0.0
243 1 66.73501639344262 16.825939016393445 8.41074390101e-05 0.0 0.0 0.0
244 1 69.48227540983606 16.34172262295082 2.24317331828e-05 0.0 0.0 0.0
245 1 72.18358688524592 16.106481311475413 8.32905481135e-05 0.0 0.0 0.0
246 1 74.87782950819673 16.167374426229507 9.06509526052e-05 0.0 0.0 0.0
247 1 77.63316721311476 16.549041967213117 8.41435511646e-05 0.0 0.0 0.0
248 1 80.3844655737705 17.435274098360658 4.55012107892e-05 0.0 0.0 0.0
249 1 2.163831278688525 18.954925901639346 7.79684349447e-05 0.0 0.0 0.0
250 1 4.161786885245902 20.270186885245902 2.99813890498e-05 0.0 0.0 0.0
251 1 6.996851147540984 19.402838688524593 9.64113150705e-05 0.0 0.0 0.0
252 1 9.728508196721311 19.517404590163938 3.53503984464e-05 0.0 0.0 0.0
253 1 12.385942295081968 19.557949508196725 3.06620069706e-05 0.0 0.0 0.0
254 1 15.015555409836068 19.591779016393446 2.44485026822e-05 0.0 0.0 0.0
255 1 17.58144786885246 19.62045836065574 6.10797909764e-05 0.0 0.0 0.0
256 1 20.113965245901642 19.43808196721312 3.38820085906e-05 0.0 0.0 0.0
257 1 22.822446557377052 19.531390819672133 2.73544411468e-05 0.0 0.0 0.0
258 1 25.798382950819676 19.620963278688524 6.86749108006e-06 0.0 0.0 0.0
259 1 28.536805901639347 19.446716065573774 2.87807200114e-05 0.0 0.0 0.0
260 1 31.148645901639348 19.640352131147544 5.17355153361e-05 0.0 0.0 0.0
261 1 33.60618295081967 19.771378360655742 8.62142064855e-05 0.0 0.0 0.0
262 1 36.26316262295082 19.483625573770492 9.17950610983e-05 0.0 0.0 0.0
263 1 38.9530124590164 19.34704524590164 5.77413661832e-05 0.0 0.0 0.0
264 1 41.66002950819672 19.376734426229508 9.53578272185e-05 0.0 0.0 0.0
265 1 44.4420268852459 19.559009836065577 1.782229694e-05 0.0 0.0 0.0
266 1 46.97323147540984 19.260552786885246 7.15243191214e-05 0.0 0.0 0.0
267 1 49.5688131147541 18.973860327868852 2.70033623264e-05 0.0 0.0 0.0
268 1 52.22821639344262 19.402384262295083 4.68202434765e-05 0.0 0.0 0.0
269 1 54.577600000000004 19.99238098360656 9.63511056788e-05 0.0 0.0 0.0
270 1 56.989088524590166 19.53275409836066 9.9881810238e-05 0.0 0.0 0.0
271 1 59.76310819672131 19.105492459016396 8.73913344759e-06 0.0 0.0 0.0
272 1 62.33213114754099 18.981080655737706 7.71952982379e-05 0.0 0.0 0.0
273 1 64.36240655737706 18.200729836065577 3.36366910284e-06 0.0 0.0 0.0
274 1 68.07052459016394 18.7195331147541 1.68278950728e-06 0.0 0.0 0.0
275 1 70.77587540983608 18.469447213114755 5.88860221911e-05 0.0 0.0 0.0
276 1 73.43881311475411 18.41961180327869 7.15753766334e-05 0.0 0.0 0.0
277 1 75.976531147541 18.551193442622953 7.51582783221e-05 0.0 0.0 0.0
278 1 78.59453114754099 19.05444524590164 2.51210178205e-05 0.0 0.0 0.0
279 1 81.0388393442623 18.85783016393443 5.82214525758e-05 0.0 0.0 0.0
280 1 0.5105175737704919 21.29597836065574 3.53548581616e-05 0.0 0.0 0.0
281 1 3.195540393442623 21.4870393442623 4.57610965968e-05 0.0 0.0 0.0
282 1 5.738393442622952 21.78529442622951 9.51495592137e-05 0.0 0.0 0.0
283 1 8.41607475409836 21.737024262295087 4.282780757e-05 0.0 0.0 0.0
284 1 10.929607213114755 21.887540327868855 2.62908892591e-05 0.0 0.0 0.0
285 1 13.571439344262297 21.941314098360657 3.53890986207e-05 0.0 0.0 0.0
286 1 16.24119344262295 22.010639344262298 5.36589904762e-05 0.0 0.0 0.0
287 1 18.85040786885246 21.86502098360656 5.9451256271e-05 0.0 0.0 0.0
288 1 21.47456786885246 21.689662950819674 8.30137294973e-05 0.0 0.0 0.0
289 1 23.533421639344265 20.914361311475414 8.10036456709e-05 0.0 0.0 0.0
290 1 27.163226885245905 21.761310819672133 5.63982106746e-05 0.0 0.0 0.0
291 1 29.733209180327872 21.926772459016394 4.57329263509e-05 0.0 0.0 0.0
292 1 32.165954754098365 22.13939344262295 7.39894063403e-05 0.0 0.0 0.0
293 1 34.95229442622951 21.906020327868855 3.88353304248e-05 0.0 0.0 0.0
294 1 37.62598688524591 21.70763803278689 2.86238935842e-05 0.0 0.0 0.0
295 1 40.25186360655738 21.65366229508197 3.68294276429e-05 0.0 0.0 0.0
296 1 42.92540459016394 21.712283278688528 5.79936223418e-05 0.0 0.0 0.0
297 1 46.632260327868856 21.65623737704918 6.11684497914e-05 0.0 0.0 0.0
298 1 49.00108327868853 21.300270163934428 5.24679779325e-07 0.0 0.0 0.0
299 1 50.53068196721312 21.40100131147541 4.45641460443e-05 0.0 0.0 0.0
300 1 53.08859672131148 22.09374885245902 4.04012206167e-05 0.0 0.0 0.0
301 1 55.96561967213115 22.160398032786887 2.00995703938e-05 0.0 0.0 0.0
302 1 58.63916065573771 21.439779016393445 7.29296878482e-05 0.0 0.0 0.0
303 1 61.365213114754106 21.391811803278692 2.80325975512e-05 0.0 0.0 0.0
304 1 63.89081311475411 21.187370491803282 2.80567240656e-05 0.0 0.0 0.0
305 1 66.46387540983608 20.9480393442623 7.08682726041e-05 0.0 0.0 0.0
306 1 69.2535475409836 20.800653770491806 7.11135741579e-05 0.0 0.0 0.0
307 1 72.03463606557378 20.725673442622956 3.44067866278e-05 0.0 0.0 0.0
308 1 74.62284590163935 20.8800268852459 7.75722091955e-05 0.0 0.0 0.0
309 1 77.06917377049182 21.060939016393444 2.72564161429e-05 0.0 0.0 0.0
310 1 79.35897704918034 20.388186229508197 5.27967021606e-07 0.0 0.0 0.0
311 1 1.4383953442622952 23.677323278688526 8.57650428292e-05 0.0 0.0 0.0
312 1 4.088972655737706 23.965429508196724 7.17149161624e-05 0.0 0.0 0.0
313 1 6.830480655737706 24.002793442622952 9.4685156875e-05 0.0 0.0 0.0
314 1 9.387284590163935 24.254747540983608 3.03323443176e-05 0.0 0.0 0.0
315 1 12.032903606557378 24.262725245901642 5.18569798073e-05 0.0 0.0 0.0
316 1 14.821565901639344 24.303017704918034 2.72971932132e-05 0.0 0.0 0.0
317 1 18.513728524590167 23.981637377049182 4.14362556153e-05 0.0 0.0 0.0
318 1 20.058828196721315 24.03899606557377 1.80731447423e-05 0.0 0.0 0.0
319 1 22.791293114754097 23.868030819672132 1.38764861108e-06 0.0 0.0 0.0
320 1 25.510983606557378 23.90857573770492 7.55635076565e-06 0.0 0.0 0.0
321 1 28.11676459016394 24.201781639344265 6.51484484588e-05 0.0 0.0 0.0
322 1 30.695330491803283 24.536592786885247 6.69863158875e-05 0.0 0.0 0.0
323 1 33.635821639344265 24.180322622950822 4.73119464044e-05 0.0 0.0 0.0
324 1 36.34304065573771 24.09266885245902 9.9069880128e-05 0.0 0.0 0.0
325 1 38.846070819672136 24.025413770491806 7.41064530795e-05 0.0 0.0 0.0
326 1 41.43508852459017 23.984565901639346 6.47514736936e-05 0.0 0.0 0.0
327 1 43.91292327868853 24.231672786885248 6.03306050337e-05 0.0 0.0 0.0
328 1 46.29755016393443 24.180524590163937 2.31463131828e-05 0.0 0.0 0.0
329 1 48.762358032786885 23.82248721311476 5.48266451784e-05 0.0 0.0 0.0
330 1 51.527390163934434 24.037077377049183 1.60490280858e-06 0.0 0.0 0.0
331 1 54.270609836065574 24.17219344262295 1.59414484411e-05 0.0 0.0 0.0
332 1 58.29884590163935 23.72180655737705 8.5789208299e-05 0.0 0.0 0.0
333 1 59.830767213114754 23.628598688524594 8.62754466337e-05 0.0 0.0 0.0
334 1 62.489665573770495 23.742356721311477 3.32874683595e-05 0.0 0.0 0.0
335 1 65.45706885245903 23.490655081967216 1.86596917677e-05 0.0 0.0 0.0
336 1 68.03366557377049 23.038955409836067 3.2283356281e-06 0.0 0.0 0.0
337 1 70.63045901639344 22.913735737704922 9.56702675244e-05 0.0 0.0 0.0
338 1 73.24139016393444 23.145695081967215 9.25973158343e-06 0.0 0.0 0.0
339 1 75.79779016393444 23.426681967213117 5.69034818541e-06 0.0 0.0 0.0
340 1 78.6399737704918 23.166497704918037 9.1301594307e-05 0.0 0.0 0.0
341 1 81.45287213114754 23.315448524590163 2.34440296232e-06 0.0 0.0 0.0
342 1 0.10957882622950821 25.861598688524595 3.25302266633e-05 0.0 0.0 0.0
343 1 2.8071574426229513 26.13243672131148 2.30270254666e-05 0.0 0.0 0.0
344 1 5.577223606557378 26.183736393442626 4.15726275698e-05 0.0 0.0 0.0
345 1 7.7777573770491815 27.664257049180332 6.55712698731e-08 0.0 0.0 0.0
346 1 10.528500327868853 26.630235409836068 4.25195517143e-05 0.0 0.0 0.0
347 1 13.286312131147543 26.49385704918033 2.94397002131e-05 0.0 0.0 0.0
348 1 15.953693114754099 26.68249442622951 4.94176730513e-05 0.0 0.0 0.0
349 1 18.54781049180328 26.49607868852459 9.12859615634e-05 0.0 0.0 0.0
350 1 21.350105573770495 26.2340262295082 9.60115714477e-05 0.0 0.0 0.0
351 1 24.055405901639347 26.184039344262295 9.3041649551e-05 0.0 0.0 0.0
352 1 26.772470819672137 26.425087213114757 2.62810492764e-05 0.0 0.0 0.0
353 1 29.367699016393445 26.71677836065574 9.11965200434e-05 0.0 0.0 0.0
354 1 31.40726491803279 25.917089180327874 4.88238458465e-05 0.0 0.0 0.0
355 1 34.83434557377049 27.573977704918033 1.30685247619e-05 0.0 0.0 0.0
356 1 37.51515737704918 26.485475409836067 6.828465805e-05 0.0 0.0 0.0
357 1 40.21490360655738 26.357074754098363 8.2940264042e-06 0.0 0.0 0.0
358 1 42.781755409836066 26.5057731147541 4.65672985614e-05 0.0 0.0 0.0
359 1 45.327804590163936 26.66280262295082 3.63395389537e-05 0.0 0.0 0.0
360 1 47.900715409836074 26.401659016393445 6.01210995022e-05 0.0 0.0 0.0
361 1 50.450652459016396 26.16162098360656 6.98486367465e-05 0.0 0.0 0.0
362 1 53.096170491803285 26.32597180327869 8.67199099747e-05 0.0 0.0 0.0
363 1 55.73184262295082 26.33687803278689 4.13319414702e-05 0.0 0.0 0.0
364 1 58.44173770491804 27.22280721311476 9.80037447833e-05 0.0 0.0 0.0
365 1 61.16324590163935 26.002369836065576 1.63172132026e-05 0.0 0.0 0.0
366 1 63.34651147540984 25.034492459016395 1.15036662461e-07 0.0 0.0 0.0
367 1 67.16571147540984 25.54592393442623 9.06201043236e-05 0.0 0.0 0.0
368 1 69.71504262295083 25.253879344262298 9.89111568656e-05 0.0 0.0 0.0
369 1 72.35929836065574 26.245083934426233 2.7872082805e-05 0.0 0.0 0.0
370 1 74.96366557377051 26.491786885245904 5.40340829032e-05 0.0 0.0 0.0
371 1 77.69981639344263 25.367738360655743 6.69807239099e-06 0.0 0.0 0.0
372 1 80.042131147541 26.61428 4.31282258935e-05 0.0 0.0 0.0
373 1 1.501808 28.308431475409837 8.48210027186e-05 0.0 0.0 0.0
374 1 4.11049731147541 28.415726557377052 8.51845326461e-05 0.0 0.0 0.0
375 1 6.872691803278689 28.932005245901642 7.09807644895e-05 0.0 0.0 0.0
376 1 9.589605245901641 29.160228196721317 9.53826812704e-05 0.0 0.0 0.0
377 1 12.186398688524593 28.7681593442623 6.21663398014e-05 0.0 0.0 0.0
378 1 14.746737049180329 28.858489180327872 7.28039779797e-06 0.0 0.0 0.0
379 1 17.427296393442624 28.91100065573771 6.74468226093e-05 0.0 0.0 0.0
380 1 20.091294426229513 28.56472786885246 1.7874595151e-05 0.0 0.0 0.0
381 1 22.70944590163935 28.509136393442624 9.56732710474e-05 0.0 0.0 0.0
382 1 25.29957442622951 28.568464262295084 1.14371731719e-05 0.0 0.0 0.0
383 1 28.001744262295084 28.953110819672133 4.25694730169e-07 0.0 0.0 0.0
384 1 31.16566163934427 28.886461639344265 7.4224079301e-05 0.0 0.0 0.0
385 1 34.00471475409836 28.87005180327869 6.84680623362e-05 0.0 0.0 0.0
386 1 36.65432262295082 29.025112131147544 9.2004978415e-05 0.0 0.0 0.0
387 1 39.141700327868854 28.65106885245902 5.10263685206e-05 0.0 0.0 0.0
388 1 41.69284918032787 28.772198688524593 3.85358151247e-05 0.0 0.0 0.0
389 1 44.1465993442623 28.954827540983608 2.59551540563e-05 0.0 0.0 0.0
390 1 46.77323344262295 28.87969573770492 9.5585014694e-05 0.0 0.0 0.0
391 1 49.41748918032787 28.658137704918037 1.63287912766e-05 0.0 0.0 0.0
392 1 52.063108196721316 28.546601311475413 7.20660565788e-05 0.0 0.0 0.0
393 1 54.81844590163935 28.60289967213115 4.05479739739e-05 0.0 0.0 0.0
394 1 57.7192 28.580430819672134 5.91000201424e-05 0.0 0.0 0.0
395 1 60.41495737704919 28.450717377049184 4.11935067642e-05 0.0 0.0 0.0
396 1 63.11929836065575 27.907779016393448 2.57268797701e-05 0.0 0.0 0.0
397 1 65.8812 27.769280000000002 7.59180881436e-05 0.0 0.0 0.0
398 1 68.65875409836066 27.77432918032787 3.99749680285e-05 0.0 0.0 0.0
399 1 71.58980327868854 27.60078885245902 8.05258629209e-05 0.0 0.0 0.0
400 1 74.22194098360656 27.835828196721312 6.86942428576e-05 0.0 0.0 0.0
401 1 76.71371147540984 27.888794098360655 6.97286933724e-05 0.0 0.0 0.0
402 1 79.43017049180328 28.02805049180328 3.4037024585e-06 0.0 0.0 0.0
403 1 81.7083606557377 28.341756065573772 6.70141429695e-05 0.0 0.0 0.0
404 1 0.09571933114754098 30.766019016393443 2.29065287718e-05 0.0 0.0 0.0
405 1 2.6634880655737705 30.73340131147541 8.87975793489e-05 0.0 0.0 0.0
406 1 5.193536393442623 30.827013114754102 4.27272674259e-05 0.0 0.0 0.0
407 1 7.345648524590165 30.394601311475412 8.43918382204e-05 0.0 0.0 0.0
408 1 10.964900983606558 31.25215409836066 9.64088837986e-05 0.0 0.0 0.0
409 1 13.470506229508198 31.18131409836066 9.17060053432e-05 0.0 0.0 0.0
410 1 16.113651147540985 31.156017704918035 5.41075374225e-05 0.0 0.0 0.0
411 1 18.837078032786888 31.012721967213118 3.48701648447e-06 0.0 0.0 0.0
412 1 21.466539672131148 30.892904918032787 2.99186229187e-05 0.0 0.0 0.0