ITEM: TIMESTEP
0
ITEM: NUMBER OF ATOMS
2232
ITEM: BOX BOUNDS xy xz yz pp pp pp
0.0 82.68810555352132 0
0.0 83.16 0
-10.0 10.0 0
ITEM: ATOMS id type x y z vx vy vz
1 1 1.9263683278688526 1.054940393442623 2.89009029664e-05 0.0 0.0 0.0
2 1 4.4753662295081975 2.0344864262295084 1.56228349243e-05 0.0 0.0 0.0
3 1 8.105247213114756 1.2111872786885247 8.29964380571e-06 0.0 0.0 0.0
4 1 9.65933442622951 1.1472848524590165 7.90005872187e-05 0.0 0.0 0.0
5 1 13.43965573770492 1.427120524590164 9.13868197066e-05 0.0 0.0 0.0
6 1 14.945624262295084 1.0751876065573773 7.57148707676e-05 0.0 0.0 0.0
7 1 17.317072786885248 2.109123409836066 7.52099551619e-05 0.0 0.0 0.0
8 1 20.316538360655738 1.3757956065573773 9.56111799479e-05 0.0 0.0 0.0
9 1 23.022141639344262 1.079575344262295 6.59573082206e-05 0.0 0.0 0.0
10 1 25.71911081967213 1.929594754098361 1.36295276114e-05 0.0 0.0 0.0
11 1 29.783650491803282 0.5118808524590164 2.20863182455e-05 0.0 0.0 0.0
12 1 31.26240393442623 0.08700293114754099 3.47416044302e-05 0.0 0.0 0.0
13 1 33.59386295081968 1.3892617704918033 1.76605249002e-05 0.0 0.0 0.0
14 1 36.593732459016394 0.5574699016393443 4.91356994989e-06 0.0 0.0 0.0
15 1 39.42288918032787 0.48211542950819675 8.11410494982e-05 0.0 0.0 0.0
16 1 42.396351475409844 1.0822160655737705 9.46036043122e-05 0.0 0.0 0.0
17 1 45.76849704918033 82.51774426229508 4.66509648462e-05 0.0 0.0 0.0
18 1 46.97515016393443 1.4223086557377052 1.88809808373e-05 0.0 0.0 0.0
19 1 49.88539672131149 0.6353383606557378 5.84903720857e-06 0.0 0.0 0.0
20 1 52.658406557377056 0.3064074885245902 4.53901292894e-05 0.0 0.0 0.0
21 1 56.311993442622956 83.13020983606557 5.78762048502e-05 0.0 0.0 0.0
22 1 57.82573770491804 0.3375483081967214 8.46429670645e-05 0.0 0.0 0.0
23 1 60.52957377049181 0.45155880000000004 8.0639933342e-05 0.0 0.0 0.0
24 1 62.39373114754099 1.9676201311475412 5.88057518163e-05 0.0 0.0 0.0
25 1 66.0624655737705 0.8509080655737706 1.49571122039e-05 0.0 0.0 0.0
26 1 67.57318032786887 1.1530964590163935 9.89962901852e-05 0.0 0.0 0.0
27 1 71.42469508196722 1.471629049180328 1.52670922934e-06 0.0 0.0 0.0
28 1 72.94500327868853 1.4707555409836066 7.30653106159e-05 0.0 0.0 0.0
29 1 77.19742295081967 1.7199628852459017 5.71180744729e-05 0.0 0.0 0.0
30 1 79.43269508196722 1.540737180327869 3.55595073601e-05 0.0 0.0 0.0
31 1 81.95526557377049 0.9770820327868853 1.60801012864e-05 0.0 0.0 0.0
32 1 0.46121737704918037 3.2747973770491807 6.75064453921e-05 0.0 0.0 0.0
33 1 2.436678885245902 4.828536196721312 1.70442344156e-05 0.0 0.0 0.0
34 1 5.856796721311476 4.4482925245901646 8.22764936603e-05 0.0 0.0 0.0
35 1 8.207038688524591 3.6239683934426234 7.92799713165e-05 0.0 0.0 0.0
36 1 10.030247213114755 4.824007081967214 7.45543286047e-05 0.0 0.0 0.0
37 1 13.474091147540985 3.731334163934427 3.55054657416e-05 0.0 0.0 0.0
38 1 16.416248524590166 3.4042432131147544 1.57021784325e-06 0.0 0.0 0.0
39 1 19.192944262295082 3.5740269508196727 8.05915539952e-05 0.0 0.0 0.0
40 1 22.102281967213116 3.483141704918033 3.01253616035e-05 0.0 0.0 0.0
41 1 24.96622754098361 3.2805433442622953 7.85521427935e-05 0.0 0.0 0.0
42 1 27.975942950819675 3.315741180327869 6.16615374473e-05 0.0 0.0 0.0
43 1 29.47539803278689 3.132799278688525 1.04742533468e-05 0.0 0.0 0.0
44 1 32.86637704918033 2.8011085245901644 2.08418456344e-05 0.0 0.0 0.0
45 1 35.37147737704918 2.7539592786885247 7.76216829497e-05 0.0 0.0 0.0
46 1 37.89036196721312 2.7070473442622953 7.94738249362e-06 0.0 0.0 0.0
47 1 42.44280393442624 2.6120167213114756 6.56279651566e-05 0.0 0.0 0.0
48 1 43.95190295081968 2.5643524590163937 2.25457996446e-05 0.0 0.0 0.0
49 1 46.51668459016394 2.8731956721311476 6.13426140082e-05 0.0 0.0 0.0
50 1 49.003304918032796 2.9179364590163934 3.44775154967e-05 0.0 0.0 0.0
51 1 52.05401967213115 2.51981868852459 8.60217502971e-07 0.0 0.0 0.0
52 1 53.574327868852464 2.6021960655737706 8.38733616182e-05 0.0 0.0 0.0
53 1 55.98076721311476 2.6889106885245906 6.88613504808e-05 0.0 0.0 0.0
54 1 58.71186885245902 2.7450676721311478 5.0427819664e-05 0.0 0.0 0.0
55 1 61.46013770491804 3.215646229508197 4.73305469013e-05 0.0 0.0 0.0
56 1 63.757009836065585 4.004408983606558 3.28159214372e-05 0.0 0.0 0.0
57 1 65.86049836065574 3.7179083934426234 8.11607753192e-05 0.0 0.0 0.0
58 1 68.3800393442623 3.7479712131147545 3.76078864228e-05 0.0 0.0 0.0
59 1 70.83192131147541 3.692480721311476 1.26001395284e-05 0.0 0.0 0.0
60 1 74.39512786885247 4.42662649180328 8.57775407758e-05 0.0 0.0 0.0
61 1 75.75739672131148 2.2970841967213116 5.11792651459e-05 0.0 0.0 0.0
62 1 80.50463606557378 3.5337092459016395 5.25553376301e-05 0.0 0.0 0.0
63 1 1.508245704918033 6.026853114754099 8.03403930862e-05 0.0 0.0 0.0
64 1 3.670784393442623 5.709310163934426 8.12034818567e-05 0.0 0.0 0.0
65 1 7.167715409836067 6.4009973770491815 8.70097808081e-05 0.0 0.0 0.0
66 1 9.375873442622952 6.19201180327869 1.19108232701e-05 0.0 0.0 0.0
67 1 11.385548196721311 5.498506885245902 5.39253676893e-05 0.0 0.0 0.0
68 1 14.797026885245904 5.727184262295083 7.24624012879e-05 0.0 0.0 0.0
69 1 17.641432131147543 5.677954754098361 2.51838694006e-05 0.0 0.0 0.0
70 1 20.4675593442623 5.594188852459017 3.81686557952e-05 0.0 0.0 0.0
71 1 24.28206360655738 5.3875763934426235 1.34785925225e-05 0.0 0.0 0.0
72 1 25.742589508196723 5.875630163934426 8.45269199537e-05 0.0 0.0 0.0
73 1 28.34185704918033 6.0009508196721315 4.15703283079e-05 0.0 0.0 0.0
74 1 30.37910032786886 4.397810819672131 2.88073265005e-06 0.0 0.0 0.0
75 1 33.859197377049185 5.13552131147541 9.1152406313e-06 0.0 0.0 0.0
76 1 36.17298426229509 5.069175081967214 1.82019029733e-05 0.0 0.0 0.0
77 1 38.48848786885246 4.973947540983607 7.0002643372e-05 0.0 0.0 0.0
78 1 40.51320918032788 4.230672852459017 1.65253130934e-05 0.0 0.0 0.0
79 1 44.566691147540986 4.924243409836066 8.0105474811e-05 0.0 0.0 0.0
80 1 47.28693704918033 5.218378360655739 3.75899279394e-05 0.0 0.0 0.0
81 1 49.97572655737706 5.372277377049182 2.48413086255e-05 0.0 0.0 0.0
82 1 52.54328524590164 5.338346885245902 1.06310199163e-05 0.0 0.0 0.0
83 1 54.9663868852459 5.103156065573771 8.235904226e-06 0.0 0.0 0.0
84 1 57.1188524590164 6.225336393442624 5.4565496154e-05 0.0 0.0 0.0
85 1 59.88479344262296 5.200100327868853 6.55245085489e-05 0.0 0.0 0.0
86 1 62.399285245901645 6.020390163934427 5.96757656366e-05 0.0 0.0 0.0
87 1 64.97941639344263 6.492892459016394 7.61688475489e-05 0.0 0.0 0.0
88 1 67.63175081967213 6.037456393442624 3.55263559239e-06 0.0 0.0 0.0
89 1 70.30832131147542 5.958335737704918 8.78817181822e-05 0.0 0.0 0.0
90 1 72.09623606557378 4.539571606557377 5.60237898647e-05 0.0 0.0 0.0
91 1 76.02298360655739 5.305527213114755 6.88660900178e-05 0.0 0.0 0.0
92 1 78.83032786885246 5.637005901639345 7.64424955611e-05 0.0 0.0 0.0
93 1 81.6124262295082 5.666038688524591 6.48962141093e-05 0.0 0.0 0.0
94 1 0.15757582950819676 8.145186229508196 1.16530276557e-05 0.0 0.0 0.0
95 1 2.813054885245902 8.416024262295082 8.3950018112e-05 0.0 0.0 0.0
96 1 5.757883278688525 8.760024918032787 9.32808450084e-05 0.0 0.0 0.0
97 1 8.807739672131149 8.791733770491803 2.93474489943e-05 0.0 0.0 0.0
98 1 11.040487213114755 9.565520655737707 3.62145078901e-05 0.0 0.0 0.0
99 1 13.31675868852459 8.075911475409837 4.91907577084e-05 0.0 0.0 0.0
100 1 15.36263606557377 7.159687213114755 8.97730131833e-05 0.0 0.0 0.0
101 1 18.862828852459018 7.687175081967214 2.17421862093e-05 0.0 0.0 0.0
102 1 21.05997967213115 6.997961967213116 9.85214580626e-05 0.0 0.0 0.0
103 1 24.501400000000004 8.198556065573772 3.03811537255e-05 0.0 0.0 0.0
104 1 27.21265836065574 8.296308196721313 6.76727305204e-05 0.0 0.0 0.0
105 1 30.630953442622953 7.272384918032787 9.55954580265e-05 0.0 0.0 0.0
106 1 32.16560131147541 7.065267540983608 7.4483937131e-05 0.0 0.0 0.0
107 1 34.73982491803279 7.603459672131148 6.39220691042e-05 0.0 0.0 0.0
108 1 37.83350819672132 7.438755409836066 4.37713370609e-06 0.0 0.0 0.0
109 1 40.23393901639345 8.158415081967215 7.4482553314e-05 0.0 0.0 0.0
110 1 42.8236131147541 6.746108852459017 2.06053090952e-05 0.0 0.0 0.0
111 1 45.560369836065576 7.227952131147541 9.99506815197e-05 0.0 0.0 0.0
112 1 48.7156531147541 7.4997495081967225 4.91608934553e-05 0.0 0.0 0.0
113 1 51.24059672131148 7.6959101639344265 7.65988268094e-05 0.0 0.0 0.0
114 1 53.68036065573771 7.788108196721312 1.65477137317e-05 0.0 0.0 0.0
115 1 56.63110163934427 7.6924262295081975 2.64169669513e-05 0.0 0.0 0.0
116 1 59.11984262295082 7.543121967213115 9.2140274179e-05 0.0 0.0 0.0
117 1 61.12335737704918 9.295692459016394 3.12743954192e-05 0.0 0.0 0.0
118 1 63.92464262295083 8.535285901639345 5.58893565925e-05 0.0 0.0 0.0
119 1 65.7660786885246 7.8223416393442635 1.90475272175e-05 0.0 0.0 0.0
120 1 69.7352393442623 9.223741639344263 7.63714326453e-06 0.0 0.0 0.0
121 1 72.2108524590164 7.5507462295081975 2.07715736175e-05 0.0 0.0 0.0
122 1 74.86571147540984 7.387405245901641 5.39617794394e-05 0.0 0.0 0.0
123 1 77.54127213114755 8.343467540983607 6.68004214689e-05 0.0 0.0 0.0
124 1 80.37588196721313 7.8135560655737715 8.34548355021e-05 0.0 0.0 0.0
125 1 1.1220944918032787 10.521936393442623 4.07272094122e-05 0.0 0.0 0.0
126 1 3.828525836065574 10.419892459016395 3.62455022239e-05 0.0 0.0 0.0
127 1 6.472039344262296 10.154810491803278 7.25580269379e-05 0.0 0.0 0.0
128 1 10.219591475409837 10.845942295081969 6.72097098721e-05 0.0 0.0 0.0
129 1 12.424568524590164 10.962780327868854 1.44819672394e-06 0.0 0.0 0.0
130 1 14.873168524590167 10.135825573770493 3.24745841113e-05 0.0 0.0 0.0
131 1 17.32742360655738 9.893767868852459 4.02211393589e-05 0.0 0.0 0.0
132 1 20.023382950819673 9.787836065573773 3.64372043131e-06 0.0 0.0 0.0
133 1 22.52631213114754 10.258419672131149 6.86888338708e-05 0.0 0.0 0.0
134 1 25.150421639344263 10.331026885245903 5.26764777255e-05 0.0 0.0 0.0
135 1 28.1097462295082 10.511030163934427 7.86775236618e-05 0.0 0.0 0.0
136 1 30.897398688524593 10.088767213114757 8.90288434421e-05 0.0 0.0 0.0
137 1 33.75649704918033 9.649034098360657 5.55633143269e-05 0.0 0.0 0.0
138 1 35.74284459016394 8.766285901639344 1.99743263324e-05 0.0 0.0 0.0
139 1 39.42521180327869 9.450045901639346 6.00846321045e-05 0.0 0.0 0.0
140 1 41.833317377049184 9.31316262295082 9.86496326222e-05 0.0 0.0 0.0
141 1 44.36401704918033 9.099077377049182 1.30397826989e-05 0.0 0.0 0.0
142 1 46.40772327868853 8.491307540983607 2.73525902796e-06 0.0 0.0 0.0
143 1 49.58007278688525 11.128494426229508 4.007681608e-05 0.0 0.0 0.0
144 1 52.190347540983616 10.17525967213115 9.75810438213e-05 0.0 0.0 0.0
145 1 54.27111475409836 9.23192131147541 8.17899591765e-05 0.0 0.0 0.0
146 1 57.86411147540984 9.991822950819675 4.60472073038e-06 0.0 0.0 0.0
147 1 60.46746885245903 10.690881967213116 7.8702185365e-05 0.0 0.0 0.0
148 1 63.19453114754099 10.777374426229509 8.21747403517e-05 0.0 0.0 0.0
149 1 65.87615081967213 10.759550819672132 3.10968232978e-05 0.0 0.0 0.0
150 1 69.6660655737705 10.757531147540984 3.1413143629e-05 0.0 0.0 0.0
151 1 71.91598032786887 10.007121967213115 4.15359798626e-05 0.0 0.0 0.0
152 1 73.41659672131148 9.765771147540985 6.29044074393e-06 0.0 0.0 0.0
153 1 76.60616393442623 9.594048524590166 9.52399925621e-05 0.0 0.0 0.0
154 1 79.20043278688526 10.039032786885247 2.28372062143e-05 0.0 0.0 0.0
155 1 81.55385573770494 10.38969836065574 8.72164639254e-05 0.0 0.0 0.0
156 1 82.48795409836066 13.018352131147543 5.37252183592e-05 0.0 0.0 0.0
157 1 2.411811672131148 12.66465704918033 5.55353261095e-05 0.0 0.0 0.0
158 1 5.02819593442623 12.509243278688526 7.4910551086e-05 0.0 0.0 0.0
159 1 7.67116918032787 12.851173770491805 2.29040961597e-05 0.0 0.0 0.0
160 1 11.075225573770492 13.52776393442623 7.11762014514e-05 0.0 0.0 0.0
161 1 13.840863606557377 12.865917377049183 4.80201791272e-05 0.0 0.0 0.0
162 1 16.370099016393446 12.44900655737705 9.64402148839e-05 0.0 0.0 0.0
163 1 18.86585836065574 12.059916721311476 8.59536671249e-05 0.0 0.0 0.0
164 1 21.11925704918033 13.490803934426232 2.66901660697e-06 0.0 0.0 0.0
165 1 23.82273967213115 12.576548852459018 4.51164700109e-05 0.0 0.0 0.0
166 1 25.70381180327869 11.741464918032788 2.81177593267e-05 0.0 0.0 0.0
167 1 28.909687868852462 11.792411147540985 3.43775114356e-05 0.0 0.0 0.0
168 1 31.99817049180328 11.173432131147543 4.49727078193e-05 0.0 0.0 0.0
169 1 35.52562885245902 11.696476721311477 5.91069755669e-05 0.0 0.0 0.0
170 1 38.0126531147541 11.701980327868853 2.00694913088e-06 0.0 0.0 0.0
171 1 40.48296459016394 11.798470163934427 3.3689244467e-05 0.0 0.0 0.0
172 1 43.24047344262296 11.520815737704918 7.57644505741e-05 0.0 0.0 0.0
173 1 46.11512327868853 11.292643278688526 5.03210342063e-05 0.0 0.0 0.0
174 1 48.707069508196724 12.380590163934427 2.42148992964e-05 0.0 0.0 0.0
175 1 51.118911475409845 12.79593573770492 8.77787672925e-05 0.0 0.0 0.0
176 1 53.61876065573771 12.246685901639346 1.54859863683e-05 0.0 0.0 0.0
177 1 56.163042622950826 11.900160655737706 4.58453905517e-06 0.0 0.0 0.0
178 1 57.75656393442624 13.48620918032787 9.29474099288e-05 0.0 0.0 0.0
179 1 62.70072131147542 12.677885901639344 9.03835444266e-05 0.0 0.0 0.0
180 1 64.19830819672131 13.00108393442623 4.10925510505e-05 0.0 0.0 0.0
181 1 67.0904786885246 13.431678032786888 2.90080063743e-05 0.0 0.0 0.0
182 1 69.42269508196722 13.113882622950822 5.67898520729e-05 0.0 0.0 0.0
183 1 71.83872786885246 12.64153180327869 8.74695057821e-06 0.0 0.0 0.0
184 1 74.15276721311476 11.110216393442625 5.80335320491e-05 0.0 0.0 0.0
185 1 77.69880655737705 12.047142295081969 8.78229198231e-05 0.0 0.0 0.0
186 1 79.36705573770492 13.737506885245903 1.92258545383e-05 0.0 0.0 0.0
187 1 1.2600532459016394 15.096190819672133 6.60644103082e-05 0.0 0.0 0.0
188 1 3.9160887213114757 14.843277377049182 5.67761809164e-05 0.0 0.0 0.0
189 1 6.469009836065574 14.880994754098362 9.33273595515e-05 0.0 0.0 0.0
190 1 8.886809836065575 15.641249836065574 8.13041822733e-05 0.0 0.0 0.0
191 1 12.653902295081968 15.289321967213116 4.02232241341e-05 0.0 0.0 0.0
192 1 15.342237377049182 15.019645245901641 2.52212296211e-07 0.0 0.0 0.0
193 1 18.025775737704922 14.619093770491803 3.86023343369e-05 0.0 0.0 0.0
194 1 20.577631475409838 14.908916721311478 1.84010691683e-05 0.0 0.0 0.0
195 1 23.180887868852462 14.931082622950822 6.31581851674e-05 0.0 0.0 0.0
196 1 25.89098491803279 14.547395409836067 1.13321412242e-05 0.0 0.0 0.0
197 1 28.50232 14.467820327868854 1.678809146e-05 0.0 0.0 0.0
198 1 31.329810491803283 14.14411737704918 3.84204540371e-05 0.0 0.0 0.0
199 1 34.10685967213115 14.077518688524592 3.7132190364e-05 0.0 0.0 0.0
200 1 36.834881311475414 14.147550819672134 3.12732371537e-06 0.0 0.0 0.0
201 1 39.48580196721312 14.166434754098361 7.29377923485e-05 0.0 0.0 0.0
202 1 41.98004655737706 13.779718032786887 5.84447785743e-05 0.0 0.0 0.0
203 1 44.776787540983605 13.38653836065574 3.23738489105e-05 0.0 0.0 0.0
204 1 46.25624786885246 15.154205901639346 7.50554757686e-05 0.0 0.0 0.0
205 1 49.248543606557384 14.95420786885246 9.80772829353e-05 0.0 0.0 0.0
206 1 52.350911475409845 14.932496393442625 7.83221287452e-05 0.0 0.0 0.0
207 1 54.75179672131148 14.496297704918035 8.62875096523e-05 0.0 0.0 0.0
208 1 57.01231475409837 14.808185573770492 3.3384910649e-05 0.0 0.0 0.0
209 1 59.043600000000005 14.26857967213115 3.01619849435e-05 0.0 0.0 0.0
210 1 62.437659016393454 15.42317573770492 7.66025824049e-05 0.0 0.0 0.0
211 1 64.86177049180328 14.398798032786885 1.04828667104e-05 0.0 0.0 0.0
212 1 68.6375475409836 15.751776393442624 3.87467024229e-05 0.0 0.0 0.0
213 1 70.79556721311475 15.344459016393444 6.03562531241e-06 0.0 0.0 0.0
214 1 74.21992131147542 13.745484590163935 9.85577825953e-05 0.0 0.0 0.0
215 1 75.75588196721313 13.77269967213115 6.76963984855e-05 0.0 0.0 0.0
216 1 78.20523934426231 14.695588852459018 9.88956983872e-05 0.0 0.0 0.0
217 1 80.4379868852459 14.799904918032787 5.54850626395e-05 0.0 0.0 0.0
218 1 82.56823606557377 17.350599344262296 3.91836828131e-05 0.0 0.0 0.0
219 1 2.787405049180328 17.19109573770492 5.57406132779e-05 0.0 0.0 0.0
220 1 5.446601311475411 18.012092459016394 7.75426190507e-05 0.0 0.0 0.0
221 1 8.507919344262296 17.214624918032786 4.02036687533e-05 0.0 0.0 0.0
222 1 11.051040000000002 17.52065573770492 5.69797233331e-05 0.0 0.0 0.0
223 1 13.838742950819674 17.38821573770492 5.35436452232e-05 0.0 0.0 0.0
224 1 17.57028918032787 16.835835409836065 9.80877328671e-05 0.0 0.0 0.0
225 1 19.071309508196723 17.118488524590166 8.58032904352e-05 0.0 0.0 0.0
226 1 22.111269508196724 17.189732459016398 5.74110561362e-05 0.0 0.0 0.0
227 1 24.812076065573773 16.897839344262298 5.23143852133e-05 0.0 0.0 0.0
228 1 27.19352196721312 16.851285901639343 3.2666606809e-05 0.0 0.0 0.0
229 1 29.79177967213115 16.460883278688527 1.35143455357e-06 0.0 0.0 0.0
230 1 32.52379016393443 16.34838754098361 2.95953900357e-05 0.0 0.0 0.0
231 1 35.76849442622951 16.370856393442626 9.73036331887e-05 0.0 0.0 0.0
232 1 38.562660327868855 16.442403278688527 1.51213235709e-05 0.0 0.0 0.0
233 1 41.8937055737705 15.987017704918035 5.40863842651e-05 0.0 0.0 0.0
234 1 43.390383606557386 15.636554098360657 6.22494497028e-05 0.0 0.0 0.0
235 1 44.946389508196724 17.424468852459018 5.12123439972e-05 0.0 0.0 0.0
236 1 47.88258885245902 16.878349508196724 8.00820732503e-05 0.0 0.0 0.0
237 1 50.02379475409836 16.28279868852459 9.65765891713e-05 0.0 0.0 0.0
238 1 53.56624918032787 17.173120655737705 3.65816006581e-05 0.0 0.0 0.0
239 1 55.76011803278689 17.19407475409836 4.38589791752e-06 0.0 0.0 0.0
240 1 58.548780327868855 17.075772459016395 1.8621526384e-05 0.0 0.0 0.0
241 1 61.17233442622952 18.11741836065574 7.09387515749e-05 0.0 0.0 0.0
242 1 63.97311475409837 17.148076721311476 5.75834677172e-05 0.0 0.0 0.0
243 1 66.9713180327869 17.665264262295086 2.634679473e-05 0.0 0.0 0.0
244 1 70.09575081967213 18.220270163934426 6.69654825127e-05 0.0 0.0 0.0
245 1 72.15884590163935 17.31156918032787 8.84731978905e-06 0.0 0.0 0.0
246 1 74.62284590163935 16.355203934426232 6.66320241125e-05 0.0 0.0 0.0
247 1 77.16308852459018 16.473556721311475 1.45925089142e-05 0.0 0.0 0.0
248 1 79.66192786885246 18.208051147540985 8.31797011488e-05 0.0 0.0 0.0
249 1 1.54078262295082 19.35083213114754 2.98332340849e-05 0.0 0.0 0.0
250 1 4.324547213114754 19.100998688524594 7.66514184034e-05 0.0 0.0 0.0
251 1 6.808415737704919 19.36173836065574 3.53497424495e-05 0.0 0.0 0.0
252 1 9.908864918032789 19.868019672131148 8.15067081656e-05 0.0 0.0 0.0
253 1 12.452389508196722 19.655398688524592 5.25141634609e-05 0.0 0.0 0.0
254 1 15.231609836065575 19.388145573770494 4.8730634714e-05 0.0 0.0 0.0
255 1 17.55938295081967 19.474638032786885 7.59413367867e-05 0.0 0.0 0.0
256 1 19.821112786885248 18.480959344262295 5.8399889454e-05 0.0 0.0 0.0
257 1 23.714434754098363 19.206476065573774 5.87885046134e-05 0.0 0.0 0.0
258 1 25.822114098360657 20.591264262295084 4.28877137776e-05 0.0 0.0 0.0
259 1 28.408051803278692 18.98330229508197 6.39921137913e-05 0.0 0.0 0.0
260 1 31.25589049180328 18.619205901639347 2.32197047341e-05 0.0 0.0 0.0
261 1 33.360035409836065 17.63719081967213 2.36005773362e-05 0.0 0.0 0.0
262 1 36.925463606557386 18.565735081967212 1.92663904499e-05 0.0 0.0 0.0
263 1 39.43632 18.732812459016397 7.94359941666e-07 0.0 0.0 0.0
264 1 42.60230754098361 18.49933836065574 9.36779278993e-05 0.0 0.0 0.0
265 1 44.14367081967214 18.729782950819676 6.05259797762e-05 0.0 0.0 0.0
266 1 46.58025377049181 18.889892459016394 3.23121025887e-05 0.0 0.0 0.0
267 1 49.111205901639345 19.12998098360656 1.06309535743e-06 0.0 0.0 0.0
268 1 51.73390163934427 19.226066885245903 8.80875301566e-05 0.0 0.0 0.0
269 1 54.685147540983614 19.825859016393448 3.89892453832e-05 0.0 0.0 0.0
270 1 57.37989508196722 19.253382950819674 9.71686042726e-05 0.0 0.0 0.0
271 1 60.305895081967215 19.371584262295084 4.46497918362e-06 0.0 0.0 0.0
272 1 62.587114754098366 19.547093770491806 5.26900599766e-05 0.0 0.0 0.0
273 1 65.26570491803278 19.05898950819672 5.16918152613e-06 0.0 0.0 0.0
274 1 67.61104918032788 19.110491147540987 1.19331185146e-05 0.0 0.0 0.0
275 1 72.7339475409836 19.77223672131148 9.18231073104e-05 0.0 0.0 0.0
276 1 74.0285573770492 18.970477377049182 4.01403396238e-05 0.0 0.0 0.0
277 1 76.12295737704919 20.154964590163935 3.35337230581e-05 0.0 0.0 0.0
278 1 78.99442622950819 19.59763606557377 4.23597074279e-05 0.0 0.0 0.0
279 1 81.57708196721312 19.62904196721312 9.39530381355e-05 0.0 0.0 0.0
280 1 0.2798619278688525 21.784284590163935 3.01635144147e-05 0.0 0.0 0.0
281 1 2.7745195409836065 21.42453049180328 8.35008825488e-05 0.0 0.0 0.0
282 1 5.371015081967213 21.587619016393443 4.02329702936e-05 0.0 0.0 0.0
283 1 7.310758688524591 20.786061639344265 5.91509406537e-05 0.0 0.0 0.0
284 1 10.472555409836067 21.355912131147544 9.70646774861e-05 0.0 0.0 0.0
285 1 13.877419672131149 21.56772524590164 3.79032144379e-05 0.0 0.0 0.0
286 1 16.438565901639347 21.888903606557378 9.52271648744e-07 0.0 0.0 0.0
287 1 18.53735868852459 20.653520655737704 8.79598760756e-05 0.0 0.0 0.0
288 1 21.7440931147541 22.293191475409838 3.62946526266e-06 0.0 0.0 0.0
289 1 24.740074754098362 21.75030360655738 8.79209219524e-05 0.0 0.0 0.0
290 1 28.43541836065574 21.150158032786887 4.98258793251e-05 0.0 0.0 0.0
291 1 29.93421704918033 20.863465573770494 9.66448454198e-05 0.0 0.0 0.0
292 1 33.41941377049181 20.429135081967214 9.56318570179e-05 0.0 0.0 0.0
293 1 34.95764655737705 20.498510819672134 4.53146268822e-05 0.0 0.0 0.0
294 1 38.28303672131148 21.023575081967216 8.63840834973e-05 0.0 0.0 0.0
295 1 39.80137573770492 21.13738360655738 6.16406142708e-05 0.0 0.0 0.0
296 1 42.384485901639344 21.404636721311476 2.54121237442e-05 0.0 0.0 0.0
297 1 46.81130426229509 22.251030819672135 8.08240536065e-05 0.0 0.0 0.0
298 1 46.5148668852459 20.74430491803279 2.71521943385e-05 0.0 0.0 0.0
299 1 50.803842622950825 21.43927409836066 4.10740902435e-05 0.0 0.0 0.0
300 1 52.183783606557384 20.705224262295086 4.46861978216e-05 0.0 0.0 0.0
301 1 57.08098360655738 21.42947868852459 3.65291777393e-06 0.0 0.0 0.0
302 1 58.59270819672132 21.237104918032788 9.0992237387e-05 0.0 0.0 0.0
303 1 61.11325901639345 21.962217704918036 9.50925438739e-05 0.0 0.0 0.0
304 1 65.11019016393443 21.0011062295082 5.07464111452e-05 0.0 0.0 0.0
305 1 65.30306885245902 23.048548852459017 9.03756511454e-05 0.0 0.0 0.0
306 1 69.09096393442624 22.312984262295082 3.46077296906e-05 0.0 0.0 0.0
307 1 71.1525442622951 21.76105836065574 7.34404038252e-05 0.0 0.0 0.0
308 1 75.05556065573771 21.267601967213118 7.09727140785e-05 0.0 0.0 0.0
309 1 77.52561967213116 21.881026885245902 6.20952630371e-06 0.0 0.0 0.0
310 1 80.26278032786885 21.956461639344266 3.06715634445e-06 0.0 0.0 0.0
311 1 1.773009573770492 24.019354754098362 2.35792090544e-05 0.0 0.0 0.0
312 1 4.461077049180329 23.745992131147545 3.22956741978e-05 0.0 0.0 0.0
313 1 7.246482622950821 23.635819016393445 2.09645868005e-05 0.0 0.0 0.0
314 1 9.479381639344263 25.175718032786886 3.76771082577e-05 0.0 0.0 0.0
315 1 12.027551475409837 23.922612459016396 2.77511582493e-05 0.0 0.0 0.0
316 1 14.978645901639347 24.020768524590167 2.98962660979e-05 0.0 0.0 0.0
317 1 17.9272662295082 23.611532459016395 1.11407067854e-05 0.0 0.0 0.0
318 1 20.83463475409836 23.566241311475412 7.45217612874e-06 0.0 0.0 0.0
319 1 23.220473442622954 23.923420327868854 7.80036330255e-05 0.0 0.0 0.0
320 1 25.35238885245902 23.150592786885248 8.00893321463e-05 0.0 0.0 0.0
321 1 29.286861639344266 23.58512524590164 8.94154968888e-05 0.0 0.0 0.0
322 1 30.765059672131148 23.267733770491805 1.64431627014e-05 0.0 0.0 0.0
323 1 32.944841311475415 23.29600918032787 8.17703171907e-05 0.0 0.0 0.0
324 1 35.39202754098361 23.30065442622951 1.66548033647e-05 0.0 0.0 0.0
325 1 37.76044655737706 23.63319344262295 7.35673113214e-05 0.0 0.0 0.0
326 1 40.443782950819674 23.501409836065577 1.3032658209e-05 0.0 0.0 0.0
327 1 43.047291803278696 23.57396655737705 9.01142558786e-05 0.0 0.0 0.0
328 1 45.06847868852459 25.24999147540984 2.6408957621e-05 0.0 0.0 0.0
329 1 48.040224262295084 24.37668524590164 5.61306830687e-05 0.0 0.0 0.0
330 1 50.73214426229509 24.12271147540984 6.45839206379e-05 0.0 0.0 0.0
331 1 53.424872131147545 23.962702950819672 5.96581048528e-05 0.0 0.0 0.0
332 1 55.46474098360657 23.22375540983607 8.24969115549e-05 0.0 0.0 0.0
333 1 58.96937704918034 24.845198688524594 4.2078389748e-05 0.0 0.0 0.0
334 1 61.784295081967215 23.95199868852459 7.44260004935e-05 0.0 0.0 0.0
335 1 64.59062950819673 24.378553442622955 2.38159775706e-05 0.0 0.0 0.0
336 1 66.74309508196723 23.576137704918033 1.16112286504e-05 0.0 0.0 0.0
337 1 70.5784524590164 24.57920786885246 2.13602506894e-05 0.0 0.0 0.0
338 1 73.11718032786887 23.875301639344265 9.82654748466e-05 0.0 0.0 0.0
339 1 75.97198688524591 23.959168524590165 1.55936591143e-05 0.0 0.0 0.0
340 1 78.81265573770493 24.136091803278692 9.75895156147e-05 0.0 0.0 0.0
341 1 81.6477704918033 24.12230754098361 7.04785785466e-05 0.0 0.0 0.0
342 1 0.25855186229508204 26.248921311475414 6.41258887664e-06 0.0 0.0 0.0
343 1 4.146341442622951 25.846299672131153 3.75848590482e-05 0.0 0.0 0.0
344 1 5.702493770491804 25.846350163934428 1.33572354873e-06 0.0 0.0 0.0
345 1 8.597542295081968 26.46603606557377 3.36989838781e-05 0.0 0.0 0.0
346 1 11.99735737704918 26.317893114754103 2.43661169184e-05 0.0 0.0 0.0
347 1 13.511758032786886 25.98035540983607 3.27852257573e-05 0.0 0.0 0.0
348 1 16.346165901639345 25.789950819672136 2.93426596314e-05 0.0 0.0 0.0
349 1 19.124679344262297 25.668316065573773 8.61635559892e-05 0.0 0.0 0.0
350 1 21.64709836065574 26.209537704918034 5.03364445631e-05 0.0 0.0 0.0
351 1 25.241660327868853 25.90673836065574 8.20733026302e-05 0.0 0.0 0.0
352 1 26.717485245901642 26.31249049180328 6.27344531021e-05 0.0 0.0 0.0
353 1 29.182899016393446 26.474316721311475 6.75869476173e-05 0.0 0.0 0.0
354 1 31.773683934426234 25.87821049180328 9.05046158668e-05 0.0 0.0 0.0
355 1 34.26964524590164 25.75001180327869 5.90000947732e-05 0.0 0.0 0.0
356 1 36.74132000000001 27.02972655737705 5.20367486607e-05 0.0 0.0 0.0
357 1 39.422737704918035 25.831000655737707 9.61421633312e-05 0.0 0.0 0.0
358 1 42.21639868852459 26.614078032786885 3.5372932609e-05 0.0 0.0 0.0
359 1 44.71862098360656 27.14812983606558 2.27526324155e-05 0.0 0.0 0.0
360 1 47.294914754098365 26.399033442622954 3.3755632516e-05 0.0 0.0 0.0
361 1 49.79198688524591 26.512539016393447 3.62344784869e-05 0.0 0.0 0.0
362 1 52.76797377049181 26.35288393442623 2.35112004919e-05 0.0 0.0 0.0
363 1 55.41525901639345 26.01499278688525 4.60882516791e-05 0.0 0.0 0.0
364 1 58.1620131147541 26.165306885245904 2.3200118702e-05 0.0 0.0 0.0
365 1 60.48968524590165 26.388278688524593 6.38551302617e-05 0.0 0.0 0.0
366 1 63.18544262295082 26.195955409836067 3.63716018855e-05 0.0 0.0 0.0
367 1 66.06499016393443 26.405445901639347 7.46198261131e-05 0.0 0.0 0.0
368 1 68.83295081967213 26.473003934426234 7.79613042861e-05 0.0 0.0 0.0
369 1 72.13259016393444 26.55419475409836 8.68017999704e-05 0.0 0.0 0.0
370 1 74.75109508196722 26.104817704918034 3.18958913517e-05 0.0 0.0 0.0
371 1 77.51350163934427 26.20009573770492 3.28988185537e-05 0.0 0.0 0.0
372 1 80.20219016393445 26.282599344262294 8.14593230392e-05 0.0 0.0 0.0
373 1 1.2275213770491804 28.41921049180328 3.14713631742e-05 0.0 0.0 0.0
374 1 3.9717256393442626 28.317822950819675 7.41014552879e-05 0.0 0.0 0.0
375 1 6.910712131147542 28.14387868852459 6.61822389621e-06 0.0 0.0 0.0
376 1 9.0452531147541 27.953221639344264 2.69121058058e-05 0.0 0.0 0.0
377 1 12.636331147540984 28.661621639344265 3.40268930822e-05 0.0 0.0 0.0
378 1 15.434081967213116 27.968268196721315 7.41054602556e-05 0.0 0.0 0.0
379 1 17.858597377049183 27.90227540983607 8.75533300669e-05 0.0 0.0 0.0
380 1 19.676605245901644 29.586681967213117 6.8601483335e-05 0.0 0.0 0.0
381 1 22.52217180327869 28.599466229508202 3.43018016382e-05 0.0 0.0 0.0
382 1 25.356478688524593 28.44243672131148 4.14264141502e-05 0.0 0.0 0.0
383 1 28.24415540983607 28.792900327868857 1.23799200708e-05 0.0 0.0 0.0
384 1 30.838929180327874 28.42355278688525 4.00208741572e-05 0.0 0.0 0.0
385 1 33.17129704918033 29.411576393442626 1.01806628656e-05 0.0 0.0 0.0
386 1 35.916182950819675 28.343624262295087 6.79842409001e-05 0.0 0.0 0.0
387 1 38.508280655737714 28.459048524590166 7.08420347457e-05 0.0 0.0 0.0
388 1 41.53556721311476 28.022647868852463 4.23614818012e-05 0.0 0.0 0.0
389 1 44.24197836065574 28.567706885245904 9.9654826637e-05 0.0 0.0 0.0
390 1 46.624636065573775 28.877019672131148 5.69990874315e-05 0.0 0.0 0.0
391 1 48.58639409836066 28.829708852459017 3.6747716056e-05 0.0 0.0 0.0
392 1 50.68013770491804 27.768472131147544 6.03061534973e-05 0.0 0.0 0.0
393 1 54.95982295081968 28.303786229508198 1.75964892217e-05 0.0 0.0 0.0
394 1 56.50891147540984 28.317772459016396 1.35240214041e-05 0.0 0.0 0.0
395 1 58.972406557377056 28.778409180327873 8.68385809818e-05 0.0 0.0 0.0
396 1 62.586104918032795 28.32640655737705 5.90271387643e-05 0.0 0.0 0.0
397 1 64.10186885245902 28.20244918032787 4.25851474927e-05 0.0 0.0 0.0
398 1 66.9395081967213 28.505248524590165 6.71431289587e-05 0.0 0.0 0.0
399 1 69.63375081967214 27.78866885245902 3.54436956157e-06 0.0 0.0 0.0
400 1 73.574131147541 28.63470950819672 9.30699293011e-05 0.0 0.0 0.0
401 1 76.33956721311476 28.361397377049183 3.05941974917e-05 0.0 0.0 0.0
402 1 78.97120000000001 28.541047213114755 9.89723419425e-05 0.0 0.0 0.0
403 1 81.33977049180329 28.49540262295082 6.39294322285e-05 0.0 0.0 0.0
404 1 0.7632441967213115 30.550166557377054 4.92369227194e-05 0.0 0.0 0.0
405 1 2.0147037377049184 29.708013770491807 9.18914339895e-05 0.0 0.0 0.0
406 1 5.531276065573771 30.125076065573772 8.34155423061e-05 0.0 0.0 0.0
407 1 8.211380983606558 30.686140983606563 2.03654824536e-05 0.0 0.0 0.0
408 1 10.44281573770492 30.39354098360656 9.94586096679e-05 0.0 0.0 0.0
409 1 14.373198688524592 30.276248524590166 9.73743040382e-05 0.0 0.0 0.0
410 1 16.686480655737707 30.437165901639347 4.79629625066e-05 0.0 0.0 0.0
411 1 19.018747540983608 31.009288524590165 3.38973516535e-05 0.0 0.0 0.0