# input file

2232 atoms
1 atom types

0.0 82.68810555352132 xlo xhi
0.0 83.16 ylo yhi
-10.0 10.0 zlo zhi
0.0 0.0 0.0 xy xz yz

Masses

1 12.0100 #C

Atoms

1 1 1.6990744262295083 0.5301386885245902 5.490231926064592e-05
2 1 4.589023278688525 0.2675808065573771 9.839166818005634e-05
3 1 8.721903606557378 0.3640746819672131 2.0358668898212617e-05
4 1 10.248119344262296 0.3482869049180328 5.3890683924579724e-05
5 1 12.686065573770493 0.16851538360655738 5.188186743932228e-05
6 1 15.366372459016395 0.15471041967213114 8.612368343623099e-05
7 1 17.954733770491806 0.4075082360655738 1.473045060831112e-05
8 1 21.610441311475412 0.5397523278688525 6.559387194679433e-05
9 1 23.078339016393443 1.0361624918032788 7.113188856641044e-05
10 1 25.68937114754099 1.4776123278688527 6.27175385378415e-05
11 1 28.18861442622951 1.2011394098360657 9.12020270417454e-06
12 1 30.370314754098363 0.6263457704918034 9.257257664744417e-05
13 1 33.154887213114755 0.10774243934426231 1.4288478326538801e-05
14 1 35.77243278688525 0.7144186229508197 3.779987174842774e-05
15 1 38.851473442622954 0.7742261639344262 3.90119011189603e-05
16 1 41.49325508196722 0.2972300983606558 9.39833970604716e-05
17 1 44.87216655737705 83.07113442622952 3.2021695152443045e-05
18 1 46.406460983606564 0.21318194754098363 3.5122913244596746e-05
19 1 49.18098557377049 0.7149235409836067 1.7867845136701965e-05
20 1 52.04745573770492 0.591132786885246 7.562802948360519e-05
21 1 54.36654426229509 1.7784172459016396 2.7999015229237824e-05
22 1 57.128950819672134 0.8605368524590165 7.787077866946221e-05
23 1 59.73988196721312 0.47684509508196726 2.6473896320739112e-05
24 1 62.47300327868853 0.9164615737704919 1.836715504343467e-06
25 1 65.26318032786885 1.7503286557377051 8.216446391787246e-05
26 1 68.15787540983607 1.568987344262295 9.63212378294206e-05
27 1 71.90386229508198 0.8021935737704918 2.702030505684685e-05
28 1 73.46456393442624 0.9402634098360656 6.854158013330594e-05
29 1 76.22545573770493 1.5621154098360657 7.850743336196755e-05
30 1 79.06915409836067 1.2440372459016393 9.123219301924826e-05
31 1 81.80530491803279 1.066992786885246 1.7574124303655983e-05
32 1 0.9331541639344263 3.0299272786885245 6.917750916147635e-05
33 1 3.6786257704918035 2.2859961967213116 8.669007021375012e-05
34 1 5.108508196721312 1.7139998032786887 8.294900255716398e-05
35 1 8.671765245901641 3.073774360655738 3.234551621209053e-05
36 1 12.179632786885247 2.5798382950819674 9.884047151071763e-05
37 1 13.702415081967214 2.392518754098361 9.485811001250073e-05
38 1 16.263056393442625 2.5715576393442627 3.146937518645451e-05
39 1 18.84732786885246 2.9739167213114754 5.13868625891713e-05
40 1 21.186057704918035 4.430418426229509 3.855837037540609e-05
41 1 24.05252786885246 3.6184546885245905 1.8746771990655155e-05
42 1 27.421088524590168 3.7515308852459017 6.289453030689263e-05
43 1 29.756081967213117 3.4868528524590165 6.395996318195496e-05
44 1 32.51783213114754 2.3383662950819675 8.064976864370223e-05
45 1 34.022639344262295 2.5595860327868856 7.012577076716115e-05
46 1 36.449477377049185 2.0685633442622953 2.9922145853743534e-05
47 1 40.168400655737706 2.7785235409836067 4.792616938792863e-05
48 1 42.44598491803279 2.944944524590164 2.388757246095341e-06
49 1 44.72220590163935 2.5835746885245903 2.9389516015226194e-05
50 1 47.49652852459017 2.6819125245901643 3.6799932627465596e-05
51 1 50.744262295081974 2.8404214426229513 5.013419034743694e-05
52 1 53.64047213114755 3.1322842622950824 4.789243175646873e-05
53 1 56.33976393442623 3.2430077377049185 5.315614380204746e-05
54 1 58.88657049180329 2.9167398032786886 4.397234208874108e-05
55 1 61.09306229508197 2.818093967213115 2.6440028609303712e-05
56 1 63.213213114754105 3.8674398688524594 2.649752564658994e-05
57 1 66.91224262295081 3.6346019672131153 4.479947304389144e-05
58 1 69.03289836065575 2.82291593442623 7.337166011396193e-05
59 1 72.54157377049181 3.6590500983606558 5.587327745851161e-05
60 1 75.08939016393444 3.5047118032786893 6.468819885077507e-05
61 1 77.8820918032787 3.5962483934426235 1.870833487691658e-05
62 1 80.77880655737707 3.3034363278688526 3.623703558457314e-06
63 1 1.9261057704918036 5.861896393442624 7.923701181258307e-05
64 1 4.1836144918032785 5.551220327868854 5.751405977108959e-05
65 1 6.961153442622951 5.138803278688525 3.5110778814479705e-05
66 1 9.60389442622951 5.312848524590164 2.401340526643764e-05
67 1 12.188418360655739 5.402168524590164 4.2971482863135895e-05
68 1 15.305226885245903 4.801588721311475 8.297755661093673e-05
69 1 17.498035409836067 6.312990163934427 1.8919672600208994e-06
70 1 20.362788852459015 5.730971147540984 5.718440360607872e-05
71 1 23.019364590163935 5.901380983606558 2.0203740107261158e-05
72 1 25.021415081967216 4.829429901639345 3.421123649258604e-05
73 1 28.917110163934428 6.169189508196721 7.3441179058101664e-06
74 1 31.61968393442623 5.877649836065575 6.0699241121843645e-05
75 1 32.96832 5.169350819672132 1.281103721668785e-05
76 1 35.61802885245902 4.6808173770491805 7.403831881172132e-05
77 1 38.35089770491804 4.785340459016394 6.058031709540045e-05
78 1 40.9495593442623 5.378386885245901 7.012309306084297e-05
79 1 44.301104262295084 5.169199344262296 6.725164191549536e-05
80 1 45.790410491803286 4.756989311475411 8.898302733582885e-06
81 1 48.22588262295082 4.039435147540984 1.3908901640043282e-05
82 1 52.033822950819676 4.994366426229508 1.3967531861448213e-05
83 1 54.398859016393445 4.465747540983607 6.906436725399092e-05
84 1 57.31021639344263 5.334105573770492 6.324040118487236e-05
85 1 59.82319344262295 5.439734426229509 5.249234482828943e-05
86 1 62.66083278688525 5.350010491803279 2.6649398807542002e-05
87 1 65.65954098360656 5.8180190163934435 2.7580797942154368e-05
88 1 68.4840524590164 5.689012459016395 9.813066489665291e-06
89 1 71.03136393442624 6.00408131147541 7.413673570870284e-05
90 1 73.67965901639346 5.98060262295082 8.636455714340211e-05
91 1 76.21737704918033 5.832914098360656 9.618382827641131e-05
92 1 80.48999344262296 5.118303606557378 9.480629547603503e-06
93 1 82.02696393442623 5.262457704918033 1.2566361653136294e-06
94 1 0.6185144918032788 7.862987540983608 4.6221436376277313e-05
95 1 3.3781793442622954 8.204665573770493 9.419043302474332e-05
96 1 5.864925901639345 7.475109508196723 8.16612340627924e-05
97 1 8.468939672131148 7.496417049180328 8.947105945322034e-05
98 1 11.054422950819673 7.662585573770492 9.282613264803071e-05
99 1 13.192700327868854 6.593977049180329 9.11113373475833e-05
100 1 15.954147540983609 8.44505704918033 5.284181757453542e-05
101 1 19.749565901639347 7.920043278688525 2.735314322044854e-05
102 1 21.288000655737704 8.03915344262295 6.064817258047123e-05
103 1 25.23454098360656 7.636380327868854 3.9529272616894175e-05
104 1 26.800544262295084 7.733728524590165 1.7931417280475627e-05
105 1 29.52846491803279 8.936746229508199 2.7231014278598676e-05
106 1 32.70197573770493 8.406026885245902 5.8649199562948666e-05
107 1 35.06741573770492 7.003667540983607 7.621548839731995e-06
108 1 37.693393442622956 7.941249836065575 9.130738921075757e-05
109 1 40.624341639344266 7.617698360655738 4.542453275970263e-05
110 1 42.02639803278689 9.381982950819673 1.8206570769884435e-05
111 1 44.485550819672135 7.552462950819673 8.625553452229256e-05
112 1 47.35313180327869 6.781655081967214 5.476148783808276e-05
113 1 50.15562885245902 6.853302950819673 2.4622948861697147e-05
114 1 52.73464918032787 7.888536393442624 5.7292464275559024e-05
115 1 55.12695081967214 8.126403278688525 2.1370467998381405e-05
116 1 58.557868852459016 7.839660327868853 8.749981628800686e-05
117 1 61.226360655737714 7.523581639344264 5.6874062624094215e-05
118 1 63.203114754098365 6.805386229508197 9.831660988443665e-05
119 1 66.85468196721312 7.812546229508197 5.531189650244951e-05
120 1 69.27828852459017 8.167251147540984 7.801413776506584e-05
121 1 71.90891147540984 8.250865573770493 8.935945559967369e-05
122 1 75.1797704918033 8.317868196721312 5.8933342523992764e-05
123 1 77.1272393442623 7.073548196721312 3.172178832010161e-05
124 1 80.91513442622951 7.843194754098361 6.636149576213799e-05
125 1 2.051911147540984 10.195708852459017 3.7316738806880426e-05
126 1 5.6464478688524595 9.924971803278689 8.208363877771705e-05
127 1 7.1698360655737705 9.80409442622951 4.2751862922750994e-05
128 1 9.72865967213115 9.915883278688526 3.342440736159178e-05
129 1 12.525552131147542 9.58223344262295 5.92956535524246e-05
130 1 14.976020327868854 9.632826229508197 2.5448381576026348e-05
131 1 16.776911475409836 11.73368918032787 8.903354004774678e-06
132 1 19.5103862295082 10.554200655737706 5.016113217692231e-05
133 1 22.112279344262294 10.39585836065574 3.42623719288129e-05
134 1 24.641565245901642 10.105379016393444 8.879540324235884e-05
135 1 27.589276721311478 10.247260983606557 2.725313947549144e-05
136 1 30.36728524590164 10.309416393442623 9.296516288762325e-05
137 1 35.31578491803279 9.393697049180329 3.921146143351618e-05
138 1 36.86401508196722 9.251865573770493 7.678860309250633e-05
139 1 39.27439278688525 10.125323278688526 6.27161703035514e-05
140 1 42.119605901639346 10.906431475409837 7.383852853588557e-08
141 1 44.28206885245902 9.856252459016394 3.8052670292663375e-05
142 1 46.9079455737705 8.962497049180328 6.007541664305619e-05
143 1 49.140895081967216 8.958003278688524 5.560513471714023e-05
144 1 51.34107540983607 10.755662950819673 5.265477275868929e-05
145 1 54.2504131147541 10.367179016393443 1.8369112171391834e-05
146 1 56.245344262295085 9.21076524590164 8.329973023692409e-05
147 1 60.096859016393445 9.926688524590165 5.81014878105975e-05
148 1 62.796150819672135 9.772789508196722 3.657784272149488e-05
149 1 65.41364590163936 9.87528786885246 8.194111222670167e-05
150 1 67.6256918032787 11.442906885245902 2.655646002654447e-05
151 1 70.39718688524592 10.516028852459018 1.3289578349058529e-05
152 1 73.01367213114754 11.775496393442625 8.893335007082592e-05
153 1 74.3320131147541 9.612225573770493 2.482612166046463e-05
154 1 79.03128524590164 9.737041311475412 9.0025479507244e-05
155 1 81.96536393442624 10.344053770491804 4.0897240211484376e-05
156 1 0.35151131147540987 12.379832786885247 8.040096154440095e-05
157 1 2.9636618360655738 12.451177704918035 3.952212316523335e-05
158 1 5.539304262295083 12.624920000000001 5.3526303176650304e-05
159 1 8.377549508196722 12.256986229508199 1.3230579379478881e-05
160 1 11.035892459016395 11.906926557377052 9.77789837175676e-05
161 1 13.717512131147542 12.125253114754099 5.12276678332985e-05
162 1 15.976060983606558 13.02845049180328 2.507954258423467e-05
163 1 18.387044590163935 12.940746229508198 3.557373225772906e-05
164 1 20.986564590163937 12.839106229508198 1.265632053633703e-05
165 1 23.593001967213116 12.604066885245903 2.8452025356570787e-05
166 1 26.335969180327872 12.070368524590165 3.196050420486739e-05
167 1 28.483991475409837 11.49844786885246 2.6439363221362057e-05
168 1 32.144748196721316 12.45319737704918 2.6091700000393094e-05
169 1 34.66206754098361 12.100057704918035 8.589632528465212e-05
170 1 37.29940590163935 11.984179016393444 3.843922169950107e-05
171 1 39.51301704918033 11.631241311475412 8.640066356147013e-05
172 1 43.06960918032787 12.093746229508197 6.80821734647433e-05
173 1 45.871702295081974 11.464719344262296 1.7189828307361368e-05
174 1 48.19084131147541 11.57499344262295 2.5826843505114118e-05
175 1 51.50012459016394 12.286725901639345 9.395321662495272e-06
176 1 53.02144262295083 12.421387540983607 7.423656739349404e-05
177 1 55.83080655737705 12.211291147540985 9.17568615396192e-05
178 1 58.58260983606558 12.024925901639346 2.1830575670548736e-05
179 1 61.347540983606564 12.13055475409836 5.309122243283705e-05
180 1 64.12408524590164 12.215229508196723 6.955655361099503e-05
181 1 66.77591475409837 12.72661049180328 7.622219811437236e-06
182 1 69.3040393442623 12.97492918032787 1.0038238500056585e-05
183 1 73.07527213114756 13.301611147540985 4.7719710949873376e-05
184 1 75.11867540983607 12.516968524590165 1.6451451915097692e-05
185 1 78.1133442622951 11.278707540983609 7.740725233096287e-05
186 1 79.63213770491804 11.120163278688526 9.166493041655429e-05
187 1 1.6775194754098364 14.697961967213116 9.97994245379606e-05
188 1 4.319775737704918 15.581366557377052 6.945284461857633e-05
189 1 7.188669508196722 14.56850098360656 2.967968091725295e-05
190 1 10.464981639344263 14.235305573770493 9.031863341735798e-05
191 1 11.997609836065577 14.232478032786887 5.129711826219625e-05
192 1 14.492005901639345 15.028430819672133 1.7114192648571438e-05
193 1 17.953875409836066 15.215452459016394 4.364443212375122e-05
194 1 19.473981639344267 15.145420327868854 1.384439849320911e-05
195 1 21.557222950819675 14.271457704918035 7.419441898910308e-05
196 1 25.41858360655738 14.366786229508199 6.355220964248849e-05
197 1 27.984476065573773 14.27812262295082 5.2867578231237835e-05
198 1 30.520376393442625 14.735780327868854 9.619168255854885e-05
199 1 34.252276065573774 14.55002098360656 7.614754478286112e-06
200 1 35.80116262295082 14.388548196721313 3.1166897118007966e-05
201 1 39.13150098360656 14.27362885245902 8.689483380081454e-05
202 1 40.61888852459017 14.64272393442623 4.8237791428665156e-05
203 1 43.3368118032787 15.05852393442623 2.075951099006358e-05
204 1 46.624232131147544 13.99713573770492 5.415773283090101e-05
205 1 48.41694360655738 15.41312786885246 6.62137340005069e-06
206 1 51.157790163934436 14.897657049180328 2.182233545159136e-05
207 1 54.191337704918034 14.472465573770494 8.073796323132635e-05
208 1 57.22337049180328 14.379914098360658 5.2242334953377947e-05
209 1 59.95699672131148 14.336794098360658 9.764204694969859e-05
210 1 62.65376393442624 14.389154098360658 9.217896619235401e-05
211 1 65.23238032786885 14.784555409836067 6.825652544297775e-05
212 1 67.83674754098361 15.223531147540985 8.850673127061868e-05
213 1 70.36335737704918 15.416157377049181 1.257436529465067e-05
214 1 71.96546229508198 14.3366931147541 5.201319377799827e-05
215 1 76.38500983606559 14.644087213114755 1.8407475410793108e-05
216 1 78.99745573770493 13.930486557377051 5.277083344552072e-05
217 1 81.63060327868853 14.61348918032787 4.394833351933112e-05
218 1 0.7722872786885246 16.919449836065578 8.648101887127476e-05
219 1 3.582560065573771 16.919904262295084 2.572481273870464e-06
220 1 6.253813770491804 16.72798491803279 4.248429671796974e-05
221 1 7.752309508196722 16.954440655737706 6.644037379610989e-05
222 1 10.928193442622952 16.853659016393443 3.07421751392026e-05
223 1 12.461579016393443 16.838713442622954 8.379224851469783e-05
224 1 15.421812459016394 17.81280131147541 3.2007863414430894e-05
225 1 18.013001311475414 17.523988196721316 4.4947760066802955e-05
226 1 20.970407213114754 17.21109049180328 9.191974426666388e-05
227 1 24.75815081967213 16.49309704918033 6.25151146366212e-05
228 1 26.277701639344265 16.569238688524592 8.384982080632563e-05
229 1 28.68459540983607 16.79488655737705 7.440144650703543e-05
230 1 30.975913442622954 16.237911475409838 8.487440774976737e-05
231 1 34.197896393442626 17.43855606557377 5.611843956419668e-05
232 1 36.79004459016394 17.053101639344263 4.9030989478857204e-05
233 1 39.389009180327875 16.874360655737707 1.7034938078493722e-05
234 1 42.2225586885246 16.995692459016396 3.606695316254683e-05
235 1 44.5069593442623 16.04493180327869 7.799661819479915e-05
236 1 47.60357114754098 17.737316065573772 9.8884224604028e-05
237 1 50.23192196721312 18.015879344262295 6.18852700266751e-05
238 1 52.90379672131148 16.66052786885246 5.4534620941833084e-05
239 1 55.6172262295082 16.340561311475412 4.0928323062224276e-06
240 1 59.141554098360665 16.58544655737705 6.795226422738311e-05
241 1 61.73430819672132 16.59312131147541 5.957665138160841e-05
242 1 64.2336524590164 18.078186229508198 3.8584423437348073e-05
243 1 66.80671475409838 17.28531344262295 6.977779452451242e-05
244 1 69.5812393442623 17.596645901639345 5.1914816695295563e-05
245 1 72.28961967213115 17.31439672131148 2.9412171765676354e-05
246 1 75.04596721311476 16.887589508196722 5.04094112061092e-05
247 1 78.92626229508197 16.00989049180328 5.064696921401977e-05
248 1 79.34635409836066 18.075661639344265 9.250108694277226e-05
249 1 0.5783331147540984 19.422833442622952 7.11665969573405e-05
250 1 2.6498906229508203 19.050203934426232 9.664443732046126e-05
251 1 5.255489836065574 19.012940983606562 1.9085176421715477e-05
252 1 7.648447868852459 19.832069508196724 7.543084103096673e-05
253 1 9.565015737704918 19.043791475409837 2.2070102902538115e-05
254 1 13.060563278688527 18.26566229508197 4.890888561624175e-05
255 1 16.950906229508195 19.979354098360655 2.9149591714338607e-05
256 1 19.243739016393445 19.329827540983608 7.00331779226971e-05
257 1 23.00532786885246 19.226925245901644 2.0568742258369166e-05
258 1 24.525787540983607 19.18733967213115 9.134920812076198e-05
259 1 26.964693114754102 19.09993836065574 8.071603408663895e-05
260 1 29.817732459016398 19.019302950819675 6.289896236815033e-05
261 1 32.82325704918033 19.875139016393447 7.175183610826965e-05
262 1 35.61383803278689 19.5634531147541 9.211596808969854e-05
263 1 38.4177993442623 19.27019672131148 1.7948026276439644e-05
264 1 41.295074754098366 19.026977704918036 3.3212422205017793e-05
265 1 44.040162622950824 18.903777704918035 1.2869464722312585e-05
266 1 46.876893114754104 19.127001967213115 5.716285537867437e-05
267 1 50.09781573770493 19.52836131147541 3.512473380064195e-05
268 1 52.40594754098361 20.37733049180328 8.823513204900667e-05
269 1 55.341036065573775 18.34831737704918 3.2331548541944336e-05
270 1 56.59878688524591 17.49717704918033 1.9827354663970842e-05
271 1 60.29630163934427 18.993855081967215 3.2070221422347726e-06
272 1 63.89535737704919 19.57582360655738 4.4182624250335944e-05
273 1 66.46841967213115 19.77026754098361 4.7804316072657086e-05
274 1 68.4648655737705 19.573955409836067 2.872751577224666e-05
275 1 71.22323278688525 19.720028196721312 1.6497570576320486e-05
276 1 74.0320918032787 19.3061468852459 9.405103641469698e-05
277 1 75.93563278688525 20.289626229508197 5.445764782534107e-05
278 1 78.70460327868854 19.455451147540984 8.724515719099997e-05
279 1 80.99895081967213 19.676100327868852 3.320904355827266e-05
280 1 82.58792786885247 22.007559344262297 6.07662700015183e-05
281 1 2.330322950819672 21.817659672131146 2.4398874970831786e-05
282 1 4.9002295081967215 21.014688524590166 7.071624543469793e-05
283 1 6.050634754098361 23.381037377049186 4.606953064735883e-05
284 1 9.707806557377051 21.818467540983608 8.789265346563769e-08
285 1 12.349992131147541 20.955057704918033 8.619795014754974e-05
286 1 14.539720655737705 20.53143147540984 9.511173305105598e-05
287 1 18.20709180327869 22.10470557377049 3.757594059142342e-05
288 1 20.363798688524593 21.78226491803279 7.867056109662568e-05
289 1 21.944646557377048 23.252434754098363 3.409089245297633e-05
290 1 26.00459147540984 21.6725462295082 5.8288646648347955e-05
291 1 28.78386229508197 21.066240655737705 7.277995295094986e-05
292 1 31.868659016393448 22.57756131147541 3.726786006534323e-05
293 1 34.50842098360656 21.901425573770492 8.68743293519134e-05
294 1 37.335406557377055 21.545862295081967 2.838034231518183e-05
295 1 40.199251147540984 21.172071475409837 1.9138612266988877e-05
296 1 42.94888327868853 21.240285901639346 5.288705855328422e-05
297 1 45.3895055737705 21.214787540983608 2.310585763464822e-05
298 1 47.68294426229509 20.446352786885246 6.399247955795748e-05
299 1 52.15752786885247 21.862142950819674 9.788159014777012e-05
300 1 53.65814426229509 21.83543278688525 2.8666556368395002e-05
301 1 55.74244590163935 21.341976393442625 7.255790443266875e-05
302 1 58.505862295081975 20.5890931147541 5.5205738204865967e-05
303 1 61.69593442622951 21.599181639344263 1.772535746195898e-05
304 1 65.39799344262295 21.962318688524594 9.263426620273484e-05
305 1 68.41992786885247 22.167517377049183 9.431256220745445e-05
306 1 69.88469508196721 21.774337704918032 7.922322390453799e-05
307 1 71.87306229508198 21.12415475409836 7.414047822793335e-05
308 1 75.1479606557377 21.594586885245906 1.5131016278899568e-06
309 1 77.73465573770493 21.786152786885246 5.188342883651469e-05
310 1 80.15624262295083 21.99039213114754 9.611847621660962e-05
311 1 1.0386163934426231 24.330838688524594 8.160805535714055e-06
312 1 3.3579371803278693 24.555022295081972 1.3748268390900465e-05
313 1 5.8788111475409845 24.889984918032788 6.969656311127582e-05
314 1 7.561955409836066 23.54008655737705 9.995297326770977e-05
315 1 11.42028655737705 23.496764590163938 7.227851634375976e-05
316 1 13.94629049180328 23.345844590163935 6.141427539094147e-06
317 1 16.549041967213117 23.960784262295082 1.4695639287804886e-05
318 1 18.892619016393446 23.480354754098364 6.869339863746326e-05
319 1 22.964379016393444 25.03979409836066 9.67777184847098e-05
320 1 25.530877377049183 24.13806098360656 9.338790167830321e-05
321 1 28.19250229508197 23.450716065573772 8.107703793840336e-05
322 1 31.127186885245905 23.971640000000004 4.337359335983237e-06
323 1 33.60199213114755 24.46287475409836 4.9166128348755035e-05
324 1 36.13193442622951 23.82536524590164 7.068718876417077e-05
325 1 39.75108590163935 23.096718032786885 9.056104069345153e-05
326 1 41.24922819672132 23.389116065573774 8.919453625613669e-05
327 1 44.27717114754099 23.77149049180328 8.853869634521826e-05
328 1 47.536619016393445 23.11848 4.04908224602262e-05
329 1 49.02324918032787 23.505398688524593 3.497777629733576e-05
330 1 51.51476721311476 24.4345993442623 3.7462766283027464e-05
331 1 54.41299672131149 24.07105836065574 1.4197952877085164e-05
332 1 57.84189508196722 22.815377704918035 1.6344777915658503e-05
333 1 59.58436721311476 21.670577049180327 2.943914987232279e-05
334 1 63.25259672131148 23.40340524590164 5.973938704050309e-05
335 1 65.34952131147541 24.71255672131148 6.043974763059592e-05
336 1 67.32980983606559 24.107765901639347 1.1154290052184025e-05
337 1 71.10205245901639 24.12619540983607 7.006509559887113e-05
338 1 73.52212459016394 23.835817049180328 5.6117655444218653e-05
339 1 76.13659016393443 23.940991475409838 7.376696866747812e-05
340 1 78.89899672131148 24.284941639344265 9.847941149457475e-05
341 1 81.29382295081967 24.4052131147541 1.733918430796976e-05
342 1 82.5212786885246 26.791304262295082 1.3272425789846609e-05
343 1 1.9830807213114756 28.16054098360656 7.742689638699401e-05
344 1 4.702271344262296 27.085822950819676 7.173987358819844e-06
345 1 8.502920655737706 26.084419016393444 5.9613247516683344e-05
346 1 10.005304262295082 25.804492459016394 6.008250154905295e-05
347 1 12.463346229508199 25.80055409836066 8.853544512389562e-05
348 1 15.056958688524592 25.97015606557377 2.6142122396126923e-05
349 1 18.313427540983607 26.160762622950823 2.6808544730356977e-05
350 1 22.030684590163936 26.303856393442626 8.023101392780503e-05
351 1 24.40597049180328 26.741670819672134 7.683286073966403e-05
352 1 26.908192786885248 25.966066229508197 6.418008368818817e-05
353 1 29.890087213114757 25.643928524590166 4.11627094075016e-05
354 1 31.400499016393447 25.526131147540987 9.812959345155042e-05
355 1 34.79072065573771 26.396003934426233 2.0411542728948973e-05
356 1 37.93782426229509 26.041702950819673 3.0086487391958196e-05
357 1 39.42819081967214 25.7573331147541 5.2028846022140375e-05
358 1 41.87578098360656 24.796575081967216 2.510059893537582e-05
359 1 45.45595278688525 26.28492196721312 2.65803301387864e-05
360 1 47.68425704918033 25.90673836065574 4.576756925847907e-05
361 1 50.40551278688525 26.17651606557377 6.901957073994602e-05
362 1 52.3988786885246 25.709719344262297 6.600306119402138e-05
363 1 55.77173114754098 24.7032662295082 3.844801980983913e-05
364 1 59.15872131147542 24.74668918032787 8.616729277491186e-06
365 1 61.7772262295082 24.691350163934427 6.6643596329352245e-06
366 1 63.27531803278689 24.908616393442625 8.940620299930674e-05
367 1 66.53809836065574 26.966561311475413 7.698347723680726e-05
368 1 69.29091147540984 26.46795475409836 3.5105405199641205e-05
369 1 72.58045245901641 26.544904262295084 7.729481083815737e-05
370 1 75.69226229508197 25.93673049180328 7.901589364578185e-05
371 1 77.20550163934428 26.177879344262298 3.972626812305942e-05
372 1 80.00426229508197 26.781104918032792 4.7256877066612496e-05
373 1 1.1162273442622952 29.438236065573772 6.298338154204186e-05
374 1 3.6696988196721314 29.598244590163937 4.2514599387256205e-05
375 1 6.222205901639345 28.969722622950822 3.003502593033042e-05
376 1 8.738262950819673 28.568666229508203 5.422960654355811e-05
377 1 11.376762622950821 28.266119344262297 5.901758449717968e-05
378 1 13.836420327868854 28.20174229508197 3.182486424596752e-05
379 1 15.806055081967216 27.323033442622954 2.5335242440698902e-05
380 1 19.355376393442626 27.28895147540984 9.884301282144928e-05
381 1 22.654308852459017 28.888784262295083 7.978041680764958e-05
382 1 25.923855081967215 28.597244590163935 9.599066191762e-05
383 1 27.4236131147541 28.455413114754098 7.02145227720576e-05
384 1 29.655754754098364 28.637688524590168 7.4477353595250655e-06
385 1 32.178022295081966 28.54715672131148 7.254614509970796e-05
386 1 35.76728262295082 29.21152786885246 9.100653789487613e-05
387 1 38.071122622950824 28.381190163934427 5.258736663454761e-05
388 1 40.94082426229509 27.536512786885247 8.931777624700558e-05
389 1 43.567811803278694 28.008257704918037 4.249663618210487e-06
390 1 47.69728393442624 28.35422754098361 6.044591882450349e-05
391 1 49.21330032786886 28.20512524590164 6.675698906120198e-06
392 1 51.87982295081967 28.62759016393443 9.740303140825183e-05
393 1 57.127436065573775 28.133477377049182 7.068616974094146e-05
394 1 56.77702295081968 26.644474098360657 9.54561933689449e-05
395 1 60.01556721311476 27.556154098360658 6.285120318005053e-05
396 1 61.55910163934427 27.7339862295082 3.917344342746833e-05
397 1 64.22860327868854 28.596032786885246 6.872054560130869e-06
398 1 67.76504918032788 28.907213770491808 4.385766656575272e-05
399 1 70.08464262295082 27.80396786885246 8.475660391408858e-05
400 1 73.7392393442623 28.987495737704922 1.263707844208879e-05
401 1 76.71977049180329 28.177859672131152 6.755177608969308e-05
402 1 78.22998032786886 28.496866885245904 5.648561342989952e-05
403 1 80.93028196721312 29.17310360655738 1.7358516759113875e-05
404 1 82.23297049180329 31.431652459016394 4.2383508726070585e-05
405 1 2.3438951475409837 31.89122885245902 9.850646595787894e-06
406 1 6.088503606557378 31.203480000000006 9.537774706407925e-05
407 1 7.61764786885246 31.091741639344267 3.4823413320307676e-05
408 1 10.397272131147542 30.703257704918034 5.0022411601080845e-05
409 1 13.093988852459018 30.62726754098361 9.027842243003535e-05
410 1 15.55253573770492 30.291446557377053 2.2128504898858937e-05
411 1 18.11398491803279 29.981073442622957 5.470388484242406e-06
412 1 20.651904918032788 30.38591672131148 3.928955745678341e-05
413 1 23.08040918032787 31.49002098360656 2.8356935813749674e-05
414 1 26.052609180327874 31.093609836065575 6.052973309735866e-07
415 1 28.14938229508197 32.2016524590164 3.752691394750911e-05
416 1 30.675234754098362 30.98192196721312 1.3536724562857406e-05
417 1 32.97968065573771 29.909425573770495 5.309661285983223e-05
418 1 38.40083409836066 30.67417442622951 4.102449118745727e-05
419 1 39.639852459016396 29.76214098360656 4.683717603886976e-05
420 1 41.03251737704918 31.28977049180328 1.4928966643642062e-05
421 1 44.5045862295082 30.49361573770492 9.809786155940721e-05
422 1 46.13511803278689 29.7205862295082 8.931887049303027e-05
423 1 50.1165986885246 30.652816393442627 9.120122687756763e-05
424 1 52.89167868852459 29.839040000000004 9.503626151018653e-05
425 1 56.44781639344263 30.369910819672135 4.071267529008386e-05
426 1 58.73004590163935 30.803887868852463 1.847567432300501e-06
427 1 60.651259016393446 30.63857770491804 8.867299820085362e-05
428 1 62.86380983606558 30.37384918032787 2.64177423709133e-05
429 1 65.18693770491805 29.79763672131148 4.627751563063397e-05
430 1 69.30858360655738 30.679425573770494 5.401766319736441e-05
431 1 72.16389508196721 30.76314098360656 1.3642515513140486e-05
432 1 75.63773114754099 31.351976393442627 7.84871363291606e-05
433 1 77.10552786885246 30.904366557377053 8.204810577790866e-05
434 1 79.32666229508197 32.25552721311476 2.6331065112246143e-06
435 1 0.6153688524590164 33.790074098360655 9.68704740817281e-05
436 1 3.853509180327869 34.21874950819672 7.803068444449487e-05
437 1 6.347324590163935 33.39568262295082 6.216082928212574e-06
438 1 9.209755409836067 33.03764524590164 7.507909774511371e-05
439 1 12.074761311475411 32.91722229508197 5.0020647034636304e-05
440 1 14.82181836065574 32.907830819672135 4.848127761925465e-05
441 1 17.24582885245902 32.49334360655738 9.107005103852099e-05
442 1 19.87079672131148 33.60295147540984 3.544709176724257e-05
443 1 21.349247213114758 33.14746491803279 2.5823887676869107e-05
444 1 23.946697049180333 32.74676196721312 9.339846300318293e-05
445 1 27.261382950819677 34.57057639344262 6.588633104112111e-05
446 1 29.85459147540984 33.71388196721312 1.7401627029435676e-05
447 1 32.07870491803279 32.81280524590164 9.68877741167632e-06
448 1 34.748105573770495 32.688140983606566 8.979004074526696e-05
449 1 36.7266268852459 32.18261704918033 7.819512178085551e-05
450 1 40.53426426229508 32.73706754098361 7.753738317244841e-05
451 1 42.396755409836075 31.909910819672135 7.393348043959287e-05
452 1 46.18268131147541 32.7053586885246 4.2065812683731445e-05
453 1 48.8952524590164 32.614776393442625 3.58652469292015e-05
454 1 50.992177049180334 31.916020327868853 4.7937246108008374e-05
455 1 55.85857704918033 32.48905180327869 9.818210360967331e-05
456 1 57.30062295081968 33.03193967213115 8.024852329901485e-05
457 1 59.937809836065576 33.37518295081968 2.774856595104677e-05
458 1 62.36091147540984 34.28438885245902 5.1782218641449665e-05
459 1 64.6380918032787 32.500866885245905 6.791082632137526e-05
460 1 66.84256393442624 31.60584918032787 8.466255230436617e-05
461 1 70.07706885245902 32.65158491803279 3.176036702520252e-05