# input file

2232 atoms
1 atom types

0.0 82.68810555352132 xlo xhi
0.0 83.16 ylo yhi
-10.0 10.0 zlo zhi
0.0 0.0 0.0 xy xz yz

Masses

1 12.0100 #C

Atoms

1 1 1.6690873442622953 1.0576265573770494 5.61643849934027e-05
2 1 4.1366722622950824 1.1827149508196722 8.223607077256854e-05
3 1 6.458457049180328 0.9237828852459017 7.28117892491427e-05
4 1 9.146236721311476 0.5845385573770493 8.108372657449459e-06
5 1 12.177714098360658 0.14807630163934427 5.924909068085568e-05
6 1 14.36971475409836 1.0894565901639346 4.021843003817377e-05
7 1 17.60770360655738 0.45407228196721316 1.8276651284377055e-05
8 1 20.24226491803279 0.5201312131147542 8.541636439883115e-05
9 1 22.839361311475415 0.6757772459016393 2.369421901397365e-05
10 1 25.524767868852464 0.45874630819672135 6.3098026007309075e-06
11 1 29.43056131147541 0.5699464262295082 8.669035596049723e-05
12 1 30.989142295081972 0.3398158950819673 6.055219946669185e-05
13 1 33.63743737704919 0.3526534360655738 9.186566981929057e-05
14 1 36.14693049180328 0.17869958032786887 4.1102234319127944e-05
15 1 38.768717377049185 83.0140786885246 8.7146359050819e-05
16 1 41.07619278688525 1.1004436065573773 5.2808374181210986e-05
17 1 44.01612852459017 0.5727537704918033 4.205042335180667e-05
18 1 46.24024196721312 2.1475931147540988 9.491104058102953e-05
19 1 50.31053770491804 1.7444211147540984 1.3050932503497126e-05
20 1 51.886386885245905 1.667865442622951 9.059561059930378e-05
21 1 54.59931147540984 0.8715895081967214 4.8412277983046606e-05
22 1 57.34000655737706 0.34182041967213117 6.421693921547622e-05
23 1 61.00217704918033 0.3422768655737705 8.552099693793864e-05
24 1 62.52198032786885 0.5078718032786885 3.043573529345032e-05
25 1 65.22581639344264 1.0563339672131147 9.638964484877143e-05
26 1 68.6915737704918 1.1040941639344264 1.6641420594216283e-05
27 1 71.54638032786886 1.141109704918033 9.806616678308775e-05
28 1 73.88162622950821 1.1826341639344262 8.731045284124588e-05
29 1 76.33704262295083 0.6629523278688526 2.398199559651815e-07
30 1 78.90909508196722 0.6936412459016393 3.35834307859025e-05
31 1 81.57708196721312 0.9828986885245903 4.284931785196089e-05
32 1 82.68537704918033 3.1584238688524593 8.215782734850665e-05
33 1 2.690359803278689 3.663957901639345 4.825791889077335e-05
34 1 5.622060327868853 3.552744655737705 1.3372844570465215e-05
35 1 7.996487868852459 2.9420210491803283 2.0484521048643114e-05
36 1 9.962790163934427 1.9028795409836068 2.3196789411073795e-05
37 1 13.608803278688526 2.3962702950819676 9.972885813096894e-05
38 1 15.559705573770492 2.024029573770492 1.6261077724484542e-05
39 1 19.041216393442625 2.7902780327868855 4.758055989681407e-05
40 1 21.552527213114757 2.9206983606557384 5.2734466309862726e-05
41 1 24.8394931147541 2.6724705573770495 4.645570287615348e-05
42 1 26.1323862295082 1.8619357377049184 5.128927166017472e-06
43 1 29.060607868852465 3.6313553442622957 9.196875230627242e-05
44 1 33.31600655737706 2.3757756721311476 4.492013168115229e-05
45 1 34.86024786885246 2.661796590163935 5.924049650097275e-05
46 1 38.40295475409837 2.10996662295082 1.0973525750002101e-07
47 1 39.95229573770492 2.152339344262295 3.5082327052393137e-05
48 1 42.35489770491804 2.7366001967213114 3.059485547048929e-05
49 1 45.06555016393443 3.100216918032787 8.172702295908881e-05
50 1 47.24477639344263 3.312671278688525 9.253633008862893e-05
51 1 50.932091803278695 4.4927556065573775 5.5017136000650715e-05
52 1 54.206485245901646 3.26003862295082 3.944982966562599e-05
53 1 55.64146229508197 2.7128084590163937 2.756885323131422e-05
54 1 58.30389508196722 2.755145836065574 9.765659125635101e-05
55 1 60.942596721311475 2.8110251147540986 9.874486060998933e-05
56 1 63.59745573770493 2.9395166557377053 1.4853301469842763e-06
57 1 66.0619606557377 2.334912655737705 8.102672653842471e-05
58 1 69.80037377049182 3.1924048524590165 6.476991646494102e-05
59 1 72.3688918032787 3.654233180327869 4.102944199828956e-05
60 1 75.74527868852459 3.2130206557377052 1.645295908271818e-05
61 1 77.24740983606559 2.959117573770492 5.207954063895391e-05
62 1 79.84369836065575 3.0458473442622953 1.3261123106082984e-05
63 1 0.8973504262295083 5.56672131147541 3.81677471598669e-05
64 1 3.114087016393443 5.19363737704918 5.672734870051177e-06
65 1 6.756813114754099 5.607114754098362 8.335691669122378e-05
66 1 9.352899672131148 4.941587344262296 1.2354276490263994e-05
67 1 12.258652459016394 4.382138163934426 2.571580053717546e-05
68 1 14.730428196721313 4.847283803278689 6.492802127021288e-05
69 1 17.28288983606558 4.840351278688526 6.889492987204381e-05
70 1 20.480333770491807 5.239837377049181 1.822775173210054e-05
71 1 22.006801967213114 5.2601350819672135 8.30544380927371e-05
72 1 24.549518688524593 5.5911088524590165 1.4096998701955011e-05
73 1 27.171760000000003 5.623221639344263 6.631989535358106e-05
74 1 29.817530491803282 4.979688459016394 2.3477014595862702e-05
75 1 33.32151016393443 4.99500262295082 7.373165572869228e-05
76 1 36.67729639344263 5.063368524590165 7.275828384420828e-05
77 1 38.21416590163935 4.903057049180328 5.627713830085673e-05
78 1 40.897603278688536 4.842123540983606 3.4989711932900606e-05
79 1 43.68187278688525 5.0806872131147545 5.464582659737039e-07
80 1 45.94410754098361 6.778575081967214 5.7742983486295574e-05
81 1 48.47011147540984 5.5807580327868855 4.234962930375115e-05
82 1 52.36555409836066 6.644620327868854 9.616182889372357e-05
83 1 54.81491147540984 6.01796655737705 4.821103904033164e-05
84 1 57.238013114754104 4.945510557377049 2.071315365698695e-05
85 1 59.90852459016394 5.012275868852459 1.2529131456652487e-05
86 1 62.3972655737705 5.172733770491804 5.613430785929585e-05
87 1 65.00971147540983 5.009236262295082 9.669562748067543e-05
88 1 67.67820327868854 4.933367278688525 1.1227887519894431e-05
89 1 70.39516721311476 5.645740983606558 5.524757988208793e-05
90 1 73.18988852459017 6.275373770491804 3.8047824799833375e-06
91 1 75.64328524590164 5.853262295081968 6.865215808722587e-05
92 1 78.24714754098362 5.305729180327869 8.475598396977392e-05
93 1 80.98077377049181 5.146023606557378 8.990532649080686e-06
94 1 82.26023606557378 8.728265573770493 5.481434943490849e-06
95 1 2.2670365245901642 7.943572459016394 1.6529958722025563e-05
96 1 4.837175344262296 7.6458727868852465 2.655411407602567e-05
97 1 7.294348852459017 7.04320262295082 4.428795920127884e-05
98 1 11.082900327868852 6.4912767213114755 3.6113173342503525e-07
99 1 13.560230163934428 7.000739016393443 1.2903382017559828e-05
100 1 15.95793442622951 7.208664262295082 4.6367416717167065e-05
101 1 18.038297704918033 6.172067540983607 6.614268117696165e-06
102 1 21.351165901639348 9.545020983606559 8.19985931382984e-05
103 1 23.82273967213115 8.641722622950821 5.1204171013375945e-05
104 1 26.067857704918033 7.962405901639345 7.261101994774087e-05
105 1 28.16175278688525 6.799933114754099 7.664136336662343e-05
106 1 31.94121573770492 7.284300983606558 8.180450655731224e-05
107 1 34.29963737704919 8.683984262295082 4.5183509479630174e-05
108 1 37.010643278688526 8.397392786885247 3.7293938959756616e-05
109 1 40.513815081967216 6.947621639344263 2.760821596848735e-05
110 1 42.05830885245902 7.097380327868853 5.110182256728576e-05
111 1 44.86282557377049 7.8674813114754105 5.3281088385709545e-05
112 1 47.44270426229509 8.358160655737706 3.315697941184375e-05
113 1 50.52058360655738 8.435615081967214 6.543930304166862e-05
114 1 53.444563934426235 7.747209836065575 1.1957663251785622e-05
115 1 57.19156065573771 7.4119947540983615 9.297483831149154e-05
116 1 58.70025573770493 7.18680131147541 1.4363232668024485e-05
117 1 61.10467540983608 8.469848524590164 4.7834755627271565e-05
118 1 63.79285901639345 7.4335547540983615 8.762641799679941e-05
119 1 66.18314098360656 7.252238688524591 9.513268855196807e-05
120 1 68.59311475409837 7.344436721311476 4.191060403069217e-05
121 1 70.83798032786885 7.111063606557378 3.0379508485161612e-05
122 1 74.24718688524591 8.407188196721313 2.0561448671392135e-05
123 1 77.2469049180328 7.832641967213116 9.271994828471158e-05
124 1 79.94720655737706 7.367208524590165 2.517770424698559e-05
125 1 0.995344918032787 10.45978098360656 3.072961304310557e-05
126 1 3.673662426229509 10.172684590163936 9.070062572953406e-05
127 1 6.310364590163935 9.872460327868854 2.4148674938103023e-06
128 1 11.558735081967214 9.922699672131149 3.093061838074415e-05
129 1 10.969394754098362 8.50812131147541 5.4573370767641775e-05
130 1 14.52800655737705 9.590514098360657 4.7312031642673394e-06
131 1 18.264803934426233 8.880750819672132 9.030765548935965e-05
132 1 19.564765901639344 7.985379672131149 9.190804809816514e-05
133 1 22.529240655737706 11.245080000000002 7.145616750943795e-06
134 1 25.59949573770492 10.800045245901641 9.866126561144165e-05
135 1 28.134840655737708 9.659586885245902 2.9002972833137653e-05
136 1 30.793739016393445 9.38127606557377 1.5789798221392814e-07
137 1 33.49247540983607 10.00277967213115 2.199945052419705e-05
138 1 37.14586032786886 9.904219672131148 6.954040154466422e-05
139 1 38.650061639344266 9.915024918032788 1.9410667883271416e-05
140 1 40.92244524590165 11.28360524590164 2.2584837885383427e-05
141 1 43.29606491803279 9.544869508196722 1.1029454431485975e-05
142 1 46.01111016393443 10.404593442622952 9.09326933069473e-06
143 1 48.05284721311476 9.780464262295084 9.847587470666766e-05
144 1 51.61019672131148 11.810386229508197 7.00831971047846e-05
145 1 54.131252459016395 10.52436 6.925205641624802e-05
146 1 56.81287213114755 9.975110163934428 9.125130484349726e-05
147 1 61.02691803278689 9.988389508196722 5.295102864727758e-05
148 1 62.56237377049181 9.931636721311476 2.59600108599941e-05
149 1 65.34093770491803 9.810304918032788 2.020729294369851e-05
150 1 67.69335081967215 9.702403934426231 4.078173990565496e-05
151 1 69.94680000000001 10.986259016393445 2.0039550727250644e-05
152 1 72.8187737704918 10.500275409836066 8.828697071341032e-05
153 1 75.09696393442623 9.657668196721312 1.7870534959596996e-05
154 1 78.63896393442624 9.761832786885247 5.934737367981114e-06
155 1 81.31300983606559 9.9176 6.199762292207321e-05
156 1 81.84973770491804 13.436222295081969 5.549191703338048e-05
157 1 2.021762491803279 12.545597377049182 5.40495519469922e-05
158 1 5.1521331147541 12.369885901639345 1.2475688469021329e-05
159 1 7.308133114754099 11.084314098360657 8.560203577994415e-05
160 1 10.782979016393442 12.23689049180328 9.046435377506474e-05
161 1 13.084445901639347 11.792916065573772 8.907808521453872e-05
162 1 15.538095081967214 11.706726557377051 1.1109689696335235e-05
163 1 17.97578885245902 11.831895737704919 2.788140277927498e-06
164 1 20.343299016393445 12.352971147540984 2.89685472292751e-05
165 1 23.04572131147541 12.650569836065575 9.818549485546213e-05
166 1 27.503087213114757 12.294956065573771 3.3485172211582494e-05
167 1 29.90028655737705 11.771659016393444 8.794495360660294e-05
168 1 31.870426229508197 13.350487213114755 8.261959029052268e-05
169 1 34.47580327868853 12.511161967213116 2.870510408823345e-05
170 1 37.20493573770492 12.214118688524591 1.585974947495924e-05
171 1 40.767637377049184 12.829260327868854 9.996847926082927e-05
172 1 43.54347475409836 11.681531147540985 5.817616942105414e-05
173 1 44.911701639344265 13.878379016393444 5.4755127676559246e-05
174 1 47.64305573770493 12.7042931147541 6.981564693199466e-05
175 1 50.63822950819673 12.99951868852459 6.616260682807685e-05
176 1 54.346347540983615 12.67576524590164 1.1077400185812171e-05
177 1 55.8712 12.46056918032787 5.79013359776727e-05
178 1 58.38064262295082 12.289805901639346 1.2291493724322512e-05
179 1 61.28291147540984 13.0954531147541 7.406553087941792e-05
180 1 64.13620327868853 12.02507737704918 1.2441736236182888e-05
181 1 66.80368524590165 12.288644590163937 3.731843782761289e-05
182 1 69.37523278688525 12.40634098360656 5.355892299773141e-05
183 1 71.66251147540984 13.950481311475412 9.640781751488455e-05
184 1 75.34184918032788 12.104652459016396 1.8722139278338145e-05
185 1 76.89093770491803 11.974989508196723 9.899533506209658e-05
186 1 79.59325901639345 12.039265573770493 3.0376329541662284e-05
187 1 0.8221125901639345 14.786928524590165 1.1325109222141172e-05
188 1 2.9083884590163938 13.789917377049182 2.3489949988563697e-05
189 1 6.925001311475411 14.025310163934428 1.0171369348217607e-05
190 1 9.608135737704918 14.306852459016396 1.2901182031685677e-05
191 1 12.023007213114756 14.503316065573772 8.15248873342066e-05
192 1 14.465447213114755 14.171433442622952 6.166897184875397e-05
193 1 16.90081836065574 15.236154098360657 6.823090068805761e-05
194 1 19.572036721311477 14.506699016393444 1.0887043448126522e-06
195 1 22.129749508196724 14.574913442622952 2.5724179333288677e-05
196 1 25.382683934426232 12.366351475409838 6.723828316967084e-05
197 1 28.380432786885248 14.393445901639344 6.727514213969129e-05
198 1 31.041754754098363 14.670342950819673 3.823243085786913e-05
199 1 34.44323606557378 14.71396786885246 1.679126114024646e-05
200 1 36.94162098360656 14.11038885245902 3.461911415531527e-05
201 1 38.255114754098365 13.344024262295084 6.855420803785301e-05
202 1 41.74081639344262 15.144511475409837 3.7809077996271635e-05
203 1 44.360078688524595 15.305479344262297 6.314541534442336e-05
204 1 46.5082524590164 15.274780327868854 5.606988740110136e-05
205 1 48.9089862295082 14.841964590163936 6.3753676284277e-05
206 1 51.52587540983607 15.197881311475411 5.000636798012556e-05
207 1 54.4892393442623 15.11785180327869 5.613459056860729e-05
208 1 57.65356065573771 14.779152786885247 7.697155882629337e-06
209 1 61.96707540983607 14.480796721311478 1.9086523735514596e-05
210 1 63.411645901639346 14.03828655737705 6.026985428711287e-05
211 1 65.37022295081968 15.831755409836067 4.532432956348363e-05
212 1 68.13616393442624 14.78748393442623 7.608840880740413e-05
213 1 70.72740327868853 15.169252459016395 2.219560703925897e-05
214 1 73.20352131147541 15.459832786885247 7.49685988826909e-05
215 1 75.59481311475412 14.709625573770493 5.524064375359905e-05
216 1 78.15424262295083 14.319172459016395 9.91181271409533e-05
217 1 80.97572459016394 14.686045901639345 2.6170473292992304e-05
218 1 82.19762622950822 17.082689836065576 1.2898603772917195e-05
219 1 2.5367586885245905 16.688752786885246 4.911159290581062e-05
220 1 4.639404000000001 15.284626229508198 1.0679280985828133e-05
221 1 8.115547540983608 16.379187540983608 2.737120251565617e-05
222 1 10.563188196721313 16.88925573770492 1.0127624399487668e-06
223 1 13.2217331147541 16.789433442622954 6.744371669201671e-05
224 1 16.04366950819672 16.487946885245904 8.480437447429882e-05
225 1 18.572652459016393 17.005740327868853 7.227180269593164e-05
226 1 21.91884524590164 16.570450491803282 2.0893950761400915e-05
227 1 23.484545573770493 16.38484262295082 8.382419348972293e-05
228 1 26.280327213114756 16.403120655737705 2.0231312655661262e-05
229 1 28.983658360655742 16.72561180327869 8.121190853264356e-05
230 1 31.66482360655738 17.24648524590164 7.82333720016794e-05
231 1 34.44540721311476 17.257139016393445 6.741133186172332e-05
232 1 36.9109724590164 16.353184262295084 7.892802508810819e-05
233 1 39.86979213114755 16.931971803278692 6.469969091675703e-05
234 1 43.4227993442623 17.479504918032788 6.158879871349447e-05
235 1 44.92286032786886 17.825777704918032 2.8144202947030627e-05
236 1 47.957367213114765 17.494601967213118 6.273676677927621e-05
237 1 50.61752786885246 17.19155016393443 3.614365796143453e-05
238 1 52.36201967213115 16.45139081967213 8.704401253610788e-05
239 1 55.627829508196726 16.126324590163936 1.4265754624867478e-05
240 1 58.84213770491804 16.91924786885246 9.325377131127814e-05
241 1 60.4528262295082 15.977979672131148 8.869041670890304e-05
242 1 64.90064918032787 17.321667540983608 4.5647876806303024e-05
243 1 66.87235409836066 17.23300393442623 9.541946211222131e-05
244 1 69.39795409836066 17.360849180327868 5.789398663316866e-05
245 1 71.98868852459016 17.682734426229512 3.217699462881874e-05
246 1 74.76826229508198 17.406544262295082 4.139314448143812e-05
247 1 76.93486557377051 16.88849836065574 5.97954340303336e-05
248 1 79.38573770491804 16.589435409836067 6.74824352115866e-07
249 1 0.42704654426229516 18.294644590163937 6.0893326662848804e-05
250 1 4.039238229508197 18.27096393442623 6.0388677715944194e-05
251 1 6.52384393442623 18.328726557377053 6.514795858836936e-05
252 1 8.970020327868854 18.995470819672132 5.243290842367235e-05
253 1 11.139855081967214 18.31650754098361 8.903889729218319e-05
254 1 14.592989508196723 18.689793442622953 4.655037583969393e-05
255 1 16.36020262295082 20.10639147540984 5.09367022189528e-05
256 1 19.1808262295082 19.441767868852462 9.389734321874205e-05
257 1 21.68128131147541 19.425862950819674 6.110463819837754e-05
258 1 24.546337704918034 18.714736393442625 9.1083750802081e-05
259 1 27.332020983606558 18.869140327868855 2.724376155250943e-05
260 1 30.106192131147544 19.19960918032787 1.051407259784446e-05
261 1 33.09874032786885 19.39980918032787 4.041022104644583e-05
262 1 37.66794557377049 19.65974098360656 8.76096694334494e-05
263 1 37.36070295081968 18.174171147540985 1.2237707615136406e-05
264 1 40.497051803278694 19.745375081967214 8.833724680145426e-05
265 1 43.04219213114755 19.900536393442625 6.234224785280662e-05
266 1 45.47650295081967 19.276811147540986 6.181199215553341e-05
267 1 49.236476065573775 19.52078754098361 8.173795428540044e-05
268 1 53.00881967213115 19.00375147540984 8.8727861586985e-05
269 1 54.539731147540984 18.959571147540984 3.0805228895831685e-05
270 1 58.04891147540984 19.218695081967216 3.950464613989446e-06
271 1 60.51796065573771 18.95628918032787 1.0593636698289555e-05
272 1 62.02261639344263 18.90498950819672 6.670494165554545e-05
273 1 63.75145573770492 18.33337180327869 9.91494719340394e-05
274 1 67.78373114754099 19.600312131147543 3.0540799356415114e-05
275 1 69.78674098360656 18.8642931147541 3.05122193844945e-05
276 1 73.40195409836066 19.628436065573773 2.5403638713919818e-05
277 1 75.89473442622952 19.711141639344262 8.642690912061598e-05
278 1 78.21230819672132 19.154368524590165 1.7633356769525556e-05
279 1 80.75204590163936 18.8458131147541 3.8761512184474734e-05
280 1 82.64801311475411 22.07632918032787 5.136524001630338e-06
281 1 2.734206885245902 20.848368524590164 4.973680983704203e-05
282 1 5.308506229508198 20.706284590163936 6.207051244349194e-05
283 1 7.6237573770491815 22.166810491803282 2.047498320143383e-05
284 1 10.504516721311477 21.186360655737708 7.520616354332225e-05
285 1 13.26641836065574 21.182220327868855 6.434303287256039e-05
286 1 15.753947540983608 21.49577442622951 4.926112327676716e-05
287 1 18.37926885245902 22.624518688524592 7.68385270911099e-05
288 1 20.604998032786888 22.784274754098362 6.534870176317521e-06
289 1 23.030624262295085 21.168133114754102 7.241763063759535e-05
290 1 25.706740327868854 21.03872262295082 9.69867838791898e-05
291 1 28.68055606557377 21.265632786885245 9.603553401785281e-06
292 1 31.473762622950822 21.22246229508197 9.350502107999655e-05
293 1 34.19774491803279 21.231399344262297 5.5963221878646796e-05
294 1 36.54879475409836 21.422510819672134 8.580076454639807e-05
295 1 39.11201114754099 21.87234229508197 8.041736501217728e-05
296 1 42.17524786885246 22.171405245901642 3.881063085516702e-05
297 1 45.5510793442623 21.613925245901644 9.668174978849604e-05
298 1 47.10390426229509 21.648209180327868 7.786592043359668e-05
299 1 50.80030819672132 21.827859016393443 5.308058156994354e-05
300 1 52.30950819672131 21.66128655737705 5.412507010808906e-05
301 1 54.94820983606557 21.573834754098364 1.8941143138411687e-05
302 1 57.522281967213125 21.784739016393445 1.5185073493162117e-05
303 1 60.29276721311476 21.25942229508197 2.2219630259496473e-06
304 1 63.24603278688525 21.378380983606558 9.016406324652782e-06
305 1 66.14072786885247 21.476688524590163 5.7083800923001886e-05
306 1 69.08187540983607 21.823971147540984 3.502235624169855e-05
307 1 72.0528131147541 21.848914098360655 5.409651069657118e-05
308 1 74.93236065573771 22.60417049180328 9.695853936725608e-06
309 1 77.77908852459018 21.823819672131147 2.1071194767863135e-05
310 1 80.18148852459016 21.194590819672133 1.973607166395586e-05
311 1 1.6492491147540986 23.276266885245903 7.836514850148961e-05
312 1 4.263113836065574 23.16831540983607 4.02478991491001e-06
313 1 6.846537049180328 23.513527868852464 4.548031242779365e-05
314 1 9.40132131147541 23.476163934426232 1.3761021376648753e-05
315 1 12.05895737704918 23.441526557377053 4.471325751811297e-05
316 1 14.654387540983608 23.789112131147544 5.9138771340732736e-05
317 1 17.44103016393443 23.852580327868854 6.46039749046502e-06
318 1 19.894477377049185 24.140939016393443 3.7041225974375205e-05
319 1 22.117379016393443 23.938719344262296 2.202306030101805e-05
320 1 24.377695081967218 23.365536393442625 3.0412532347372957e-05
321 1 26.48264786885246 22.367565901639345 7.878993566460426e-05
322 1 29.893116721311475 23.342966557377054 2.1583566278202826e-05
323 1 33.56195213114754 23.218908196721316 2.8155152096320738e-05
324 1 34.98844655737705 23.734681967213117 3.8421993380381795e-05
325 1 37.5755455737705 23.927257704918034 5.127237418299756e-05
326 1 39.739927213114754 23.27263147540984 7.491739128092152e-05
327 1 43.25849901639345 24.390368524590166 7.323061409802288e-05
328 1 45.84312393442623 24.389964590163938 6.269393683132179e-05
329 1 48.23643540983607 24.30165442622951 6.2193421933211e-05
330 1 50.92855737704918 24.125740983606562 2.1088123266596893e-05
331 1 53.85506229508197 23.894942950819672 2.9125887777336257e-05
332 1 56.77449836065574 24.61586491803279 2.646349304976978e-05
333 1 59.68636065573771 23.50782229508197 9.069439688840007e-05
334 1 62.41695737704919 24.519324590163937 5.7188502822980486e-05
335 1 65.18643278688526 23.56821049180328 1.019165783426772e-05
336 1 67.9680262295082 24.676556065573774 8.87486227767973e-06
337 1 70.75820327868854 23.956189508196726 7.653187738677478e-05
338 1 74.99295081967215 24.120085901639346 7.895972266193678e-05
339 1 76.52790163934426 24.148916721311476 9.979628374539017e-05
340 1 80.19714098360656 23.595829508196722 7.161154002256162e-05
341 1 81.74168524590165 23.329687213114756 9.890958350979144e-05
342 1 1.0087706885245902 25.502248524590165 8.866273093297754e-05
343 1 2.5448474754098362 25.479224262295084 3.464858181579982e-05
344 1 4.941259147540984 25.665084590163936 5.8290224918541514e-05
345 1 8.686559344262296 25.751678032786888 6.775369363968054e-06
346 1 10.225044590163936 25.655945573770495 3.57027485658745e-05
347 1 12.822342950819673 25.943092459016395 8.981206777440622e-05
348 1 16.529198688524595 26.026000000000003 2.201605400304686e-05
349 1 18.062180327868855 26.32213442622951 2.4579555294466472e-05
350 1 20.740063606557378 26.564848524590168 5.6250788598089965e-05
351 1 23.306006557377053 26.115622950819674 8.174746837875203e-05
352 1 25.900679344262297 25.288314754098366 4.458446764539876e-05
353 1 28.62097573770492 25.63186098360656 6.73287347334691e-05
354 1 31.21948590163935 25.871141639344266 8.980954840137252e-05
355 1 33.48929442622951 27.023819016393446 7.342735106298324e-05
356 1 36.315371147540986 26.13228524590164 9.870752029841728e-05
357 1 39.002292459016395 26.129407213114757 5.966713300664022e-05
358 1 41.632864918032794 26.342028196721316 1.1215013183264856e-05
359 1 44.42728327868853 26.689361311475412 1.7917618138454063e-05
360 1 47.20438295081968 26.889005901639347 3.2762126398948936e-06
361 1 49.865553442622954 26.44927278688525 7.619181885925353e-05
362 1 52.738688524590174 26.151017704918036 2.7823199202955242e-05
363 1 56.28523278688525 26.077501639344263 1.176030406961306e-05
364 1 59.04965901639345 25.646301639344266 1.2211757860629925e-05
365 1 61.861547540983615 25.968893770491807 7.781208436314022e-05
366 1 64.30535081967214 26.172375737704918 4.8159563107644976e-05
367 1 68.11142295081967 26.20711409836066 9.228864256134901e-05
368 1 69.63324590163936 26.409030819672136 3.883523722384181e-05
369 1 71.79782950819673 26.268764590163936 2.2696038367781714e-05
370 1 74.24971147540984 26.22362491803279 5.2391870591007176e-05
371 1 77.54884590163935 26.44149704918033 4.425775565734089e-05
372 1 79.87702295081968 26.398579016393445 5.112039578272278e-05
373 1 0.5022833704918034 28.11585573770492 5.302947821392409e-05
374 1 3.196121049180328 28.03855278688525 4.688765048564021e-05
375 1 5.862502295081968 28.31903475409836 2.6824088377106183e-05
376 1 8.257278032786886 29.486001311475412 8.812936911622631e-05
377 1 10.806154754098362 28.06122360655738 1.7845543675325516e-05
378 1 13.509586885245904 28.377756721311478 6.598248051008695e-05
379 1 16.67592786885246 29.893369180327873 1.7950427564268102e-05
380 1 19.474032131147542 28.76013114754099 3.7959907141984855e-05
381 1 22.426035409836068 28.656673442622953 9.306638790364262e-05
382 1 24.970721311475412 27.870566557377053 6.330919861106222e-05
383 1 27.27966098360656 27.629821639344268 8.645344803609803e-05
384 1 29.25792983606558 27.05724459016394 7.01108533903278e-05
385 1 32.90990098360656 29.160682622950823 5.922277859032333e-05
386 1 35.607678032786886 28.29267803278689 8.082505842038629e-05
387 1 37.58832 29.750426885245904 6.67489878747083e-05
388 1 40.30639475409836 28.55205442622951 1.4538604568893132e-05
389 1 43.10010622950821 28.636779672131148 4.562370313013549e-05
390 1 45.201373114754105 30.06287016393443 6.762476025144803e-05
391 1 49.82056524590164 28.56412196721312 2.290766882910833e-05
392 1 51.38146885245902 28.33761573770492 7.78442813742748e-06
393 1 53.81769836065575 27.284912131147543 1.8535839411013445e-06
394 1 57.949442622950826 27.929641967213115 1.6615720995227367e-05
395 1 59.98224262295083 29.059598032786887 3.836830949654199e-05
396 1 62.806249180327875 28.562304262295083 5.876933955220886e-05
397 1 65.3156918032787 28.588408524590168 5.010050926908547e-05
398 1 67.83068852459017 28.74038885245902 1.5449159966003833e-05
399 1 71.60596065573772 28.814106885245902 2.8166306391124497e-06
400 1 73.86799344262296 28.391995409836067 9.371422830350032e-05
401 1 75.09342950819672 27.488242622950825 8.881473600378463e-05
402 1 77.60590163934427 30.145676721311478 4.566073427801904e-05
403 1 81.7356262295082 28.552205901639347 2.6026900982063396e-05
404 1 82.48492459016394 31.250639344262297 4.812180619021765e-05
405 1 2.24849593442623 30.28205508196722 7.291388451683153e-05
406 1 5.997365901639345 30.964754754098365 4.4287970112494125e-05
407 1 7.536961967213116 30.843877377049182 9.810104382427883e-05
408 1 9.80409442622951 30.751073442622953 1.7564455603850216e-05
409 1 12.312880655737706 30.37667672131148 5.189571978156661e-05
410 1 14.38021704918033 29.62864065573771 4.898658864508051e-05
411 1 18.368615081967214 30.99994754098361 1.4687064390243033e-06
412 1 20.424186885245902 29.98541573770492 9.211410408821967e-05
413 1 24.345632786885247 30.403487868852462 4.609588092886603e-05
414 1 26.757777704918038 30.137396065573775 2.232542161011397e-05
415 1 28.795121967213117 31.39959016393443 6.768747012183455e-05
416 1 32.846331803278694 30.668216393442624 4.299771386462126e-05
417 1 34.36098491803279 30.73966229508197 6.268540662940304e-05
418 1 36.890018360655745 31.12940852459017 6.842302833604452e-05
419 1 39.4410662295082 30.998382295081967 3.8144925107149224e-05
420 1 41.59772262295082 31.988526557377053 3.2029166521365008e-06
421 1 44.36260327868853 31.334354754098364 1.9012452576839146e-06
422 1 46.55202885245902 30.774653114754102 1.477609149466208e-06
423 1 50.365624262295086 31.249881967213117 2.289023528458777e-05
424 1 53.8656655737705 29.82485180327869 4.92056070641781e-05
425 1 56.68462295081968 30.004501639344266 2.209550967642463e-05
426 1 59.22587540983607 30.387179016393446 2.4809669184435925e-05
427 1 61.14254426229508 32.14252655737705 8.563490989242043e-05
428 1 64.75927213114755 30.840292459016396 2.9231924492521845e-05
429 1 66.28412459016394 31.0220124590164 2.58329864457995e-05
430 1 68.80164590163935 31.309512786885247 9.891847288029393e-05
431 1 71.20303606557378 31.265887868852463 2.335050184047769e-05
432 1 73.82558032786886 30.96414885245902 2.1206039454636284e-05
433 1 76.66675409836067 31.362983606557382 1.656806603407013e-06
434 1 78.79195409836066 31.09926491803279 3.837631226941203e-05
435 1 1.2439514098360658 33.12191606557378 2.696032961714011e-05
436 1 4.026352721311476 33.05238885245902 6.421643678608803e-05
437 1 6.2338695081967215 33.707419016393445 2.24098182880661e-06
438 1 9.084737704918034 33.33377967213115 5.0768436869528745e-05
439 1 11.807558688524592 32.76196 4.535755142920883e-05
440 1 14.16305180327869 33.79330557377049 7.881244667820682e-05
441 1 16.959388852459018 32.96099868852459 6.623926549391194e-05
442 1 19.733257049180327 32.922776393442625 3.980079604965215e-06
443 1 23.7669462295082 32.574938360655736 7.797855915106638e-05
444 1 25.32537573770492 32.68506098360656 1.697361326301955e-05
445 1 27.95887672131148 32.700915409836064 5.472523501570736e-05
446 1 30.36652786885246 33.27687540983607 5.1431144460507815e-05
447 1 32.826740983606555 32.928027540983614 7.605524231224318e-05
448 1 34.92038360655738 34.29433573770492 9.900671431828781e-05
449 1 37.83007475409836 33.42895672131148 5.4018487118826656e-05
450 1 40.59197639344262 33.13822491803279 7.13537575552411e-06
451 1 43.18473049180328 33.72589901639344 2.0297817781172856e-05
452 1 45.97717967213115 33.5274662295082 8.984908542691462e-05
453 1 48.362059016393445 32.33878819672132 3.8098752248412684e-05
454 1 51.794996721311485 31.771159344262298 8.228643005754187e-05
455 1 55.44706885245902 32.066990819672135 1.6989772260821102e-06
456 1 57.69698360655738 32.63906295081968 9.29063629019027e-05
457 1 60.077672131147544 33.242692459016396 5.7299857906982543e-05
458 1 62.52652459016394 33.809311475409835 3.0736343704038516e-05
459 1 64.88600655737706 33.626632131147545 5.484695820962552e-05
460 1 67.65497704918033 33.561447213114754 3.4447915660303376e-05
461 1 70.34871475409837 33.73872393442623 9.721841142738914e-05