# input file

2232 atoms
1 atom types

0.0 82.68810555352132 xlo xhi
0.0 83.16 ylo yhi
-10.0 10.0 zlo zhi
0.0 0.0 0.0 xy xz yz

Masses

1 12.0100 #C

Atoms

1 1 1.5772326557377052 0.937784262295082 3.737667692137033e-05
2 1 5.532891803278689 0.9922901639344263 6.277887216009836e-05
3 1 7.099299016393443 1.0930465573770494 5.710026988500506e-05
4 1 9.704474098360656 0.6345456393442623 4.404224660025824e-05
5 1 12.590232131147541 0.3170981180327869 7.171485567203025e-05
6 1 15.290129836065574 0.5709411147540984 7.427739453119887e-05
7 1 17.565441967213115 0.6643610491803279 8.105122580537634e-05
8 1 20.000055737704923 0.1738942754098361 1.8188049707256583e-05
9 1 22.170193442622953 1.6726217704918036 4.7562558592993675e-05
10 1 25.210860327868854 0.952184524590164 9.754568930916486e-05
11 1 28.051024262295083 1.590052524590164 7.204663403516791e-05
12 1 30.606212459016398 1.758023606557377 3.8708268993615925e-05
13 1 32.90611409836066 0.22963571147540984 5.764320048925134e-05
14 1 35.425655081967214 1.4505487213114756 1.8718679575590482e-05
15 1 38.25678098360656 0.7871066229508198 7.985413157456358e-05
16 1 40.708511475409836 0.4862996852459017 9.342144032222563e-05
17 1 42.81422163934427 2.1393730491803282 1.3345367993859193e-05
18 1 45.77975672131148 1.6441999344262297 1.5271822827295747e-05
19 1 48.98644065573771 1.3590020327868855 3.30867088630316e-05
20 1 51.725822950819676 1.8668536393442625 8.085491173955118e-05
21 1 54.61041967213115 1.2968163278688525 4.237681980137575e-05
22 1 57.08451803278689 1.076813442622951 5.339766350036884e-05
23 1 59.81713442622951 0.45263680000000006 9.506276296000361e-06
24 1 63.00872131147542 0.4264451868852459 2.0040196115052533e-05
25 1 65.74992131147542 0.3933781049180328 7.43241549368378e-05
26 1 68.16797377049181 0.8803952786885247 9.783773174791133e-05
27 1 71.02782950819673 1.0970000655737706 5.493251801648585e-05
28 1 73.5776655737705 0.6846840000000001 1.541324251004589e-05
29 1 76.34512131147542 0.6123544918032787 2.8393807600438815e-05
30 1 78.54151475409837 2.170147803278689 1.0703015846529762e-05
31 1 0.012934788196721314 0.6197969836065574 3.8717536625120386e-05
32 1 0.1814826885245902 4.210435737704919 4.662025181324719e-05
33 1 2.8942053114754103 3.4858127213114756 7.386200154631285e-05
34 1 5.22443737704918 3.342850229508197 6.644851022062901e-05
35 1 9.664232131147543 2.7532877377049183 2.2456625975761646e-05
36 1 11.151569180327868 2.4507055081967217 2.1741943893193384e-05
37 1 13.693074098360656 2.669138098360656 6.562181730507805e-05
38 1 16.08078098360656 3.1542179016393446 4.3846694385547136e-05
39 1 18.54937573770492 2.831146098360656 6.348772442781096e-05
40 1 21.183331147540986 2.8237389508196724 3.6429278859173186e-05
41 1 23.363567213114756 2.634682491803279 5.329821549439662e-06
42 1 27.318893114754104 2.9716900327868854 9.217185289541129e-05
43 1 29.941033442622953 3.1499917377049185 8.16870691967234e-05
44 1 33.26808983606558 2.6671133770491804 6.219449685248393e-05
45 1 34.806221639344265 2.849358491803279 3.6027694258720336e-05
46 1 37.294710163934425 3.0737996065573774 2.8346135570249365e-05
47 1 39.831519344262304 3.125902098360656 8.56056381571577e-05
48 1 42.12995672131148 3.5376627540983607 6.308524432563862e-05
49 1 44.471665573770494 3.7488901639344268 1.9695822195325285e-06
50 1 46.71365311475411 2.936275081967213 1.759183999195515e-05
51 1 50.72911475409836 3.019455278688525 8.487522081997094e-05
52 1 53.199173770491804 3.513709442622951 6.2807898338302e-05
53 1 55.75557377049181 3.67446524590164 6.738228779504233e-05
54 1 59.481363934426234 2.5781619672131146 5.0151687606732554e-05
55 1 60.711849180327874 1.6812760655737706 3.3902051307111203e-05
56 1 64.17912131147541 2.62262 5.13216853963171e-06
57 1 66.52194098360656 3.0053731147540987 8.204565492585535e-05
58 1 68.85718688524591 2.243865836065574 4.49852347560129e-05
59 1 72.56379016393443 3.193697442622951 2.371643681476239e-05
60 1 75.00506885245903 2.7575441967213115 8.689957197468057e-05
61 1 77.69981639344263 3.461127278688525 2.7214864010214358e-05
62 1 80.37184262295082 3.55486531147541 7.207024344993455e-05
63 1 1.627477049180328 5.938997377049181 8.008605226556206e-05
64 1 4.150734229508197 5.975048524590164 4.106715456402532e-05
65 1 6.708694426229509 5.170057704918033 2.7649960270966845e-05
66 1 8.265659672131148 4.032169377049181 2.4437324405528638e-05
67 1 12.32924 4.913887540983606 1.2634056783278491e-05
68 1 14.579760655737706 6.507838032786886 5.768029598772754e-05
69 1 17.303187540983608 5.46124393442623 8.575803511738491e-05
70 1 20.10159475409836 5.100025573770492 5.2838820730175266e-05
71 1 22.723179672131153 6.230739016393443 4.736171973380415e-05
72 1 25.482354754098363 5.2075731147541 3.917726238670775e-05
73 1 28.05733573770492 5.317948196721312 9.959370241592492e-06
74 1 30.77667278688525 5.566670819672132 2.6985230821379757e-05
75 1 33.318177704918035 5.451398032786885 7.848461845990909e-05
76 1 36.8351337704918 5.142640655737705 9.890438120976281e-05
77 1 38.340647868852464 5.470635409836066 5.181385017553073e-05
78 1 40.663321311475414 5.937230163934427 9.581168697420372e-06
79 1 43.3119193442623 6.1318255737704925 8.119090112548779e-05
80 1 46.136935737704924 5.745916721311476 4.976077394224486e-05
81 1 48.7094931147541 5.21444 6.33310938894922e-05
82 1 51.54354754098361 5.5817173770491815 3.336028912109469e-05
83 1 54.30544918032787 5.941976393442624 1.6035002236886377e-05
84 1 56.32714098360656 5.115728524590165 3.903309941787189e-05
85 1 59.96255081967214 5.269324590163935 2.3056704632154556e-05
86 1 62.55984918032787 4.7732931147540985 3.4138600196161384e-05
87 1 64.87590819672131 5.259327213114754 2.8554482401152927e-05
88 1 68.13818360655739 4.992069049180328 9.725503163637943e-05
89 1 71.07175737704918 5.311131803278689 8.84435620122149e-05
90 1 75.53119344262296 6.226699672131148 7.224933688407124e-05
91 1 75.13230819672131 4.765971803278689 2.8090540224739346e-05
92 1 77.97247213114754 4.966035475409837 6.099213357516217e-05
93 1 81.92244590163935 5.4008052459016405 7.406778944334082e-05
94 1 82.68032786885247 8.025116721311477 8.011689503032033e-05
95 1 2.1788323934426232 7.350293770491803 6.239457913797431e-06
96 1 5.283866229508197 6.971554754098361 3.6007707696073526e-05
97 1 8.39375737704918 8.51503868852459 4.917983531333942e-05
98 1 10.948188196721313 7.045929180327869 9.121434699391073e-05
99 1 13.778657704918036 7.8434472131147555 2.089029247472546e-05
100 1 16.25593704918033 8.07227606557377 8.585090771426977e-05
101 1 18.89968786885246 7.444561967213115 8.800327226630293e-05
102 1 21.7526262295082 7.423506885245903 6.221778620860613e-05
103 1 24.209304918032792 7.8095672131147555 1.2743022131991155e-05
104 1 26.80695672131148 7.674047213114755 2.3421827431535315e-05
105 1 29.486001311475412 7.6233029508196735 2.0489997041413833e-05
106 1 32.158280000000005 7.856120655737706 4.475722918460923e-05
107 1 34.75259934426229 7.875459016393443 5.264220614006076e-05
108 1 37.425635409836076 8.972797377049181 4.922739624544392e-05
109 1 39.75598360655738 9.512100327868852 9.193552984190334e-06
110 1 42.2985993442623 8.371137049180328 3.4460882351949465e-05
111 1 45.154365245901644 8.00926229508197 3.7109751480553376e-05
112 1 48.03068131147541 7.727720000000001 4.723838560230291e-05
113 1 50.683672131147546 7.421133770491804 3.581668611995475e-05
114 1 53.33297704918033 8.863836065573771 3.118491728519504e-05
115 1 56.11305573770492 8.075608524590164 7.848178951063783e-05
116 1 58.64774426229509 7.68308524590164 3.6872485064854936e-05
117 1 61.364708196721324 7.308688524590164 9.508577862272115e-05
118 1 63.58432786885247 7.5282268852459024 2.1147048186825613e-05
119 1 65.72720000000001 6.521672786885246 8.4103550664953e-05
120 1 69.27980327868853 6.996952131147541 9.301923393282562e-05
121 1 71.78672131147542 6.676733114754099 9.354068999442408e-05
122 1 75.12523934426231 8.674390819672132 1.4029244323404355e-06
123 1 77.42312131147541 7.693688524590165 3.3700493290576585e-05
124 1 80.04314098360656 7.36316918032787 3.899129429929866e-05
125 1 1.8432638688524592 10.078012459016396 4.468357422627945e-05
126 1 5.89552393442623 9.583950163934428 9.372140744847054e-05
127 1 7.455417704918033 9.729316065573773 4.582266393542515e-05
128 1 9.901190163934427 9.737192786885247 2.8811160324849827e-05
129 1 12.006496393442625 10.645893770491803 2.5440883991964092e-05
130 1 15.45008786885246 11.860625573770493 7.447976233856657e-05
131 1 18.606633442622954 9.761378360655739 9.014603702321993e-05
132 1 20.119670819672134 9.515786229508198 5.88778327240696e-05
133 1 22.76428 9.996518688524592 5.7703306887569386e-05
134 1 24.725836065573773 9.26544786885246 6.729422804934861e-05
135 1 28.22936131147541 9.88220524590164 3.187344497268208e-05
136 1 30.639385573770493 9.961780327868855 1.127180646102921e-05
137 1 33.32024786885246 10.166120655737705 3.271653053415302e-05
138 1 36.81680524590164 10.42771868852459 7.496415096057963e-05
139 1 39.22066950819673 10.971464918032787 3.761110807216698e-05
140 1 41.797165245901645 11.041547540983608 3.744138434199257e-05
141 1 44.3467993442623 10.198182950819673 6.727228446220686e-05
142 1 47.08431344262296 9.874883934426231 4.9692647522401236e-05
143 1 49.93639344262296 9.816262950819672 2.0990027192992433e-05
144 1 52.71647213114755 10.268114098360657 5.356928645635555e-05
145 1 55.278426229508206 10.53632655737705 5.0770501736631324e-05
146 1 58.60432131147541 9.900281311475412 2.233244464123928e-05
147 1 60.152904918032796 9.666756721311476 6.342332985395512e-05
148 1 62.50127868852459 11.254673442622952 3.8790804363968145e-05
149 1 65.95794754098361 9.18304524590164 4.607533263390667e-05
150 1 67.49037377049181 9.046969836065575 5.793785252413565e-05
151 1 70.20733770491803 9.121394754098363 3.465229630497624e-05
152 1 72.89299672131149 9.200767868852461 9.537198084382492e-05
153 1 76.7616786885246 10.505476065573772 2.5789073418858876e-05
154 1 78.99190163934426 9.785311475409836 5.685355813934745e-06
155 1 81.55032131147541 10.764801967213115 3.0470004072871405e-05
156 1 0.26095224262295086 12.14484393442623 5.7174871274258536e-05
157 1 3.0135073442622953 11.925659016393444 3.773075666040987e-05
158 1 5.550866885245902 12.140905573770494 7.256199982106455e-05
159 1 8.224104918032788 12.272487213114756 2.0879703535484652e-05
160 1 11.207261639344264 11.927476721311475 7.39665576870165e-05
161 1 13.41072393442623 11.213623606557379 6.047281921108591e-05
162 1 17.039418360655738 13.48550229508197 5.130115646961997e-06
163 1 18.904181639344266 12.67616918032787 2.6184878039810745e-05
164 1 21.508296393442624 11.986653114754098 2.547415653755436e-05
165 1 24.41834098360656 12.231184918032788 2.214923599639498e-05
166 1 26.904355409836068 12.065319344262297 8.582117152424773e-06
167 1 29.294384918032787 12.35781836065574 9.991978617936304e-05
168 1 31.862700983606562 12.268952786885247 3.0480371755802672e-05
169 1 34.22697967213115 11.37953967213115 5.305420937283345e-05
170 1 37.686223606557384 14.42990098360656 4.6039093617010395e-05
171 1 39.751287868852465 12.40866360655738 4.971522121578137e-05
172 1 43.80951606557378 12.749180327868853 1.7769962333506186e-05
173 1 46.227215081967216 12.163525901639344 7.984918582848347e-05
174 1 48.72706426229509 11.919095081967216 5.0410875672176494e-05
175 1 51.31885901639345 12.235173770491803 3.397232536095291e-05
176 1 53.6460262295082 12.754582950819673 5.4090689535661945e-05
177 1 56.0908393442623 12.84168131147541 1.3716268135637388e-05
178 1 59.03754098360656 12.660516721311478 1.3426640554292491e-05
179 1 62.22508852459017 12.808306229508199 3.231351479505309e-05
180 1 64.48510163934426 12.587505573770493 7.772641124189142e-05
181 1 66.67493114754099 11.698496393442625 7.6253935902814e-05
182 1 69.3005049180328 11.257500983606558 1.4103826181425928e-05
183 1 71.94779016393443 12.318030819672133 9.142491801303761e-05
184 1 75.02223606557378 12.524188852459018 1.916193099290654e-05
185 1 79.04138360655739 12.36089836065574 4.816283475586607e-05
186 1 80.50817049180328 11.89541442622951 4.5980708138171416e-05
187 1 1.676605573770492 14.14760131147541 1.2282696260189586e-05
188 1 4.12056537704918 15.151580327868853 2.9289186155643987e-05
189 1 6.956609180327869 14.551687213114755 9.506481412368498e-05
190 1 8.911500327868854 13.67408918032787 4.521080299516078e-06
191 1 12.234466885245903 15.220956065573771 2.625775059066975e-05
192 1 15.136281311475411 14.906745573770493 2.7564908142063017e-05
193 1 19.263683278688525 15.43049704918033 2.8429286590309557e-05
194 1 21.21438360655738 14.256764590163936 9.930871451273573e-05
195 1 22.347975081967213 13.253391475409837 9.860641848010865e-05
196 1 25.735823606557382 14.56850098360656 8.056109611393497e-05
197 1 28.087580327868857 14.683016393442623 7.952074319018397e-05
198 1 30.68159672131148 14.635604590163936 6.559783995495334e-05
199 1 33.5082793442623 14.120537704918034 2.625581684175773e-05
200 1 35.67841704918033 13.112115409836068 1.4936011670533134e-05
201 1 39.59966098360656 15.202375081967213 4.665831260615608e-05
202 1 41.67103672131148 13.982947540983607 5.262186748780248e-05
203 1 45.555017704918036 14.786524590163935 4.131722660461096e-05
204 1 48.016038688524596 14.342398688524591 5.4201033470395e-05
205 1 50.63318032786886 15.38348918032787 4.63011949415931e-05
206 1 52.10703606557377 14.986522622950822 7.832917529783536e-05
207 1 55.232478688524594 15.19217573770492 6.624694917782628e-05
208 1 56.88457049180329 14.134422950819674 3.949706616656351e-05
209 1 60.11150163934427 13.7853731147541 6.525992246864584e-05
210 1 63.42881311475411 15.214442622950822 8.692865400595748e-05
211 1 65.96400655737706 14.537751475409838 3.882333037490141e-05
212 1 68.29824262295082 13.785019672131149 7.064549592840946e-05
213 1 70.94704262295083 13.473990163934427 6.76221457874742e-05
214 1 73.42013114754099 14.084739016393444 1.9595567342359678e-05
215 1 75.51503606557378 15.136382295081969 9.696666902213329e-05
216 1 77.34384918032788 14.534419016393443 4.098414521853922e-05
217 1 81.51598688524591 14.40712918032787 9.74858337676854e-06
218 1 0.49648489180327876 16.3202131147541 8.17212655003223e-05
219 1 3.3292881311475413 16.452703606557378 8.575631751447668e-05
220 1 5.025009901639345 18.175332459016396 8.638313269215916e-05
221 1 8.943461639344264 16.69869967213115 3.091808351074005e-05
222 1 11.61897180327869 16.612611147540985 5.917925147834641e-05
223 1 13.110954098360658 16.905564590163937 1.9685867769645883e-05
224 1 15.493611803278691 17.490562622950822 9.958039836178364e-05
225 1 17.424266885245903 16.902989508196722 3.568651572308551e-05
226 1 21.347227540983607 17.131818360655743 6.918193303589066e-05
227 1 24.087468196721314 16.664920655737706 8.506978406216747e-06
228 1 26.777368524590166 17.151308196721313 1.3847879376274076e-05
229 1 29.623440000000006 16.98554360655738 7.718569436099477e-05
230 1 32.3757986885246 16.384792131147545 9.574106098497277e-05
231 1 34.916748196721315 16.091384262295083 5.12273196186328e-05
232 1 37.324904262295085 15.937333770491804 2.4341019422969404e-05
233 1 41.018480655737704 16.935910163934427 5.2275580259974296e-05
234 1 43.80663803278689 16.806146229508197 6.797871259919197e-05
235 1 47.34611344262296 16.897283934426234 1.7080882480877557e-05
236 1 48.792956065573776 17.3674131147541 4.687269397294991e-06
237 1 50.82000000000001 18.251625573770493 7.954936734606953e-05
238 1 52.88309508196722 16.328796721311477 9.08852641970238e-05
239 1 57.7348524590164 16.768883278688527 9.568899765065978e-05
240 1 59.274852459016394 16.683754098360655 4.861455689201331e-05
241 1 61.76712786885247 17.340400000000002 2.92262851863086e-05
242 1 65.62520655737706 16.95848 4.346361325139573e-05
243 1 67.11067540983606 16.544901639344264 5.004630660852586e-05
244 1 70.1704786885246 15.831351475409837 4.1931885184126385e-05
245 1 71.67160000000001 16.026552786885247 2.7825375185619716e-05
246 1 73.67814426229509 17.98911868852459 5.7639555879270804e-05
247 1 77.86744918032787 18.23011606557377 6.490299969391746e-05
248 1 80.2153180327869 16.278557377049182 9.999539244485254e-05
249 1 1.3189266885245903 18.441020327868852 6.102200750533936e-05
250 1 3.7149344262295085 18.972345573770493 5.44893789958983e-05
251 1 5.828066885245902 19.853982950819674 8.569057008332088e-05
252 1 8.526500327868854 19.339219016393443 9.682437850000783e-05
253 1 11.100471475409837 18.867979016393445 9.649043594987473e-05
254 1 13.877823606557378 19.558252459016398 5.0444658826628696e-05
255 1 16.817708852459017 19.8006131147541 3.201425906268855e-05
256 1 20.233731803278694 19.5442662295082 3.752794744332354e-05
257 1 22.987908196721314 19.111652459016394 2.8037405177920118e-05
258 1 25.58556 19.125133770491804 9.949488030972119e-05
259 1 27.60659540983607 18.461318032786888 1.7044026371617727e-05
260 1 31.46275540983607 18.70918229508197 1.913967227242438e-05
261 1 33.499291803278695 19.88448 9.736627955036302e-05
262 1 36.1594524590164 18.53059278688525 6.544119113723932e-05
263 1 38.95240655737705 19.047729836065578 2.6460614404477525e-05
264 1 42.840830819672135 18.948513442622954 7.365186890108619e-05
265 1 44.328925245901644 19.228692459016393 1.9152125454364378e-05
266 1 46.57081180327869 19.632273442622953 7.474433614452186e-05
267 1 49.11812327868853 20.250444590163937 2.6435083429854212e-05
268 1 52.11965901639345 19.058939016393445 3.579349136287635e-05
269 1 54.59022295081968 17.968265573770495 6.0937159264272705e-05
270 1 57.900970491803285 19.50760918032787 3.441173175926702e-05
271 1 59.85399344262296 20.7916662295082 5.485835165207439e-05
272 1 63.58584262295083 19.75451409836066 6.359868603578562e-05
273 1 65.12281311475411 19.569512131147544 9.936574344293324e-05
274 1 68.85920655737706 18.89176065573771 8.511109367192549e-06
275 1 70.37497049180328 18.764117377049182 7.047701063611719e-05
276 1 72.85613770491804 19.26938885245902 6.440988971481499e-06
277 1 75.16310819672131 18.349731147540986 3.503516746911486e-05
278 1 80.26076065573771 18.411886557377052 3.5562403429483094e-05
279 1 81.7553180327869 18.218452459016394 2.5794176616138067e-05
280 1 82.35364590163935 20.831857704918036 5.157120650862348e-05
281 1 1.7881318688524592 21.028270819672134 4.029912599359968e-05
282 1 3.790237901639345 22.77054098360656 6.474281982540385e-05
283 1 6.344042622950821 21.26679409836066 3.8611754706762505e-05
284 1 10.007424918032788 21.400243934426232 6.197894801145041e-05
285 1 12.7258531147541 21.349600655737706 1.7396616820940635e-05
286 1 15.485583606557379 21.63200131147541 7.644879798974604e-05
287 1 17.95695540983607 20.836856393442627 1.1389243548496543e-05
288 1 21.75444393442623 21.49335081967213 9.768394173108101e-05
289 1 24.636061639344266 21.437355409836066 9.034814522191461e-05
290 1 27.37938229508197 21.365101639344264 1.4632332485065015e-06
291 1 30.095942295081972 21.11925704918033 3.854923902694201e-05
292 1 32.756102950819674 21.25099016393443 2.9637154826584212e-05
293 1 35.089329180327866 21.087144262295084 1.6051434696085476e-05
294 1 37.51066360655738 20.906181639344265 1.5969321183687324e-06
295 1 39.4787331147541 20.489472786885248 3.197510444509647e-05
296 1 42.949842622950825 21.74373967213115 8.516814778521523e-05
297 1 45.24368524590164 21.951361967213117 4.793245148276382e-06
298 1 47.42927344262296 23.348874098360657 2.933662964894377e-05
299 1 50.25277508196722 22.206648524590165 7.493008187715183e-05
300 1 53.048708196721314 21.85754819672131 5.0275694257767224e-05
301 1 55.93078032786886 21.731217704918034 4.747472267251203e-05
302 1 58.7780131147541 21.94929180327869 4.582595286416241e-05
303 1 61.267259016393446 22.731460327868856 3.211195507989024e-05
304 1 63.77114754098361 22.483899016393444 8.302743436233447e-05
305 1 67.2212524590164 21.63821180327869 7.991359501440749e-05
306 1 68.7501442622951 21.566462950819673 7.98165610905842e-05
307 1 71.26817049180329 21.45411868852459 1.1261468287911958e-05
308 1 74.13105573770493 21.162377049180332 8.842876814606667e-05
309 1 78.41377049180329 21.228117377049184 2.0908949675361856e-05
310 1 80.83788196721312 21.032310163934426 4.443425802124285e-05
311 1 0.38036434754098364 23.588356721311477 4.69837922391947e-05
312 1 3.040545704918033 24.101252459016393 9.866801306619375e-05
313 1 5.652102950819673 23.780074098360657 9.256093877241715e-05
314 1 8.34604262295082 23.373110163934427 8.004111097307231e-05
315 1 10.500578360655739 22.84092655737705 5.078000938950326e-05
316 1 13.950026885245903 23.668992131147544 1.526024341767951e-05
317 1 17.35711278688525 23.482626885245907 5.3443148981813685e-05
318 1 20.400960655737705 23.78275016393443 4.226026355812657e-05
319 1 23.163367213114757 23.52630229508197 9.056968991805569e-05
320 1 25.966571147540986 23.70373049180328 1.2797127052266878e-05
321 1 29.555326557377054 23.412493770491803 6.06738632414455e-05
322 1 31.120925901639346 23.507973770491805 2.7364350424365792e-05
323 1 34.58572393442623 23.555688524590167 6.315854890628884e-05
324 1 36.11052590163935 23.39467016393443 7.001965682751703e-05
325 1 38.82541967213115 23.37305967213115 2.2599545667022524e-05
326 1 41.570356065573776 23.829051147540987 8.31019079392018e-05
327 1 43.413963278688534 25.611462295081967 8.994458791376889e-05
328 1 46.9278393442623 24.80889508196722 8.99129130887756e-05
329 1 49.67822885245902 24.27050098360656 9.630108946014728e-05
330 1 52.00857704918034 25.3131062295082 8.043195030600543e-05
331 1 54.417036065573775 24.081308196721313 4.3011543507535234e-05
332 1 56.881036065573774 24.000571803278692 2.333234359428912e-05
333 1 59.55609180327869 24.60692786885246 3.353121098288022e-05
334 1 62.5320786885246 24.99970360655738 7.098876683563314e-05
335 1 65.94179016393443 24.550579016393446 1.5305453799878934e-05
336 1 67.46007868852459 24.358306229508198 8.122085705007625e-05
337 1 70.06141639344264 24.073936393442626 3.268671527254e-05
338 1 73.37418360655738 23.277478688524592 1.6684091416131553e-05
339 1 74.89752131147543 23.232086557377052 7.617628621949384e-05
340 1 77.5084524590164 23.310399344262297 5.423821623056553e-05
341 1 80.27439344262297 23.511205245901643 7.095111046256e-05
342 1 81.58112131147543 25.804088524590167 3.938058736142221e-05
343 1 1.6414329836065575 26.14500918032787 4.544416412045239e-05
344 1 5.506636065573772 25.771874754098363 4.958997554370667e-05
345 1 7.025530491803279 25.72850229508197 3.946640996232427e-05
346 1 9.451409180327868 25.639232786885252 7.361567290962528e-05
347 1 12.22452 25.64145442622951 5.06473858044917e-05
348 1 14.79212918032787 24.935175081967216 8.62038476321507e-05
349 1 18.21668524590164 24.741488524590164 7.812741915800292e-05
350 1 22.082590163934427 25.80565377049181 9.252976775871753e-05
351 1 24.1265993442623 26.900013114754103 1.3303900840956507e-05
352 1 26.9016793442623 26.132184262295084 4.122292134918486e-05
353 1 29.337454426229513 26.22443278688525 8.438217054995246e-05
354 1 32.12283475409836 26.218474754098363 5.0708865394795005e-05
355 1 34.60268918032787 26.15303737704918 1.488993867638534e-05
356 1 37.255225573770495 25.62383278688525 4.317880983463446e-05
357 1 40.04373639344263 25.789799344262295 9.743748727192895e-05
358 1 42.530356721311485 26.862800655737708 7.940772988091377e-05
359 1 44.66111081967214 26.495977704918037 2.1849584656363586e-05
360 1 48.37129901639344 26.60519147540984 4.865156393942044e-05
361 1 51.121940983606564 26.544348852459017 3.492391145448547e-05
362 1 53.27794098360656 26.91147475409836 4.1640850222004204e-05
363 1 55.480393442622955 26.529504262295085 8.076379575609403e-05
364 1 58.10596721311476 26.469116065573775 4.732673265787968e-06
365 1 60.324072131147545 25.926430163934427 4.001284048532948e-05
366 1 63.7756918032787 27.267088524590168 1.9992741235357914e-05
367 1 66.29371803278688 28.537613770491806 1.7661007260029372e-05
368 1 68.80215081967215 26.69637967213115 5.957609980304937e-05
369 1 71.6180786885246 26.446849180327874 7.662077287269043e-05
370 1 74.04269508196722 25.819236065573772 4.577910131637473e-05
371 1 76.59152131147542 25.495331147540988 6.258987235554261e-05
372 1 78.85607868852459 26.69915672131148 5.08789792269281e-05
373 1 0.5290935081967213 28.127923278688527 6.350931871996511e-05
374 1 2.4787335081967217 27.466127213114756 3.9572386593280554e-05
375 1 6.239979016393443 28.31035016393443 4.5921939358869345e-05
376 1 8.506404590163935 29.38476524590164 4.4068243728414274e-05
377 1 10.833117377049183 27.78781049180328 8.658119779156183e-05
378 1 13.289240655737707 26.741519344262297 9.856685958413104e-05
379 1 17.191954098360657 28.213809836065575 3.672796882692175e-05
380 1 19.647471475409837 26.74687147540984 6.463920772792698e-05
381 1 23.103786885245903 28.03315016393443 1.7439614810241966e-05
382 1 25.48715147540984 28.5039862295082 7.739727313853939e-05
383 1 28.558820327868858 29.628994098360657 8.40993246531104e-05
384 1 31.243772459016398 28.386996721311476 5.219465226796993e-06
385 1 33.69090819672131 28.636880655737706 7.240269657867372e-05
386 1 36.99635409836066 27.906617704918034 1.59434352421287e-05
387 1 38.54948196721312 27.834212459016396 4.359336502896971e-05
388 1 40.90906491803279 29.515892459016396 5.5569550873493715e-05
389 1 43.962354754098364 29.295697704918034 8.865614759387381e-05
390 1 47.81482885245902 28.776440000000004 4.6215606433039294e-05
391 1 49.375227540983616 28.65682491803279 9.61103924096604e-05
392 1 51.09972459016394 30.400357377049183 5.66443490099247e-05
393 1 54.44480655737705 29.337201967213115 4.263310925740338e-06
394 1 57.11582295081968 28.751648524590166 8.618379844326726e-05
395 1 59.81259016393443 28.654704262295084 6.525529718361756e-06
396 1 62.50026885245902 29.298626229508198 2.7438290331281867e-05
397 1 65.29448524590165 29.742348196721313 3.7527069845378926e-05
398 1 67.92359344262296 29.415161311475412 9.225457197481937e-05
399 1 70.99652459016394 28.57674491803279 9.511106680134418e-06
400 1 74.31636065573771 27.936710819672133 1.0929388081380487e-05
401 1 75.86393442622952 27.990282622950822 9.145303665706271e-05
402 1 78.37539672131147 28.143474754098364 2.1076990026362743e-05
403 1 80.72478032786887 29.49993704918033 1.1003155982779633e-05
404 1 82.51118032786886 30.741025573770496 6.68602613564325e-05
405 1 2.2766653114754103 30.38288721311476 7.183358831228015e-06
406 1 5.055340327868853 30.65731016393443 2.5018426911535874e-05
407 1 7.974776393442624 30.823882622950823 5.2881608594553934e-05
408 1 10.942432131147543 30.263171147540987 8.998536865160268e-05
409 1 13.57825573770492 30.158148196721314 1.2781300611994451e-06
410 1 16.53111737704918 29.605262950819675 4.9543508724366516e-05
411 1 18.947200655737706 29.590973770491807 8.182040512282724e-05
412 1 21.44078885245902 30.056811147540987 5.8490481473646275e-05
413 1 24.16694229508197 30.656249836065577 6.144146088399322e-05
414 1 26.439174426229513 29.674537704918038 8.671670175108915e-06
415 1 29.96466360655738 30.807573770491807 7.110233923699975e-05
416 1 32.4193731147541 31.00883409836066 4.160819634945378e-05
417 1 34.857723278688525 31.14884786885246 5.687727544175876e-05
418 1 37.31758295081967 30.600102950819675 6.69158313847371e-05
419 1 40.05206754098361 30.805907540983608 8.44825242695708e-05
420 1 42.2841586885246 31.250336393442627 8.146528998608367e-05
421 1 44.961688524590166 31.619784918032792 1.617165856243098e-05
422 1 48.10899409836066 31.029737704918034 6.0312304791287344e-05
423 1 50.378247213114754 32.29304262295082 9.773458032100511e-05
424 1 52.402918032786886 31.240692459016394 4.756199718375706e-05
425 1 56.21050491803279 31.177628196721315 1.1234357033072706e-05
426 1 58.75933114754099 30.90795147540984 1.6402836383894404e-05
427 1 60.940577049180334 32.32853836065574 9.228128519844802e-05
428 1 63.76104918032787 31.698350163934432 6.801064058128471e-05
429 1 65.8317180327869 31.176365901639347 2.5380705246615035e-05
430 1 69.14347540983607 30.28882098360656 8.460655637120652e-05
431 1 72.41988852459018 30.759455081967214 2.512181169494001e-05
432 1 74.62486557377049 30.693613770491805 4.9957934262415027e-05
433 1 77.66093770491804 30.531585573770496 5.8208576659120095e-05
434 1 81.01712786885246 30.987223606557382 4.970569564783758e-05
435 1 0.9265649836065575 32.97023868852459 3.644906663598014e-05
436 1 3.7422302950819675 32.70101639344263 4.278010020980052e-05
437 1 6.54348524590164 32.740248524590164 3.779485071115686e-05
438 1 8.979209836065575 31.990041311475416 7.063522023358684e-05
439 1 13.109439344262297 31.606505573770495 9.293925702831221e-05
440 1 15.143350163934429 33.04648131147542 6.139238744120134e-05
441 1 17.86748393442623 32.0822393442623 7.130864032135912e-05
442 1 20.122144918032788 33.53736262295082 2.7185587212725505e-05
443 1 22.914947540983608 32.517579672131156 8.588515451422088e-05
444 1 25.78788065573771 32.563476721311474 3.680972430362417e-05
445 1 28.275662295081972 32.6520393442623 3.433763648281729e-05
446 1 30.851501639344264 33.25359868852459 6.778968657926379e-05
447 1 32.79907147540984 32.51646885245902 4.1306376198957796e-05
448 1 36.105527213114755 33.21355868852459 7.51472235687618e-05
449 1 38.51711672131148 32.950647868852464 1.9634964140990175e-05
450 1 40.723305573770496 33.538321967213115 9.302500596345377e-05
451 1 43.100308196721315 33.59179278688525 7.197870345527333e-05
452 1 45.57253836065574 33.02759737704918 8.234821970227852e-05
453 1 49.298580983606556 33.3478668852459 8.726459287630923e-05
454 1 51.694518032786895 34.210064918032785 5.631960311634443e-05
455 1 55.611167213114754 33.384019016393445 7.17015620654032e-05
456 1 57.15924590163935 33.32812459016394 8.541229262233255e-05
457 1 59.897416393442626 33.45071868852459 8.015720823268069e-05
458 1 62.458360655737714 34.03955409836066 2.4829426890455133e-05
459 1 65.52775737704918 34.005724590163936 5.493711067324011e-05
460 1 69.60749508196723 32.79715278688525 5.748905493959509e-05
461 1 71.12325901639345 33.02492131147541 1.924782584533207e-05