ITEM: TIMESTEP
0
ITEM: NUMBER OF ATOMS
2232
ITEM: BOX BOUNDS xy xz yz pp pp pp
0.0 82.68810555352132 0
0.0 83.16 0
-10.0 10.0 0
ITEM: ATOMS id type x y z vx vy vz
1 1 1.5772326557377052 0.937784262295082 8.93195116368e-05 0.0 0.0 0.0
2 1 5.532891803278689 0.9922901639344263 6.03614657731e-06 0.0 0.0 0.0
3 1 7.099299016393443 1.0930465573770494 2.19826158983e-05 0.0 0.0 0.0
4 1 9.704474098360656 0.6345456393442623 3.31064857367e-05 0.0 0.0 0.0
5 1 12.590232131147541 0.3170981180327869 7.23285571908e-05 0.0 0.0 0.0
6 1 15.290129836065574 0.5709411147540984 3.66902929577e-05 0.0 0.0 0.0
7 1 17.565441967213115 0.6643610491803279 9.70270235565e-08 0.0 0.0 0.0
8 1 20.000055737704923 0.1738942754098361 4.24230313119e-05 0.0 0.0 0.0
9 1 22.170193442622953 1.6726217704918036 7.12139505917e-05 0.0 0.0 0.0
10 1 25.210860327868854 0.952184524590164 6.88873217287e-05 0.0 0.0 0.0
11 1 28.051024262295083 1.590052524590164 3.40963281205e-06 0.0 0.0 0.0
12 1 30.606212459016398 1.758023606557377 1.95635818513e-05 0.0 0.0 0.0
13 1 32.90611409836066 0.22963571147540984 3.31499057359e-05 0.0 0.0 0.0
14 1 35.425655081967214 1.4505487213114756 1.53605081797e-05 0.0 0.0 0.0
15 1 38.25678098360656 0.7871066229508198 5.27071941802e-05 0.0 0.0 0.0
16 1 40.708511475409836 0.4862996852459017 7.8821768343e-05 0.0 0.0 0.0
17 1 42.81422163934427 2.1393730491803282 5.31290186541e-05 0.0 0.0 0.0
18 1 45.77975672131148 1.6441999344262297 3.6553337148e-05 0.0 0.0 0.0
19 1 48.98644065573771 1.3590020327868855 5.18830623036e-05 0.0 0.0 0.0
20 1 51.725822950819676 1.8668536393442625 2.19473105265e-06 0.0 0.0 0.0
21 1 54.61041967213115 1.2968163278688525 3.53403792913e-05 0.0 0.0 0.0
22 1 57.08451803278689 1.076813442622951 9.64210267357e-05 0.0 0.0 0.0
23 1 59.81713442622951 0.45263680000000006 3.84493349018e-06 0.0 0.0 0.0
24 1 63.00872131147542 0.4264451868852459 5.98223211463e-06 0.0 0.0 0.0
25 1 65.74992131147542 0.3933781049180328 8.84742273078e-05 0.0 0.0 0.0
26 1 68.16797377049181 0.8803952786885247 5.19390397809e-05 0.0 0.0 0.0
27 1 71.02782950819673 1.0970000655737706 4.36504980563e-05 0.0 0.0 0.0
28 1 73.5776655737705 0.6846840000000001 9.57902976452e-05 0.0 0.0 0.0
29 1 76.34512131147542 0.6123544918032787 9.79621470249e-05 0.0 0.0 0.0
30 1 78.54151475409837 2.170147803278689 5.22370793368e-05 0.0 0.0 0.0
31 1 0.012934788196721314 0.6197969836065574 1.919181975e-05 0.0 0.0 0.0
32 1 0.1814826885245902 4.210435737704919 2.60252536069e-05 0.0 0.0 0.0
33 1 2.8942053114754103 3.4858127213114756 3.41873814515e-05 0.0 0.0 0.0
34 1 5.22443737704918 3.342850229508197 1.1925296339e-05 0.0 0.0 0.0
35 1 9.664232131147543 2.7532877377049183 6.08646204793e-05 0.0 0.0 0.0
36 1 11.151569180327868 2.4507055081967217 4.67439934743e-05 0.0 0.0 0.0
37 1 13.693074098360656 2.669138098360656 8.67103241956e-05 0.0 0.0 0.0
38 1 16.08078098360656 3.1542179016393446 4.33234478074e-05 0.0 0.0 0.0
39 1 18.54937573770492 2.831146098360656 8.01058361279e-05 0.0 0.0 0.0
40 1 21.183331147540986 2.8237389508196724 9.09076210432e-05 0.0 0.0 0.0
41 1 23.363567213114756 2.634682491803279 1.68778521905e-05 0.0 0.0 0.0
42 1 27.318893114754104 2.9716900327868854 5.22399631519e-05 0.0 0.0 0.0
43 1 29.941033442622953 3.1499917377049185 9.88934751514e-05 0.0 0.0 0.0
44 1 33.26808983606558 2.6671133770491804 7.19485768059e-05 0.0 0.0 0.0
45 1 34.806221639344265 2.849358491803279 1.44857789046e-05 0.0 0.0 0.0
46 1 37.294710163934425 3.0737996065573774 1.27760518736e-05 0.0 0.0 0.0
47 1 39.831519344262304 3.125902098360656 8.72911481619e-05 0.0 0.0 0.0
48 1 42.12995672131148 3.5376627540983607 9.27659359766e-05 0.0 0.0 0.0
49 1 44.471665573770494 3.7488901639344268 2.96379224041e-05 0.0 0.0 0.0
50 1 46.71365311475411 2.936275081967213 7.40838106244e-05 0.0 0.0 0.0
51 1 50.72911475409836 3.019455278688525 9.01555627745e-05 0.0 0.0 0.0
52 1 53.199173770491804 3.513709442622951 2.18267477689e-05 0.0 0.0 0.0
53 1 55.75557377049181 3.67446524590164 8.09846742629e-06 0.0 0.0 0.0
54 1 59.481363934426234 2.5781619672131146 4.89167285374e-05 0.0 0.0 0.0
55 1 60.711849180327874 1.6812760655737706 5.0997334374e-05 0.0 0.0 0.0
56 1 64.17912131147541 2.62262 3.32716810945e-05 0.0 0.0 0.0
57 1 66.52194098360656 3.0053731147540987 5.45754840544e-05 0.0 0.0 0.0
58 1 68.85718688524591 2.243865836065574 9.93268464608e-05 0.0 0.0 0.0
59 1 72.56379016393443 3.193697442622951 8.93699729121e-05 0.0 0.0 0.0
60 1 75.00506885245903 2.7575441967213115 8.47588400713e-05 0.0 0.0 0.0
61 1 77.69981639344263 3.461127278688525 1.14708244158e-05 0.0 0.0 0.0
62 1 80.37184262295082 3.55486531147541 1.69062860264e-05 0.0 0.0 0.0
63 1 1.627477049180328 5.938997377049181 6.30264340392e-06 0.0 0.0 0.0
64 1 4.150734229508197 5.975048524590164 3.30647225198e-06 0.0 0.0 0.0
65 1 6.708694426229509 5.170057704918033 4.92160783744e-06 0.0 0.0 0.0
66 1 8.265659672131148 4.032169377049181 1.13619385946e-05 0.0 0.0 0.0
67 1 12.32924 4.913887540983606 4.0646280007e-05 0.0 0.0 0.0
68 1 14.579760655737706 6.507838032786886 7.59920184415e-05 0.0 0.0 0.0
69 1 17.303187540983608 5.46124393442623 9.28456227618e-05 0.0 0.0 0.0
70 1 20.10159475409836 5.100025573770492 6.05463598139e-05 0.0 0.0 0.0
71 1 22.723179672131153 6.230739016393443 4.41103915293e-05 0.0 0.0 0.0
72 1 25.482354754098363 5.2075731147541 4.08864908193e-05 0.0 0.0 0.0
73 1 28.05733573770492 5.317948196721312 1.52712783916e-05 0.0 0.0 0.0
74 1 30.77667278688525 5.566670819672132 8.48329951614e-05 0.0 0.0 0.0
75 1 33.318177704918035 5.451398032786885 4.84714070396e-05 0.0 0.0 0.0
76 1 36.8351337704918 5.142640655737705 1.27090510417e-05 0.0 0.0 0.0
77 1 38.340647868852464 5.470635409836066 9.58277041931e-05 0.0 0.0 0.0
78 1 40.663321311475414 5.937230163934427 6.36978448606e-05 0.0 0.0 0.0
79 1 43.3119193442623 6.1318255737704925 4.1799301178e-05 0.0 0.0 0.0
80 1 46.136935737704924 5.745916721311476 6.90113406121e-06 0.0 0.0 0.0
81 1 48.7094931147541 5.21444 2.28425086553e-05 0.0 0.0 0.0
82 1 51.54354754098361 5.5817173770491815 2.28394622551e-05 0.0 0.0 0.0
83 1 54.30544918032787 5.941976393442624 4.59236500715e-05 0.0 0.0 0.0
84 1 56.32714098360656 5.115728524590165 4.97385229962e-05 0.0 0.0 0.0
85 1 59.96255081967214 5.269324590163935 7.41471585259e-05 0.0 0.0 0.0
86 1 62.55984918032787 4.7732931147540985 4.62898911858e-05 0.0 0.0 0.0
87 1 64.87590819672131 5.259327213114754 6.00304214591e-05 0.0 0.0 0.0
88 1 68.13818360655739 4.992069049180328 7.23729286109e-05 0.0 0.0 0.0
89 1 71.07175737704918 5.311131803278689 1.00243443405e-06 0.0 0.0 0.0
90 1 75.53119344262296 6.226699672131148 4.35376113346e-05 0.0 0.0 0.0
91 1 75.13230819672131 4.765971803278689 4.98305688687e-05 0.0 0.0 0.0
92 1 77.97247213114754 4.966035475409837 3.94261232693e-05 0.0 0.0 0.0
93 1 81.92244590163935 5.4008052459016405 4.16402132489e-05 0.0 0.0 0.0
94 1 82.68032786885247 8.025116721311477 3.46510089518e-05 0.0 0.0 0.0
95 1 2.1788323934426232 7.350293770491803 5.43252251474e-05 0.0 0.0 0.0
96 1 5.283866229508197 6.971554754098361 9.35440645085e-05 0.0 0.0 0.0
97 1 8.39375737704918 8.51503868852459 6.90294819961e-05 0.0 0.0 0.0
98 1 10.948188196721313 7.045929180327869 3.61299095691e-05 0.0 0.0 0.0
99 1 13.778657704918036 7.8434472131147555 2.80830185117e-06 0.0 0.0 0.0
100 1 16.25593704918033 8.07227606557377 6.11085724036e-05 0.0 0.0 0.0
101 1 18.89968786885246 7.444561967213115 8.9822974801e-05 0.0 0.0 0.0
102 1 21.7526262295082 7.423506885245903 8.97717522828e-05 0.0 0.0 0.0
103 1 24.209304918032792 7.8095672131147555 9.97653805905e-05 0.0 0.0 0.0
104 1 26.80695672131148 7.674047213114755 3.48478271174e-05 0.0 0.0 0.0
105 1 29.486001311475412 7.6233029508196735 9.97623679067e-05 0.0 0.0 0.0
106 1 32.158280000000005 7.856120655737706 3.38250248157e-05 0.0 0.0 0.0
107 1 34.75259934426229 7.875459016393443 6.42652243284e-05 0.0 0.0 0.0
108 1 37.425635409836076 8.972797377049181 2.04655173627e-05 0.0 0.0 0.0
109 1 39.75598360655738 9.512100327868852 5.39377845696e-05 0.0 0.0 0.0
110 1 42.2985993442623 8.371137049180328 9.316603779e-05 0.0 0.0 0.0
111 1 45.154365245901644 8.00926229508197 8.84414065693e-06 0.0 0.0 0.0
112 1 48.03068131147541 7.727720000000001 1.39052058737e-05 0.0 0.0 0.0
113 1 50.683672131147546 7.421133770491804 1.263273331e-05 0.0 0.0 0.0
114 1 53.33297704918033 8.863836065573771 6.28684392575e-05 0.0 0.0 0.0
115 1 56.11305573770492 8.075608524590164 2.56999270729e-05 0.0 0.0 0.0
116 1 58.64774426229509 7.68308524590164 7.93805013374e-05 0.0 0.0 0.0
117 1 61.364708196721324 7.308688524590164 6.36089597123e-05 0.0 0.0 0.0
118 1 63.58432786885247 7.5282268852459024 4.23333600553e-05 0.0 0.0 0.0
119 1 65.72720000000001 6.521672786885246 4.60086704335e-05 0.0 0.0 0.0
120 1 69.27980327868853 6.996952131147541 7.32134727926e-05 0.0 0.0 0.0
121 1 71.78672131147542 6.676733114754099 2.40869275854e-05 0.0 0.0 0.0
122 1 75.12523934426231 8.674390819672132 6.14204323714e-05 0.0 0.0 0.0
123 1 77.42312131147541 7.693688524590165 5.84654284897e-05 0.0 0.0 0.0
124 1 80.04314098360656 7.36316918032787 3.45972266161e-05 0.0 0.0 0.0
125 1 1.8432638688524592 10.078012459016396 2.79195952317e-06 0.0 0.0 0.0
126 1 5.89552393442623 9.583950163934428 6.33168322263e-05 0.0 0.0 0.0
127 1 7.455417704918033 9.729316065573773 3.50185762021e-05 0.0 0.0 0.0
128 1 9.901190163934427 9.737192786885247 8.85550533006e-05 0.0 0.0 0.0
129 1 12.006496393442625 10.645893770491803 6.14617378103e-05 0.0 0.0 0.0
130 1 15.45008786885246 11.860625573770493 5.40244585215e-05 0.0 0.0 0.0
131 1 18.606633442622954 9.761378360655739 1.72539757126e-05 0.0 0.0 0.0
132 1 20.119670819672134 9.515786229508198 9.60340933374e-05 0.0 0.0 0.0
133 1 22.76428 9.996518688524592 7.35692004759e-05 0.0 0.0 0.0
134 1 24.725836065573773 9.26544786885246 9.04338513994e-05 0.0 0.0 0.0
135 1 28.22936131147541 9.88220524590164 1.83103582861e-06 0.0 0.0 0.0
136 1 30.639385573770493 9.961780327868855 3.54992930724e-05 0.0 0.0 0.0
137 1 33.32024786885246 10.166120655737705 4.06890180781e-05 0.0 0.0 0.0
138 1 36.81680524590164 10.42771868852459 9.15112841097e-05 0.0 0.0 0.0
139 1 39.22066950819673 10.971464918032787 1.47494852803e-05 0.0 0.0 0.0
140 1 41.797165245901645 11.041547540983608 4.50578121545e-05 0.0 0.0 0.0
141 1 44.3467993442623 10.198182950819673 6.23513137143e-05 0.0 0.0 0.0
142 1 47.08431344262296 9.874883934426231 4.78421540317e-05 0.0 0.0 0.0
143 1 49.93639344262296 9.816262950819672 7.81045028069e-05 0.0 0.0 0.0
144 1 52.71647213114755 10.268114098360657 4.92446661608e-05 0.0 0.0 0.0
145 1 55.278426229508206 10.53632655737705 9.3913352763e-05 0.0 0.0 0.0
146 1 58.60432131147541 9.900281311475412 3.3120984345e-05 0.0 0.0 0.0
147 1 60.152904918032796 9.666756721311476 2.82663536579e-05 0.0 0.0 0.0
148 1 62.50127868852459 11.254673442622952 3.93072865494e-06 0.0 0.0 0.0
149 1 65.95794754098361 9.18304524590164 7.39604656577e-05 0.0 0.0 0.0
150 1 67.49037377049181 9.046969836065575 8.50422485924e-05 0.0 0.0 0.0
151 1 70.20733770491803 9.121394754098363 3.90818925608e-05 0.0 0.0 0.0
152 1 72.89299672131149 9.200767868852461 3.21887538611e-05 0.0 0.0 0.0
153 1 76.7616786885246 10.505476065573772 6.36206626288e-05 0.0 0.0 0.0
154 1 78.99190163934426 9.785311475409836 8.55137912159e-05 0.0 0.0 0.0
155 1 81.55032131147541 10.764801967213115 8.2815066468e-05 0.0 0.0 0.0
156 1 0.26095224262295086 12.14484393442623 2.118384684e-05 0.0 0.0 0.0
157 1 3.0135073442622953 11.925659016393444 6.03120232324e-05 0.0 0.0 0.0
158 1 5.550866885245902 12.140905573770494 2.51214459776e-05 0.0 0.0 0.0
159 1 8.224104918032788 12.272487213114756 9.62718110816e-05 0.0 0.0 0.0
160 1 11.207261639344264 11.927476721311475 6.71543237313e-05 0.0 0.0 0.0
161 1 13.41072393442623 11.213623606557379 8.83557395691e-05 0.0 0.0 0.0
162 1 17.039418360655738 13.48550229508197 4.88701376834e-05 0.0 0.0 0.0
163 1 18.904181639344266 12.67616918032787 6.43645258681e-05 0.0 0.0 0.0
164 1 21.508296393442624 11.986653114754098 8.501224315e-05 0.0 0.0 0.0
165 1 24.41834098360656 12.231184918032788 3.31137242844e-06 0.0 0.0 0.0
166 1 26.904355409836068 12.065319344262297 6.65997850777e-05 0.0 0.0 0.0
167 1 29.294384918032787 12.35781836065574 3.61983293825e-05 0.0 0.0 0.0
168 1 31.862700983606562 12.268952786885247 9.32178063316e-05 0.0 0.0 0.0
169 1 34.22697967213115 11.37953967213115 3.54507554356e-05 0.0 0.0 0.0
170 1 37.686223606557384 14.42990098360656 3.10835176685e-05 0.0 0.0 0.0
171 1 39.751287868852465 12.40866360655738 9.01716192605e-05 0.0 0.0 0.0
172 1 43.80951606557378 12.749180327868853 2.11456647034e-05 0.0 0.0 0.0
173 1 46.227215081967216 12.163525901639344 8.98062458619e-05 0.0 0.0 0.0
174 1 48.72706426229509 11.919095081967216 2.83471725111e-05 0.0 0.0 0.0
175 1 51.31885901639345 12.235173770491803 7.73637095336e-05 0.0 0.0 0.0
176 1 53.6460262295082 12.754582950819673 9.05762369811e-06 0.0 0.0 0.0
177 1 56.0908393442623 12.84168131147541 8.21529449836e-05 0.0 0.0 0.0
178 1 59.03754098360656 12.660516721311478 2.29536814093e-05 0.0 0.0 0.0
179 1 62.22508852459017 12.808306229508199 4.63997010008e-05 0.0 0.0 0.0
180 1 64.48510163934426 12.587505573770493 8.67778079162e-05 0.0 0.0 0.0
181 1 66.67493114754099 11.698496393442625 1.05947187389e-05 0.0 0.0 0.0
182 1 69.3005049180328 11.257500983606558 8.65037551733e-05 0.0 0.0 0.0
183 1 71.94779016393443 12.318030819672133 9.11171146992e-05 0.0 0.0 0.0
184 1 75.02223606557378 12.524188852459018 5.73036789513e-05 0.0 0.0 0.0
185 1 79.04138360655739 12.36089836065574 2.70236598233e-05 0.0 0.0 0.0
186 1 80.50817049180328 11.89541442622951 7.67607847557e-05 0.0 0.0 0.0
187 1 1.676605573770492 14.14760131147541 7.68316340443e-05 0.0 0.0 0.0
188 1 4.12056537704918 15.151580327868853 8.13425071211e-07 0.0 0.0 0.0
189 1 6.956609180327869 14.551687213114755 5.89297366094e-05 0.0 0.0 0.0
190 1 8.911500327868854 13.67408918032787 2.90663300908e-06 0.0 0.0 0.0
191 1 12.234466885245903 15.220956065573771 7.52691291376e-05 0.0 0.0 0.0
192 1 15.136281311475411 14.906745573770493 8.24204963282e-05 0.0 0.0 0.0
193 1 19.263683278688525 15.43049704918033 6.95798487781e-05 0.0 0.0 0.0
194 1 21.21438360655738 14.256764590163936 5.158061019e-05 0.0 0.0 0.0
195 1 22.347975081967213 13.253391475409837 6.68350820383e-05 0.0 0.0 0.0
196 1 25.735823606557382 14.56850098360656 7.87363869943e-05 0.0 0.0 0.0
197 1 28.087580327868857 14.683016393442623 2.84091698269e-05 0.0 0.0 0.0
198 1 30.68159672131148 14.635604590163936 5.66786765688e-06 0.0 0.0 0.0
199 1 33.5082793442623 14.120537704918034 3.25705988576e-05 0.0 0.0 0.0
200 1 35.67841704918033 13.112115409836068 4.36905321886e-05 0.0 0.0 0.0
201 1 39.59966098360656 15.202375081967213 1.06913854988e-05 0.0 0.0 0.0
202 1 41.67103672131148 13.982947540983607 1.15055732123e-06 0.0 0.0 0.0
203 1 45.555017704918036 14.786524590163935 5.59271056877e-06 0.0 0.0 0.0
204 1 48.016038688524596 14.342398688524591 4.66189687041e-05 0.0 0.0 0.0
205 1 50.63318032786886 15.38348918032787 8.01403059369e-05 0.0 0.0 0.0
206 1 52.10703606557377 14.986522622950822 6.02525313318e-05 0.0 0.0 0.0
207 1 55.232478688524594 15.19217573770492 1.09304131957e-05 0.0 0.0 0.0
208 1 56.88457049180329 14.134422950819674 6.99783236749e-05 0.0 0.0 0.0
209 1 60.11150163934427 13.7853731147541 3.6148080556e-05 0.0 0.0 0.0
210 1 63.42881311475411 15.214442622950822 7.7186848771e-05 0.0 0.0 0.0
211 1 65.96400655737706 14.537751475409838 6.9906248833e-06 0.0 0.0 0.0
212 1 68.29824262295082 13.785019672131149 7.18727180539e-05 0.0 0.0 0.0
213 1 70.94704262295083 13.473990163934427 3.06521044451e-05 0.0 0.0 0.0
214 1 73.42013114754099 14.084739016393444 2.8125759079e-05 0.0 0.0 0.0
215 1 75.51503606557378 15.136382295081969 3.63865649625e-05 0.0 0.0 0.0
216 1 77.34384918032788 14.534419016393443 6.34988154829e-05 0.0 0.0 0.0
217 1 81.51598688524591 14.40712918032787 3.70000379933e-05 0.0 0.0 0.0
218 1 0.49648489180327876 16.3202131147541 8.43648086455e-05 0.0 0.0 0.0
219 1 3.3292881311475413 16.452703606557378 7.81419658356e-05 0.0 0.0 0.0
220 1 5.025009901639345 18.175332459016396 4.0091606124e-05 0.0 0.0 0.0
221 1 8.943461639344264 16.69869967213115 9.51204487131e-05 0.0 0.0 0.0
222 1 11.61897180327869 16.612611147540985 9.64434362918e-06 0.0 0.0 0.0
223 1 13.110954098360658 16.905564590163937 9.30640482639e-05 0.0 0.0 0.0
224 1 15.493611803278691 17.490562622950822 7.34859202345e-05 0.0 0.0 0.0
225 1 17.424266885245903 16.902989508196722 1.68102436479e-05 0.0 0.0 0.0
226 1 21.347227540983607 17.131818360655743 9.47579411443e-05 0.0 0.0 0.0
227 1 24.087468196721314 16.664920655737706 1.16406237475e-05 0.0 0.0 0.0
228 1 26.777368524590166 17.151308196721313 8.34977134122e-05 0.0 0.0 0.0
229 1 29.623440000000006 16.98554360655738 1.62421937751e-05 0.0 0.0 0.0
230 1 32.3757986885246 16.384792131147545 2.54831300981e-05 0.0 0.0 0.0
231 1 34.916748196721315 16.091384262295083 7.61977769567e-06 0.0 0.0 0.0
232 1 37.324904262295085 15.937333770491804 3.93997953097e-05 0.0 0.0 0.0
233 1 41.018480655737704 16.935910163934427 6.83778854955e-05 0.0 0.0 0.0
234 1 43.80663803278689 16.806146229508197 6.88869613347e-05 0.0 0.0 0.0
235 1 47.34611344262296 16.897283934426234 4.15470524785e-05 0.0 0.0 0.0
236 1 48.792956065573776 17.3674131147541 6.30121931497e-05 0.0 0.0 0.0
237 1 50.82000000000001 18.251625573770493 1.7910380359e-05 0.0 0.0 0.0
238 1 52.88309508196722 16.328796721311477 3.46270242025e-05 0.0 0.0 0.0
239 1 57.7348524590164 16.768883278688527 7.98959882903e-05 0.0 0.0 0.0
240 1 59.274852459016394 16.683754098360655 6.09477330618e-05 0.0 0.0 0.0
241 1 61.76712786885247 17.340400000000002 9.98655086882e-05 0.0 0.0 0.0
242 1 65.62520655737706 16.95848 6.1683473273e-05 0.0 0.0 0.0
243 1 67.11067540983606 16.544901639344264 4.01509141307e-05 0.0 0.0 0.0
244 1 70.1704786885246 15.831351475409837 4.45971218605e-05 0.0 0.0 0.0
245 1 71.67160000000001 16.026552786885247 1.4052007694e-05 0.0 0.0 0.0
246 1 73.67814426229509 17.98911868852459 4.55944354684e-05 0.0 0.0 0.0
247 1 77.86744918032787 18.23011606557377 2.48901902541e-05 0.0 0.0 0.0
248 1 80.2153180327869 16.278557377049182 1.27554101385e-05 0.0 0.0 0.0
249 1 1.3189266885245903 18.441020327868852 5.77576979533e-06 0.0 0.0 0.0
250 1 3.7149344262295085 18.972345573770493 2.92387640433e-05 0.0 0.0 0.0
251 1 5.828066885245902 19.853982950819674 2.60429696297e-06 0.0 0.0 0.0
252 1 8.526500327868854 19.339219016393443 3.62394179888e-05 0.0 0.0 0.0
253 1 11.100471475409837 18.867979016393445 8.05517954951e-05 0.0 0.0 0.0
254 1 13.877823606557378 19.558252459016398 7.88477207315e-05 0.0 0.0 0.0
255 1 16.817708852459017 19.8006131147541 7.7901319661e-05 0.0 0.0 0.0
256 1 20.233731803278694 19.5442662295082 7.4714611668e-06 0.0 0.0 0.0
257 1 22.987908196721314 19.111652459016394 9.26063410656e-05 0.0 0.0 0.0
258 1 25.58556 19.125133770491804 1.97680919345e-05 0.0 0.0 0.0
259 1 27.60659540983607 18.461318032786888 6.07949753758e-05 0.0 0.0 0.0
260 1 31.46275540983607 18.70918229508197 7.60987112957e-05 0.0 0.0 0.0
261 1 33.499291803278695 19.88448 7.14949626105e-05 0.0 0.0 0.0
262 1 36.1594524590164 18.53059278688525 9.11541434691e-05 0.0 0.0 0.0
263 1 38.95240655737705 19.047729836065578 5.35146915046e-05 0.0 0.0 0.0
264 1 42.840830819672135 18.948513442622954 1.08421475762e-05 0.0 0.0 0.0
265 1 44.328925245901644 19.228692459016393 7.07424131037e-05 0.0 0.0 0.0
266 1 46.57081180327869 19.632273442622953 8.68323566231e-05 0.0 0.0 0.0
267 1 49.11812327868853 20.250444590163937 5.1050544746e-05 0.0 0.0 0.0
268 1 52.11965901639345 19.058939016393445 7.51488196986e-05 0.0 0.0 0.0
269 1 54.59022295081968 17.968265573770495 7.51750678638e-05 0.0 0.0 0.0
270 1 57.900970491803285 19.50760918032787 9.30033841517e-05 0.0 0.0 0.0
271 1 59.85399344262296 20.7916662295082 8.4935785851e-05 0.0 0.0 0.0
272 1 63.58584262295083 19.75451409836066 3.58567234123e-05 0.0 0.0 0.0
273 1 65.12281311475411 19.569512131147544 9.42275975411e-05 0.0 0.0 0.0
274 1 68.85920655737706 18.89176065573771 3.28936370065e-05 0.0 0.0 0.0
275 1 70.37497049180328 18.764117377049182 4.33661987812e-05 0.0 0.0 0.0
276 1 72.85613770491804 19.26938885245902 7.51312756105e-05 0.0 0.0 0.0
277 1 75.16310819672131 18.349731147540986 7.95348029153e-05 0.0 0.0 0.0
278 1 80.26076065573771 18.411886557377052 8.07466358584e-05 0.0 0.0 0.0
279 1 81.7553180327869 18.218452459016394 4.22422671932e-05 0.0 0.0 0.0
280 1 82.35364590163935 20.831857704918036 8.19495728017e-05 0.0 0.0 0.0
281 1 1.7881318688524592 21.028270819672134 2.40163135062e-05 0.0 0.0 0.0
282 1 3.790237901639345 22.77054098360656 3.19157753299e-05 0.0 0.0 0.0
283 1 6.344042622950821 21.26679409836066 4.54226973004e-05 0.0 0.0 0.0
284 1 10.007424918032788 21.400243934426232 2.96826968258e-05 0.0 0.0 0.0
285 1 12.7258531147541 21.349600655737706 6.24544892245e-05 0.0 0.0 0.0
286 1 15.485583606557379 21.63200131147541 2.52802044456e-05 0.0 0.0 0.0
287 1 17.95695540983607 20.836856393442627 7.74954595999e-05 0.0 0.0 0.0
288 1 21.75444393442623 21.49335081967213 8.11718261086e-05 0.0 0.0 0.0
289 1 24.636061639344266 21.437355409836066 6.48556309616e-05 0.0 0.0 0.0
290 1 27.37938229508197 21.365101639344264 3.68304383995e-05 0.0 0.0 0.0
291 1 30.095942295081972 21.11925704918033 4.34223577859e-05 0.0 0.0 0.0
292 1 32.756102950819674 21.25099016393443 3.6741246067e-05 0.0 0.0 0.0
293 1 35.089329180327866 21.087144262295084 2.44974520696e-05 0.0 0.0 0.0
294 1 37.51066360655738 20.906181639344265 4.20055173826e-05 0.0 0.0 0.0
295 1 39.4787331147541 20.489472786885248 4.48687585502e-05 0.0 0.0 0.0
296 1 42.949842622950825 21.74373967213115 8.99987990419e-05 0.0 0.0 0.0
297 1 45.24368524590164 21.951361967213117 7.45211182785e-05 0.0 0.0 0.0
298 1 47.42927344262296 23.348874098360657 7.58296535379e-05 0.0 0.0 0.0
299 1 50.25277508196722 22.206648524590165 6.77183170049e-05 0.0 0.0 0.0
300 1 53.048708196721314 21.85754819672131 7.20962579734e-05 0.0 0.0 0.0
301 1 55.93078032786886 21.731217704918034 6.34909054853e-05 0.0 0.0 0.0
302 1 58.7780131147541 21.94929180327869 5.73329945073e-06 0.0 0.0 0.0
303 1 61.267259016393446 22.731460327868856 7.10759602902e-05 0.0 0.0 0.0
304 1 63.77114754098361 22.483899016393444 4.659310856e-05 0.0 0.0 0.0
305 1 67.2212524590164 21.63821180327869 1.04646884635e-05 0.0 0.0 0.0
306 1 68.7501442622951 21.566462950819673 7.38233816205e-06 0.0 0.0 0.0
307 1 71.26817049180329 21.45411868852459 6.05569765299e-05 0.0 0.0 0.0
308 1 74.13105573770493 21.162377049180332 9.91408074333e-05 0.0 0.0 0.0
309 1 78.41377049180329 21.228117377049184 4.71013437774e-05 0.0 0.0 0.0
310 1 80.83788196721312 21.032310163934426 9.08372190335e-05 0.0 0.0 0.0
311 1 0.38036434754098364 23.588356721311477 5.49790108832e-05 0.0 0.0 0.0
312 1 3.040545704918033 24.101252459016393 3.94130794559e-06 0.0 0.0 0.0
313 1 5.652102950819673 23.780074098360657 8.16828820767e-05 0.0 0.0 0.0
314 1 8.34604262295082 23.373110163934427 1.68791545153e-05 0.0 0.0 0.0
315 1 10.500578360655739 22.84092655737705 9.57578942313e-05 0.0 0.0 0.0
316 1 13.950026885245903 23.668992131147544 1.81522086838e-05 0.0 0.0 0.0
317 1 17.35711278688525 23.482626885245907 8.56844704455e-05 0.0 0.0 0.0
318 1 20.400960655737705 23.78275016393443 8.52422716318e-05 0.0 0.0 0.0
319 1 23.163367213114757 23.52630229508197 1.96346726946e-05 0.0 0.0 0.0
320 1 25.966571147540986 23.70373049180328 1.77609860644e-05 0.0 0.0 0.0
321 1 29.555326557377054 23.412493770491803 1.16874495238e-05 0.0 0.0 0.0
322 1 31.120925901639346 23.507973770491805 9.98722031109e-06 0.0 0.0 0.0
323 1 34.58572393442623 23.555688524590167 3.39874460949e-05 0.0 0.0 0.0
324 1 36.11052590163935 23.39467016393443 5.1126326321e-05 0.0 0.0 0.0
325 1 38.82541967213115 23.37305967213115 6.50034725903e-05 0.0 0.0 0.0
326 1 41.570356065573776 23.829051147540987 8.24198455245e-05 0.0 0.0 0.0
327 1 43.413963278688534 25.611462295081967 6.06652905955e-05 0.0 0.0 0.0
328 1 46.9278393442623 24.80889508196722 6.37557451455e-05 0.0 0.0 0.0
329 1 49.67822885245902 24.27050098360656 5.40805245378e-05 0.0 0.0 0.0
330 1 52.00857704918034 25.3131062295082 4.81398674137e-05 0.0 0.0 0.0
331 1 54.417036065573775 24.081308196721313 1.23897749221e-06 0.0 0.0 0.0
332 1 56.881036065573774 24.000571803278692 6.46763275773e-05 0.0 0.0 0.0
333 1 59.55609180327869 24.60692786885246 5.85527966114e-06 0.0 0.0 0.0
334 1 62.5320786885246 24.99970360655738 6.52756274567e-05 0.0 0.0 0.0
335 1 65.94179016393443 24.550579016393446 5.42610605779e-05 0.0 0.0 0.0
336 1 67.46007868852459 24.358306229508198 7.38110298011e-05 0.0 0.0 0.0
337 1 70.06141639344264 24.073936393442626 9.37862771095e-05 0.0 0.0 0.0
338 1 73.37418360655738 23.277478688524592 1.96089407655e-05 0.0 0.0 0.0
339 1 74.89752131147543 23.232086557377052 6.19573543033e-05 0.0 0.0 0.0
340 1 77.5084524590164 23.310399344262297 6.0706048699e-05 0.0 0.0 0.0
341 1 80.27439344262297 23.511205245901643 6.94341406058e-05 0.0 0.0 0.0
342 1 81.58112131147543 25.804088524590167 9.64131022582e-05 0.0 0.0 0.0
343 1 1.6414329836065575 26.14500918032787 1.81176422629e-05 0.0 0.0 0.0
344 1 5.506636065573772 25.771874754098363 5.25545417246e-05 0.0 0.0 0.0
345 1 7.025530491803279 25.72850229508197 4.09004039046e-05 0.0 0.0 0.0
346 1 9.451409180327868 25.639232786885252 4.52540714051e-05 0.0 0.0 0.0
347 1 12.22452 25.64145442622951 5.65185015326e-06 0.0 0.0 0.0
348 1 14.79212918032787 24.935175081967216 6.12141110016e-06 0.0 0.0 0.0
349 1 18.21668524590164 24.741488524590164 7.20375454854e-05 0.0 0.0 0.0
350 1 22.082590163934427 25.80565377049181 9.87565070414e-05 0.0 0.0 0.0
351 1 24.1265993442623 26.900013114754103 8.72514208111e-05 0.0 0.0 0.0
352 1 26.9016793442623 26.132184262295084 3.73475064189e-06 0.0 0.0 0.0
353 1 29.337454426229513 26.22443278688525 7.16265304377e-05 0.0 0.0 0.0
354 1 32.12283475409836 26.218474754098363 6.04783313778e-05 0.0 0.0 0.0
355 1 34.60268918032787 26.15303737704918 5.31452262861e-05 0.0 0.0 0.0
356 1 37.255225573770495 25.62383278688525 2.35919037537e-05 0.0 0.0 0.0
357 1 40.04373639344263 25.789799344262295 5.52761614283e-05 0.0 0.0 0.0
358 1 42.530356721311485 26.862800655737708 3.39991003806e-05 0.0 0.0 0.0
359 1 44.66111081967214 26.495977704918037 8.50772698346e-05 0.0 0.0 0.0
360 1 48.37129901639344 26.60519147540984 1.0509274251e-05 0.0 0.0 0.0
361 1 51.121940983606564 26.544348852459017 5.0311550307e-05 0.0 0.0 0.0
362 1 53.27794098360656 26.91147475409836 4.64032549089e-05 0.0 0.0 0.0
363 1 55.480393442622955 26.529504262295085 2.51321916978e-05 0.0 0.0 0.0
364 1 58.10596721311476 26.469116065573775 5.64914704248e-05 0.0 0.0 0.0
365 1 60.324072131147545 25.926430163934427 7.94749171045e-05 0.0 0.0 0.0
366 1 63.7756918032787 27.267088524590168 6.15831677229e-05 0.0 0.0 0.0
367 1 66.29371803278688 28.537613770491806 1.03811157176e-05 0.0 0.0 0.0
368 1 68.80215081967215 26.69637967213115 1.47686398075e-05 0.0 0.0 0.0
369 1 71.6180786885246 26.446849180327874 8.3452392098e-05 0.0 0.0 0.0
370 1 74.04269508196722 25.819236065573772 2.29632921272e-05 0.0 0.0 0.0
371 1 76.59152131147542 25.495331147540988 7.8857638354e-05 0.0 0.0 0.0
372 1 78.85607868852459 26.69915672131148 7.63443633654e-05 0.0 0.0 0.0
373 1 0.5290935081967213 28.127923278688527 3.60548992225e-05 0.0 0.0 0.0
374 1 2.4787335081967217 27.466127213114756 6.89642579296e-06 0.0 0.0 0.0
375 1 6.239979016393443 28.31035016393443 8.3071624777e-05 0.0 0.0 0.0
376 1 8.506404590163935 29.38476524590164 9.0348673925e-05 0.0 0.0 0.0
377 1 10.833117377049183 27.78781049180328 5.33350308766e-05 0.0 0.0 0.0
378 1 13.289240655737707 26.741519344262297 1.7851687294e-05 0.0 0.0 0.0
379 1 17.191954098360657 28.213809836065575 3.63988355055e-05 0.0 0.0 0.0
380 1 19.647471475409837 26.74687147540984 9.14574890641e-05 0.0 0.0 0.0
381 1 23.103786885245903 28.03315016393443 9.39432911263e-07 0.0 0.0 0.0
382 1 25.48715147540984 28.5039862295082 2.35247100339e-05 0.0 0.0 0.0
383 1 28.558820327868858 29.628994098360657 6.20188128726e-05 0.0 0.0 0.0
384 1 31.243772459016398 28.386996721311476 8.05041824708e-05 0.0 0.0 0.0
385 1 33.69090819672131 28.636880655737706 6.72173253223e-05 0.0 0.0 0.0
386 1 36.99635409836066 27.906617704918034 4.84130989995e-05 0.0 0.0 0.0
387 1 38.54948196721312 27.834212459016396 6.47873665221e-05 0.0 0.0 0.0
388 1 40.90906491803279 29.515892459016396 3.03328228676e-05 0.0 0.0 0.0
389 1 43.962354754098364 29.295697704918034 7.1091144798e-05 0.0 0.0 0.0
390 1 47.81482885245902 28.776440000000004 2.66361074727e-05 0.0 0.0 0.0
391 1 49.375227540983616 28.65682491803279 3.49614156275e-05 0.0 0.0 0.0
392 1 51.09972459016394 30.400357377049183 5.91470633305e-05 0.0 0.0 0.0
393 1 54.44480655737705 29.337201967213115 8.00437622019e-05 0.0 0.0 0.0
394 1 57.11582295081968 28.751648524590166 8.81608311782e-05 0.0 0.0 0.0
395 1 59.81259016393443 28.654704262295084 8.58410879106e-05 0.0 0.0 0.0
396 1 62.50026885245902 29.298626229508198 2.67954485463e-05 0.0 0.0 0.0
397 1 65.29448524590165 29.742348196721313 3.9137177282e-05 0.0 0.0 0.0
398 1 67.92359344262296 29.415161311475412 4.45460433032e-05 0.0 0.0 0.0
399 1 70.99652459016394 28.57674491803279 6.38504749628e-05 0.0 0.0 0.0
400 1 74.31636065573771 27.936710819672133 5.11147913504e-05 0.0 0.0 0.0
401 1 75.86393442622952 27.990282622950822 5.31926042523e-05 0.0 0.0 0.0
402 1 78.37539672131147 28.143474754098364 9.04235292095e-05 0.0 0.0 0.0
403 1 80.72478032786887 29.49993704918033 4.60950024814e-05 0.0 0.0 0.0
404 1 82.51118032786886 30.741025573770496 8.53182951292e-05 0.0 0.0 0.0
405 1 2.2766653114754103 30.38288721311476 2.4025693928e-05 0.0 0.0 0.0
406 1 5.055340327868853 30.65731016393443 1.30139459913e-05 0.0 0.0 0.0
407 1 7.974776393442624 30.823882622950823 8.77255495759e-05 0.0 0.0 0.0
408 1 10.942432131147543 30.263171147540987 2.53364827295e-05 0.0 0.0 0.0
409 1 13.57825573770492 30.158148196721314 9.85065345709e-05 0.0 0.0 0.0
410 1 16.53111737704918 29.605262950819675 9.94931401525e-05 0.0 0.0 0.0
411 1 18.947200655737706 29.590973770491807 3.67691367302e-05 0.0 0.0 0.0
412 1 21.44078885245902 30.056811147540987 7.12231702999e-05 0.0 0.0 0.0
413 1 24.16694229508197 30.656249836065577 6.418602967e-05 0.0 0.0 0.0