# input file

2232 atoms
1 atom types

0.0 82.68810555352132 xlo xhi
0.0 83.16 ylo yhi
-10.0 10.0 zlo zhi
0.0 0.0 0.0 xy xz yz

Masses

1 12.0100 #C

Atoms

1 1 2.3035420983606563 0.17026492459016396 8.103935180917665e-05
2 1 3.841583016393443 0.11507637377049182 9.993602601843606e-05
3 1 6.582161967213115 0.3307081836065574 8.394265732339724e-06
4 1 9.217581639344264 0.32750801311475414 8.933632254296182e-05
5 1 11.890971147540984 0.18476819016393445 9.831400151632368e-05
6 1 14.652317377049183 0.09508363934426231 1.0641958467621482e-05
7 1 17.342975081967214 0.1827914360655738 6.18492969074196e-05
8 1 19.871352131147543 0.6642247213114755 8.604463161990383e-06
9 1 22.368828196721317 0.845040918032787 1.430222588451724e-05
10 1 26.040087213114756 0.9889728524590164 7.252419944972453e-05
11 1 27.520153442622952 0.5782472786885247 4.04097694900932e-05
12 1 29.69180590163935 2.126583475409836 9.741980122274623e-05
13 1 32.63472065573771 1.1617457049180329 3.7913639504078633e-05
14 1 35.50411934426229 0.9654537704918034 1.9130532686523317e-06
15 1 38.35483606557378 0.7965536393442624 2.524590124301317e-05
16 1 42.3933724590164 0.3199630229508197 8.992748330237968e-05
17 1 43.95038819672132 0.40847767868852464 7.46807731183789e-05
18 1 46.786058360655744 0.6932120655737705 4.119515839211896e-06
19 1 49.57179213114754 0.8626524590163935 4.7708707242343253e-05
20 1 52.35747540983607 0.9066661639344263 4.223675195460978e-05
21 1 55.110288524590175 0.9918458360655739 2.9032792259201168e-05
22 1 57.990845901639354 0.6916064262295083 7.534254964254861e-06
23 1 61.645442622950824 0.7449863606557378 1.0688867789187207e-06
24 1 63.17180983606558 0.7278948852459017 7.952348002616518e-05
25 1 65.84232131147542 0.8977796065573772 7.205273907478647e-05
26 1 68.28713442622951 1.1173634098360656 9.446560084042276e-05
27 1 70.78142950819672 0.9619092459016395 1.4014758192640676e-05
28 1 73.41306229508197 1.190692655737705 1.9007592193251535e-05
29 1 76.4880131147541 3.0995201311475413 5.4943002010214795e-05
30 1 79.88358688524592 0.785480786885246 7.585794390628725e-05
31 1 81.42156721311477 0.8937251147540984 9.711695296157687e-05
32 1 0.13020220327868853 3.2164894426229513 9.64801176062526e-05
33 1 2.4860497704918036 2.7587761967213114 7.550888994656136e-05
34 1 5.204392131147541 2.4491705573770495 8.344531224265727e-05
35 1 7.913428852459018 2.6777469508196723 7.672219559424377e-05
36 1 10.616659016393443 2.551411409836066 8.409797653803515e-05
37 1 13.37532918032787 2.325450491803279 7.266352748348403e-05
38 1 16.10188655737705 2.39363462295082 9.884476011322634e-05
39 1 18.17240393442623 4.053214360655738 9.97468011538508e-05
40 1 21.755302295081968 3.077813704918033 9.406130168588494e-05
41 1 23.290404590163934 3.2341262295081967 5.862740155538644e-05
42 1 25.949302950819675 4.657545704918034 4.236705475507445e-05
43 1 28.83844393442623 3.4863327868852463 7.081729901639214e-05
44 1 31.570656393442626 3.469362491803279 6.648404974159735e-05
45 1 34.29428524590165 3.2561760000000004 4.011298243234922e-05
46 1 36.743945573770496 3.061292786885246 6.232737759621947e-05
47 1 39.60299344262295 2.911423016393443 9.761290791499775e-05
48 1 42.360249836065584 2.6124105573770495 3.394471577504431e-05
49 1 45.312909508196725 2.748723278688525 1.6017340140362047e-06
50 1 48.081021639344264 3.0398994098360657 9.442936533266703e-05
51 1 50.79626885245902 3.1417666229508203 6.841827449739843e-05
52 1 53.54655737704918 3.230208065573771 2.1410899764306216e-06
53 1 57.05573770491804 2.8469247868852463 3.900940199670521e-05
54 1 58.54979016393443 3.1608676721311477 4.351889448712054e-05
55 1 61.42428852459017 3.2821237377049184 3.2878823689311066e-05
56 1 64.2568786885246 3.090724459016394 6.495616544856128e-05
57 1 66.8859868852459 3.430983672131148 7.087341529384972e-05
58 1 69.5156 3.444828524590164 8.61538575530184e-05
59 1 72.1103737704918 3.3621179016393445 9.220274003198083e-05
60 1 74.31383606557378 2.4384662950819678 9.455903916874988e-05
61 1 78.87375081967214 4.082545049180328 3.332849012419214e-05
62 1 80.23601967213115 3.4385877377049185 8.644783118732885e-05
63 1 1.8316709508196725 5.396513442622952 5.9112875974669604e-05
64 1 4.313060327868853 4.777549573770492 7.124547233019657e-05
65 1 6.722832131147542 5.949146229508198 2.4258131591912914e-05
66 1 9.573750819672131 4.886576524590165 5.7536804329933237e-05
67 1 12.511767868852461 4.56560518032787 4.3185544971156554e-05
68 1 15.428780327868854 5.326178360655739 8.232331697450458e-05
69 1 17.006346229508196 5.100530491803279 2.5506952353285896e-05
70 1 19.605916721311477 6.008524590163935 3.175557701130751e-05
71 1 22.224674098360655 5.785956721311476 7.2403052517147514e-06
72 1 25.148906885245903 6.000445901639345 4.2968449375409746e-05
73 1 27.697531147540985 6.006252459016394 3.416480485052028e-05
74 1 30.304826885245905 5.6984039344262305 7.918004556895444e-05
75 1 32.98786032786886 5.6077206557377055 9.539499619381078e-05
76 1 35.58435081967213 5.693506229508197 8.818771513953158e-05
77 1 38.45390098360656 5.017168524590165 4.640393564512229e-05
78 1 41.285077377049184 4.887414688524591 4.520965280878233e-05
79 1 43.831480000000006 4.717999540983607 6.952722042336669e-05
80 1 46.50189049180328 5.158899016393443 1.831107285054867e-07
81 1 49.492166557377054 5.424990819672132 9.539082846280672e-05
82 1 52.211049180327876 5.44432918032787 7.071688270693503e-05
83 1 54.75533114754099 5.8205436065573775 3.227130653259845e-05
84 1 57.04513442622952 5.3748019672131155 6.465999847908363e-05
85 1 59.1748786885246 4.569381967213115 9.468737582281393e-05
86 1 62.892590163934436 5.308304262295082 6.873336059070032e-05
87 1 65.48029508196723 5.56096524590164 4.98283321621124e-05
88 1 68.12657049180328 5.757832786885246 6.990510863130128e-05
89 1 70.8092 5.7499055737704925 2.4767153097554886e-05
90 1 73.44285245901641 5.412115409836066 8.90559543168685e-05
91 1 76.07095081967213 6.128644590163935 5.215328746031315e-05
92 1 78.96665573770493 6.451236721311476 9.111016243605274e-05
93 1 81.80580983606558 5.624635409836066 3.6076566351894047e-06
94 1 0.7149285901639344 7.7258013114754105 3.923262901473625e-05
95 1 3.3352916065573774 7.470817704918033 5.438418249239284e-05
96 1 6.0038288524590175 7.329087213114755 5.706239679235159e-06
97 1 8.393605901639345 7.265013114754099 6.559738895789301e-05
98 1 11.079062950819672 6.804780327868853 2.537296254743231e-05
99 1 13.632988852459018 7.73236524590164 1.552917092246643e-05
100 1 15.57404524590164 8.046070819672131 2.2671029081333716e-05
101 1 18.23440786885246 7.7081291803278695 1.2770689861857099e-05
102 1 21.021605901639344 8.220620983606558 7.543588445986701e-05
103 1 23.701963278688527 8.09928918032787 6.439913775823336e-06
104 1 26.343946885245906 8.425415737704919 3.8325028245683614e-05
105 1 29.87650491803279 7.971090491803279 2.0226291931466925e-05
106 1 31.4145862295082 7.893131147540984 5.953205329725875e-06
107 1 34.003452459016394 7.998356065573771 3.0340797067424542e-05
108 1 36.58323016393443 6.894504262295083 9.725380878763513e-05
109 1 39.499081311475415 6.926415081967214 6.563659180700948e-05
110 1 42.24442163934426 7.10985180327869 9.640058340925389e-05
111 1 44.969312786885254 7.162009836065574 9.64300428880857e-05
112 1 47.14717573770492 6.569387540983607 6.974658567097598e-05
113 1 50.742747540983615 7.670411803278689 1.0284032108536668e-05
114 1 53.44153442622951 8.005374426229508 5.7085156485265575e-05
115 1 57.11683278688525 7.726053770491804 3.5276833157698986e-05
116 1 58.65026885245902 7.471373114754099 3.791293334537148e-05
117 1 61.258170491803284 7.456881967213115 8.226658475977768e-05
118 1 63.94130491803279 7.762054426229509 1.5093015937155874e-05
119 1 66.59161967213115 7.963466229508198 6.169543003816325e-05
120 1 69.34089836065574 8.039607868852459 8.711283829765116e-05
121 1 72.03716065573771 7.917922622950821 8.112278222838588e-05
122 1 74.63243934426231 8.004768524590165 4.990748285488956e-06
123 1 76.78339016393443 7.510100327868853 6.566747167760677e-05
124 1 80.73033442622952 7.898028852459017 5.772172782997337e-05
125 1 1.8180634098360657 9.910177704918034 3.440537712699422e-05
126 1 4.547816918032788 9.727346885245902 8.375510584635998e-05
127 1 7.1962432786885255 9.780363278688526 3.644233073662645e-05
128 1 9.885184262295082 9.226266229508198 6.557239511795279e-05
129 1 11.881781639344263 10.734961311475411 1.5568758273744522e-05
130 1 14.542194754098363 10.562430819672132 4.2937168155985744e-05
131 1 17.11258098360656 10.092907540983608 7.120328176078425e-05
132 1 19.566230163934428 10.938594754098363 1.2596046392057648e-05
133 1 22.45516918032787 10.487299016393443 4.650876536541026e-05
134 1 24.93376131147541 10.631604590163937 6.766705764580375e-05
135 1 27.428106885245903 10.874672131147543 2.4717988856480455e-05
136 1 29.93457049180328 10.622819016393443 3.862485420334392e-05
137 1 32.691170491803284 10.330824918032787 8.471081913930414e-05
138 1 35.34855409836066 10.405906229508199 3.828559587484616e-05
139 1 37.68435540983607 9.67508786885246 7.622111997227066e-07
140 1 40.54506950819672 9.178551475409837 7.811019836206512e-05
141 1 43.497678688524594 9.33901442622951 9.517330545442464e-05
142 1 46.35137442622951 9.436463606557378 5.50469605118347e-05
143 1 48.96437573770493 9.697607213114754 4.8378246717662115e-06
144 1 51.557180327868856 10.0277731147541 5.099749152655905e-05
145 1 54.336249180327876 10.331986229508198 5.185574013633032e-05
146 1 57.028472131147545 10.384901639344262 5.237523022144681e-05
147 1 60.6765049180328 9.727548852459018 8.83424025982174e-05
148 1 62.23417704918033 9.845396721311475 8.753179532422293e-05
149 1 64.91731147540983 10.153750163934427 7.355400877704952e-05
150 1 67.74990163934427 10.225499016393444 9.219038064847344e-05
151 1 70.6249049180328 10.272910819672132 5.555507284294568e-05
152 1 73.46254426229508 10.31340524590164 9.682562438144597e-05
153 1 76.28958032786885 10.327088524590165 2.8936115350162407e-05
154 1 80.19714098360656 10.126383606557377 4.511698789930072e-05
155 1 81.74420983606558 10.014695737704919 5.8964530433557985e-05
156 1 0.2601539672131148 12.194022950819674 4.442432328436416e-05
157 1 3.051128786885246 12.076629508196723 3.7194592546201826e-05
158 1 5.727133770491804 12.090161311475411 6.350440907164007e-05
159 1 9.221822950819673 11.608368524590166 2.213787456408323e-06
160 1 10.742535081967214 11.749392131147543 3.3717187823355247e-05
161 1 12.961952786885247 12.899393442622952 2.7441573634461516e-05
162 1 16.142835409836067 12.655114098360658 7.238565908600637e-05
163 1 18.9621462295082 12.331057704918035 6.35986453073808e-05
164 1 21.112642622950823 13.897060983606558 5.697382242746578e-05
165 1 23.784466885245905 13.03153049180328 3.8980670911645226e-05
166 1 26.28830491803279 13.187499672131148 5.533806133748883e-05
167 1 28.893681967213116 13.141047213114755 9.738970003524474e-05
168 1 31.626702295081973 12.681723278688525 6.0299275707163974e-05
169 1 34.31867278688525 12.65041836065574 7.999513599097279e-05
170 1 36.94111606557377 12.4763731147541 1.8371036300978605e-05
171 1 40.0087455737705 11.286180327868854 7.786701159009696e-05
172 1 41.532840655737715 11.12344524590164 5.4386058951039434e-06
173 1 44.39315081967213 11.42220524590164 3.2340861127118816e-05
174 1 47.55312983606558 11.974838032786886 3.948194080648976e-05
175 1 50.07282229508197 12.247594754098362 2.4453462388772085e-05
176 1 52.68819672131148 12.318788196721313 1.7378065451581382e-05
177 1 55.429901639344266 12.600835409836066 7.919469153232712e-05
178 1 58.161508196721314 12.679097704918034 3.1034661816130817e-05
179 1 60.789606557377056 12.437544918032788 6.98313910893411e-05
180 1 63.520708196721316 12.35120393442623 6.105383281017474e-05
181 1 66.06953442622952 12.348376393442624 3.239831604537469e-06
182 1 68.82638688524591 12.332875409836067 9.759707059846268e-05
183 1 72.24013770491804 12.445371147540984 9.709313097994342e-05
184 1 74.96215081967213 12.514847868852462 3.5774370616101305e-05
185 1 77.48068196721312 12.757763934426231 2.473030125371889e-06
186 1 80.02748852459018 12.536306885245903 5.605315566093473e-05
187 1 1.7376451147540986 14.343812459016394 5.4701061345675756e-05
188 1 4.343057508196721 14.390870819672132 4.568667031103426e-05
189 1 6.877740983606557 14.603289836065576 2.7057498910741976e-05
190 1 9.146388196721311 14.267266885245903 9.882307389253394e-05
191 1 11.508849180327871 15.679472131147543 5.636112239098017e-05
192 1 13.788402622950821 14.186126557377051 3.565585210320989e-05
193 1 17.472284590163934 14.573752131147543 7.86424988698283e-05
194 1 20.053274098360657 14.984906885245904 4.9119303612595855e-05
195 1 22.392963278688526 15.548647868852461 6.852531642649109e-05
196 1 24.938356065573775 15.56480524590164 5.2352938818803354e-05
197 1 27.884754754098363 15.521634754098363 7.44705436539166e-05
198 1 30.608282622950824 15.083012459016395 6.514665250844282e-05
199 1 33.26748393442623 14.925680000000002 6.628544250882901e-05
200 1 35.95586950819672 14.896192786885246 6.372132567128585e-05
201 1 38.47672327868853 14.903110163934427 1.7394777454270338e-05
202 1 40.42323278688525 14.01753442622951 5.079958252105788e-05
203 1 42.87329704918033 13.28828131147541 3.37203180844708e-05
204 1 45.099531147540986 12.775082622950821 8.47907276338271e-05
205 1 48.18190426229509 14.449946229508198 7.803017930229395e-06
206 1 51.86164590163935 14.55269704918033 7.872243366616421e-05
207 1 53.42083278688525 14.542144262295082 3.6316085617201015e-05
208 1 56.27765901639345 14.790361967213116 1.2735247584134135e-06
209 1 59.838340983606564 14.84494360655738 2.109814542409986e-05
210 1 62.57651147540984 14.68392524590164 9.266303983202162e-07
211 1 65.02940327868853 14.789503606557378 5.675538287350358e-05
212 1 67.51915409836067 14.531591475409838 6.858225146291921e-05
213 1 69.78522622950821 13.516857704918033 3.50573659510537e-05
214 1 73.38024262295082 14.691448524590164 9.862793279789608e-05
215 1 75.98511475409838 15.051859016393445 2.4055326488136208e-05
216 1 79.056531147541 15.01772655737705 6.3999153026434445e-06
217 1 81.75481311475411 14.414854426229509 9.654136987661189e-06
218 1 0.5353292459016394 16.668455081967213 6.0127838702788096e-05
219 1 3.1245287213114756 16.716018360655738 9.138939528397347e-05
220 1 5.711329836065575 16.872139016393444 5.472609320039118e-05
221 1 8.352051147540983 16.95822754098361 9.720316224382597e-05
222 1 11.014584918032787 17.126819672131152 4.531749657587561e-05
223 1 13.437787540983608 16.99983278688525 1.1050774420425225e-05
224 1 16.01029442622951 16.78685836065574 8.2091672771674e-05
225 1 18.402899016393444 17.05077901639344 7.800718581040256e-08
226 1 20.624538360655738 18.56856262295082 9.164936921860651e-05
227 1 23.482879344262297 17.908180327868855 9.362802196119395e-05
228 1 25.735621639344266 16.883752131147542 8.140352371484774e-05
229 1 29.421169836065577 17.477586229508198 3.94036608682478e-05
230 1 32.09077245901639 17.28723213114754 8.546946523903076e-05
231 1 34.799859672131156 17.181552786885245 2.29724586927219e-05
232 1 37.60861770491804 17.290716065573772 1.1154654714124746e-05
233 1 41.05372393442623 16.509759344262296 9.286331575645317e-05
234 1 42.463657049180334 15.833421639344264 5.001473251836027e-05
235 1 45.51770426229509 15.859626885245904 9.142921486009149e-05
236 1 47.08658557377049 17.660417049180328 4.676015418953398e-05
237 1 49.78542295081968 17.84148065573771 5.113199566093878e-05
238 1 52.442301639344265 17.943221639344266 5.564320146890036e-05
239 1 55.08554754098361 16.73747737704918 1.2845915711431356e-05
240 1 57.336977049180334 15.895980983606558 1.2100224257461179e-05
241 1 61.11477377049181 16.966710163934426 4.397641404889501e-05
242 1 63.909495081967215 17.281324590163937 1.7704678478330916e-05
243 1 67.12986229508198 16.923893114754097 5.718317650622033e-05
244 1 69.69030163934427 16.195700327868852 7.016256444593273e-05
245 1 71.67765901639345 17.888942950819676 7.835912529397395e-05
246 1 74.50822950819673 17.16797049180328 2.233945259427238e-05
247 1 76.75713442622951 16.386660327868853 5.733620543855311e-05
248 1 80.5571475409836 16.885115409836068 5.628334462012387e-05
249 1 1.8585275409836066 19.047022950819674 7.065573277935305e-05
250 1 4.426192262295082 19.149824262295084 2.068655742772837e-05
251 1 7.078041967213116 19.235155409836064 5.41024087505579e-05
252 1 9.744918032786886 19.334977704918035 7.813394604060556e-05
253 1 12.405331147540984 19.514375081967216 8.791791862141452e-05
254 1 14.998691147540987 19.2246531147541 9.483163970104943e-05
255 1 17.28031475409836 20.65569180327869 7.803659396034481e-05
256 1 20.100281967213114 19.99727868852459 1.1354820023631374e-05
257 1 22.725754754098364 21.130920655737707 9.385586696889576e-05
258 1 25.36359803278689 19.71391868852459 9.756245396722077e-05
259 1 28.102980327868853 19.80066360655738 4.234805504740598e-05
260 1 30.683363934426232 19.64090754098361 6.108688745514083e-05
261 1 33.351502295081964 19.482615737704922 2.0624187782888026e-05
262 1 35.90623606557377 19.39268983606558 8.530603988533698e-05
263 1 38.622240655737706 19.575773114754103 6.923612060337669e-05
264 1 41.60605377049181 19.155378360655742 8.658675962009788e-06
265 1 44.57577967213115 18.690853770491806 3.767027645914728e-05
266 1 47.08088000000001 19.188551475409838 5.213861408220533e-05
267 1 49.74816 19.37208918032787 3.0224006391903426e-05
268 1 52.39180983606558 19.47600131147541 5.543964820700824e-05
269 1 54.825514754098364 19.035409836065575 5.4419839885337075e-05
270 1 57.33243278688525 18.5176668852459 1.3377437697537598e-05
271 1 59.570734426229514 20.054132459016394 3.7500566406546824e-05
272 1 62.25689836065575 19.258331147540986 7.092030285737978e-05
273 1 64.79310163934427 18.609360000000002 5.3958400084128656e-05
274 1 68.64057704918032 18.80769180327869 3.5146952886281336e-06
275 1 71.02227540983607 19.289888524590165 5.1735000771946416e-05
276 1 73.40447868852459 19.487210491803282 2.2491618424259477e-05
277 1 76.09518688524591 19.24232524590164 7.10496048436337e-05
278 1 79.23173770491803 19.136393442622953 4.9951688056840605e-05
279 1 81.99464918032787 19.038186885245903 7.348966204714603e-06
280 1 0.5453468196721313 21.416704262295085 1.3374318422976306e-05
281 1 2.9947546885245906 21.465529836065578 1.6783100907896244e-05
282 1 5.699464262295082 21.50127803278689 5.244052728791173e-05
283 1 8.427536393442624 21.58469049180328 7.312010213072147e-05
284 1 11.042910819672132 21.73404524590164 6.822554949560108e-05
285 1 13.720440655737706 21.735156065573772 8.553029088436528e-05
286 1 16.526472131147543 22.00362098360656 7.796916631439475e-05
287 1 19.15335868852459 22.3454 6.675687971834122e-05
288 1 22.076228196721313 22.51414360655738 1.2828822570461586e-05
289 1 24.72285704918033 22.129800000000003 5.983093419835811e-05
290 1 26.74666950819672 23.393710819672133 8.6644198678271e-05
291 1 30.25145704918033 21.91106950819672 6.674270265057864e-05
292 1 31.7965062295082 21.806349508196725 5.942254716931728e-06
293 1 34.47787344262295 21.807460327868856 8.037913542077543e-05
294 1 37.177922622950824 21.6917331147541 5.380931399984863e-05
295 1 39.465504262295084 20.85286229508197 1.0412351636088858e-05
296 1 43.088796065573774 20.9902 1.7463277593440786e-05
297 1 45.581980327868855 21.31137836065574 2.0603622313960257e-05
298 1 48.20013180327869 21.5469731147541 7.737399459638089e-05
299 1 50.942695081967216 21.72682491803279 2.5493100073485555e-05
300 1 54.71342295081968 21.34293573770492 6.449767497191515e-05
301 1 56.241809836065585 21.126679344262296 6.579643786689855e-05
302 1 59.004216393442626 21.482545573770494 1.919479044189054e-06
303 1 61.52830163934427 21.720059016393446 8.820940404403339e-05
304 1 64.1104524590164 21.16464918032787 5.291175381908722e-05
305 1 66.78853770491804 20.976112786885245 6.340814386600047e-06
306 1 69.54387540983608 21.550961967213116 3.317687583243652e-05
307 1 72.20428852459018 21.865879344262297 6.148325264097785e-05
308 1 74.836931147541 21.588578360655738 5.2692135698000535e-05
309 1 76.9540524590164 20.5213331147541 7.271482114372235e-05
310 1 80.63742950819673 21.25548393442623 8.118259059772442e-05
311 1 1.5298107540983608 23.89448852459017 1.0842977133699517e-05
312 1 4.14091862295082 23.72559344262295 1.1655048516766154e-05
313 1 7.067640655737706 23.778357377049183 1.5156367514386139e-05
314 1 9.601066885245903 24.00905442622951 3.983042088428608e-05
315 1 12.147015081967215 24.042732459016396 3.9137406485280306e-06
316 1 14.709575081967214 24.016224262295083 5.6989069885385e-05
317 1 17.331765901639343 24.43343803278689 5.026336269499462e-05
318 1 20.49825836065574 24.463127213114756 7.873169534602165e-05
319 1 24.040056393442626 24.487312786885248 2.61410790361565e-05
320 1 25.7004793442623 25.91567540983607 5.51938187534204e-05
321 1 28.326154098360657 25.305280000000003 2.3444036811856895e-05
322 1 30.57793704918033 24.648028196721313 9.67891242337573e-05
323 1 33.31025049180328 24.10842229508197 8.681948902651408e-05
324 1 36.07740327868853 23.988504262295084 6.729312467600615e-05
325 1 38.826480000000004 23.675404590163936 9.359673748259913e-05
326 1 41.52415606557378 23.39578098360656 1.5445562349257904e-05
327 1 44.08590819672132 23.564625573770495 6.797171966794899e-05
328 1 46.6345324590164 23.746850491803283 4.716497914965379e-06
329 1 49.12307147540984 23.802189508196726 2.932085586858123e-05
330 1 51.66876721311476 23.9763862295082 7.127456445489387e-05
331 1 54.69928524590164 23.775024918032788 9.168716318372205e-06
332 1 57.526321311475414 23.507165901639343 1.7527223644170965e-05
333 1 60.174111475409845 23.998047213114756 7.067322738675053e-06
334 1 63.81608524590165 23.488080000000004 7.590046655108012e-05
335 1 65.34447213114754 23.31994229508197 5.8503841982851935e-05
336 1 68.06345573770491 23.57432 2.9493547462693916e-05
337 1 71.27877377049181 24.004914098360658 2.8659278253409637e-05
338 1 74.07147540983607 23.9763862295082 3.171692406700093e-05
339 1 76.64504262295083 23.43662885245902 5.306652467347787e-05
340 1 79.17013770491805 23.37068655737705 1.812883121374145e-05
341 1 81.68765901639344 23.643847213114757 4.693975233468362e-05
342 1 0.19435658360655741 27.239721967213118 5.3952504357673695e-05
343 1 2.8843240655737707 26.164044590163936 4.7779009456107736e-05
344 1 5.567983606557378 25.708204590163938 1.3841069325853406e-05
345 1 8.177299016393443 26.304260327868857 3.461488211746005e-05
346 1 10.67113967213115 26.436750819672135 6.525022520625088e-05
347 1 13.326907540983608 26.420391475409836 5.274814662786442e-05
348 1 15.921984262295084 26.495674754098363 6.624243734813024e-05
349 1 18.01269836065574 25.800200655737708 1.616022370135758e-05
350 1 21.527382295081967 25.579450491803282 7.770145865265785e-05
351 1 24.668325901639346 27.045782950819675 6.312848056679888e-05
352 1 27.127933114754104 27.80820918032787 5.51674496898648e-05
353 1 29.86807278688525 27.445880000000002 6.56822548371487e-05
354 1 32.333133114754105 26.54126885245902 1.6825614453401805e-07
355 1 34.95688918032787 26.244629508196724 2.9958237213446294e-05
356 1 37.61094032786885 26.051851803278694 8.249344585331504e-05
357 1 40.19642360655738 25.834131147540987 3.537677118648216e-05
358 1 42.76872852459017 25.881946885245906 4.5070320982886525e-05
359 1 45.33098557377049 26.04811540983607 3.1766827591365847e-05
360 1 47.89344459016394 26.201963934426235 6.591666287319645e-05
361 1 50.391526557377055 26.23210754098361 9.516438250254365e-05
362 1 52.50592131147542 25.237065573770494 9.042570025151822e-05
363 1 56.066098360655744 25.73501573770492 7.055581038734523e-05
364 1 58.326111475409846 25.980658360655738 9.197494682998278e-05
365 1 61.406111475409844 26.345158688524595 4.3848754431405834e-05
366 1 63.94231475409836 26.035845901639348 3.097407062765907e-05
367 1 66.75066885245901 25.684321967213116 7.314758748904416e-05
368 1 68.90111475409837 24.92250163934426 5.869539486136698e-05
369 1 72.81624918032787 26.188331147540985 1.3646022738466002e-05
370 1 76.438531147541 25.76960262295082 6.632224642911569e-05
371 1 77.99418360655739 25.816761967213118 4.625894303745214e-05
372 1 80.49857704918034 25.89068196721312 2.6747553672995808e-05
373 1 2.333261573770492 28.634204590163936 2.865602482143892e-06
374 1 5.480531803278689 27.643706885245905 3.755740981317002e-06
375 1 6.583121311475411 29.944163934426232 3.779205898058491e-05
376 1 9.303771147540985 28.84859278688525 2.4306307415571593e-05
377 1 11.995489180327871 28.75023475409836 9.941171218031602e-05
378 1 14.845398032786886 28.788659016393446 3.901294164423729e-05
379 1 17.677836721311476 28.649251147540987 5.757090597659407e-05
380 1 20.538449836065574 28.26834098360656 2.5321131608339644e-05
381 1 22.878139016393444 29.636062950819674 9.633653692700436e-05
382 1 25.718656393442625 29.702762622950825 9.569438203199548e-05
383 1 27.860771147540987 29.137405901639347 9.24227619181031e-05
384 1 31.277198032786888 29.252426229508202 9.22819292444326e-05
385 1 33.79628459016394 28.690805901639347 6.327899247980182e-05
386 1 36.39691540983607 28.45076786885246 7.500859564634277e-06
387 1 38.94988196721312 28.316106229508197 9.757907545103174e-06
388 1 41.42938295081967 28.24572065573771 2.0782391985505624e-05
389 1 44.08444393442624 28.355035409836066 5.839132089910117e-05
390 1 46.67447147540984 28.500906229508196 5.0997185757272384e-05
391 1 49.375782950819676 28.61456327868853 6.476541958301535e-05
392 1 52.7952393442623 27.814217704918033 8.736602383808899e-05
393 1 54.317567213114756 27.92721836065574 9.37184714810985e-05
394 1 56.938596721311484 28.397902950819677 2.1627384135870375e-05
395 1 59.05117377049181 27.31116786885246 3.0108410659099084e-06
396 1 63.37680655737706 29.383452459016397 1.3193532507437345e-05
397 1 65.90846557377048 27.91454491803279 2.2526924179415177e-05
398 1 68.49112131147541 27.83279868852459 2.4967357612844177e-05
399 1 71.11114098360656 28.120046557377055 8.550100943906297e-05
400 1 73.76297049180329 28.510045245901644 1.1945675120957677e-06
401 1 76.56627540983607 28.399064262295084 8.808462218151115e-05
402 1 79.40795409836066 28.38851147540984 5.740091409858693e-05
403 1 82.15218360655739 28.604313442622956 6.418234046531958e-05
404 1 0.9469990163934427 30.69613836065574 8.402742256502349e-06
405 1 3.659676196721312 30.891440655737707 6.95383891126122e-05
406 1 6.21352131147541 31.42892590163935 5.284996790029143e-05
407 1 8.471413770491804 31.3868662295082 6.111739423818741e-06
408 1 10.74157573770492 31.113857049180332 3.1991557199738354e-05
409 1 13.32564524590164 30.89987278688525 9.093376199218276e-05
410 1 16.1816131147541 30.908910819672133 4.3784487930301834e-05
411 1 19.477011147540985 30.577785573770495 1.4673812361350492e-05
412 1 22.236236721311474 31.01378229508197 3.920420299497819e-05
413 1 24.6708 31.68719147540984 6.511299694735416e-05
414 1 27.392005245901643 31.926068196721317 6.006463928869628e-05
415 1 29.847017704918034 31.77989442622951 6.986044045649651e-05
416 1 32.42043344262295 31.25639540983607 3.9116245580182894e-06
417 1 35.018085245901645 30.883563934426235 4.636474336300425e-05
418 1 37.658453114754096 30.76965442622951 9.949253774509184e-05
419 1 40.130279344262306 30.73658229508197 1.088898562538565e-06
420 1 42.59347147540984 30.60025442622951 1.825239443462896e-05
421 1 45.35577704918033 30.80313049180328 7.396279057337187e-05
422 1 48.18841770491804 30.810704262295086 5.424096480376188e-05
423 1 50.76041967213115 30.924310819672137 9.728426493665935e-05
424 1 53.554636065573774 29.98814229508197 9.663503380557998e-05
425 1 54.934072131147545 29.331041967213118 8.712114236473341e-05
426 1 58.607350819672135 30.20404524590164 6.972815150393815e-05
427 1 60.84413770491804 29.086207213114758 2.5941043319378268e-05
428 1 64.8688393442623 30.49750360655738 2.669684078676714e-05
429 1 67.03695737704919 30.242974426229512 4.329082677989198e-05
430 1 69.5968918032787 30.371728524590168 5.407710580417386e-05
431 1 72.48906229508198 30.630953442622953 8.472401098477278e-05
432 1 75.19946229508197 30.598537704918034 2.52950176093126e-05
433 1 78.02548852459017 30.659077377049183 7.817697143009503e-05
434 1 80.91311475409837 30.89366229508197 1.1676122050994609e-05
435 1 1.961697442622951 32.967865573770496 6.654943888373972e-05
436 1 4.6781665573770495 33.46813836065574 1.94294410682925e-05
437 1 7.413156065573771 33.9702793442623 6.543946264118973e-05
438 1 9.704322622950821 33.83400196721312 6.211417260530576e-05
439 1 11.918741639344264 33.34907868852459 6.796424306195647e-05
440 1 14.580366557377051 32.95892852459017 5.7114318458607584e-05
441 1 17.14711737704918 32.10910098360656 2.1241384544278485e-05
442 1 20.796513442622953 32.926613770491805 6.454376952477181e-06
443 1 23.1499868852459 33.68111278688525 7.872137464043751e-05
444 1 25.789092459016395 34.001533770491804 7.711594741101961e-05
445 1 28.368617704918037 34.348765901639354 6.47477056630605e-05
446 1 31.93197573770492 33.68984786885246 4.461620625082476e-05
447 1 33.42744196721312 33.31509770491804 8.683021227926806e-05
448 1 36.12824852459017 33.101517377049184 7.695071679481182e-05
449 1 38.773009180327875 33.20987278688525 9.071567944502524e-06
450 1 41.47492655737706 33.1270662295082 1.6406482781798383e-05
451 1 44.10226754098361 32.84562491803279 4.073371679597882e-06
452 1 46.07563868852459 32.172821639344264 2.9228622567591655e-05
453 1 49.66570688524591 34.3874931147541 1.7308078524181258e-05
454 1 52.32011147540984 33.35246163934426 2.4612466995759785e-05
455 1 55.151186885245906 33.69570491803279 4.592294435313096e-05
456 1 57.69950819672132 32.62028 3.7825367234662525e-05
457 1 60.165527868852465 31.986506885245905 7.723195785954019e-05
458 1 62.94813114754099 32.33156786885246 5.759856032039317e-05
459 1 65.3964786885246 32.81649114754099 9.427934588218288e-05
460 1 67.96449180327869 32.6326 4.4699318770399034e-05
461 1 70.21996065573771 31.79100262295082 7.986712845215222e-05