ITEM: TIMESTEP
0
ITEM: NUMBER OF ATOMS
2232
ITEM: BOX BOUNDS xy xz yz pp pp pp
0.0 82.68810555352132 0
0.0 83.16 0
-10.0 10.0 0
ITEM: ATOMS id type x y z vx vy vz
1 1 1.6690873442622953 1.0576265573770494 9.34629174553e-05 0.0 0.0 0.0
2 1 4.1366722622950824 1.1827149508196722 8.7656136797e-05 0.0 0.0 0.0
3 1 6.458457049180328 0.9237828852459017 2.67002029901e-05 0.0 0.0 0.0
4 1 9.146236721311476 0.5845385573770493 8.63500332854e-05 0.0 0.0 0.0
5 1 12.177714098360658 0.14807630163934427 7.28470565092e-05 0.0 0.0 0.0
6 1 14.36971475409836 1.0894565901639346 1.54220938866e-05 0.0 0.0 0.0
7 1 17.60770360655738 0.45407228196721316 8.13797017636e-05 0.0 0.0 0.0
8 1 20.24226491803279 0.5201312131147542 1.30109208313e-05 0.0 0.0 0.0
9 1 22.839361311475415 0.6757772459016393 6.15614346461e-05 0.0 0.0 0.0
10 1 25.524767868852464 0.45874630819672135 9.01270448311e-05 0.0 0.0 0.0
11 1 29.43056131147541 0.5699464262295082 7.65360984824e-05 0.0 0.0 0.0
12 1 30.989142295081972 0.3398158950819673 5.98091188048e-05 0.0 0.0 0.0
13 1 33.63743737704919 0.3526534360655738 8.7576539343e-05 0.0 0.0 0.0
14 1 36.14693049180328 0.17869958032786887 4.75867944235e-05 0.0 0.0 0.0
15 1 38.768717377049185 83.0140786885246 1.15729999991e-05 0.0 0.0 0.0
16 1 41.07619278688525 1.1004436065573773 9.29693627946e-05 0.0 0.0 0.0
17 1 44.01612852459017 0.5727537704918033 5.7395008562e-05 0.0 0.0 0.0
18 1 46.24024196721312 2.1475931147540988 9.35873515847e-06 0.0 0.0 0.0
19 1 50.31053770491804 1.7444211147540984 3.01122680841e-05 0.0 0.0 0.0
20 1 51.886386885245905 1.667865442622951 6.92876654936e-05 0.0 0.0 0.0
21 1 54.59931147540984 0.8715895081967214 9.69942921321e-05 0.0 0.0 0.0
22 1 57.34000655737706 0.34182041967213117 7.31339247662e-05 0.0 0.0 0.0
23 1 61.00217704918033 0.3422768655737705 4.03761137694e-05 0.0 0.0 0.0
24 1 62.52198032786885 0.5078718032786885 9.57951648465e-05 0.0 0.0 0.0
25 1 65.22581639344264 1.0563339672131147 5.74418343356e-05 0.0 0.0 0.0
26 1 68.6915737704918 1.1040941639344264 8.54210059207e-05 0.0 0.0 0.0
27 1 71.54638032786886 1.141109704918033 4.96169015868e-05 0.0 0.0 0.0
28 1 73.88162622950821 1.1826341639344262 7.55104291998e-05 0.0 0.0 0.0
29 1 76.33704262295083 0.6629523278688526 3.37054418786e-05 0.0 0.0 0.0
30 1 78.90909508196722 0.6936412459016393 9.57733862263e-05 0.0 0.0 0.0
31 1 81.57708196721312 0.9828986885245903 8.83844254077e-05 0.0 0.0 0.0
32 1 82.68537704918033 3.1584238688524593 3.95302369514e-05 0.0 0.0 0.0
33 1 2.690359803278689 3.663957901639345 4.10338930277e-05 0.0 0.0 0.0
34 1 5.622060327868853 3.552744655737705 6.33948890061e-05 0.0 0.0 0.0
35 1 7.996487868852459 2.9420210491803283 6.16235342301e-05 0.0 0.0 0.0
36 1 9.962790163934427 1.9028795409836068 5.85712362522e-05 0.0 0.0 0.0
37 1 13.608803278688526 2.3962702950819676 9.62055050646e-05 0.0 0.0 0.0
38 1 15.559705573770492 2.024029573770492 4.23236476496e-05 0.0 0.0 0.0
39 1 19.041216393442625 2.7902780327868855 4.43631256451e-06 0.0 0.0 0.0
40 1 21.552527213114757 2.9206983606557384 1.61833800431e-05 0.0 0.0 0.0
41 1 24.8394931147541 2.6724705573770495 7.87558624142e-05 0.0 0.0 0.0
42 1 26.1323862295082 1.8619357377049184 1.14791142281e-05 0.0 0.0 0.0
43 1 29.060607868852465 3.6313553442622957 5.64032456755e-05 0.0 0.0 0.0
44 1 33.31600655737706 2.3757756721311476 2.24443018053e-05 0.0 0.0 0.0
45 1 34.86024786885246 2.661796590163935 2.18813120281e-05 0.0 0.0 0.0
46 1 38.40295475409837 2.10996662295082 9.12246360891e-05 0.0 0.0 0.0
47 1 39.95229573770492 2.152339344262295 9.29261681215e-05 0.0 0.0 0.0
48 1 42.35489770491804 2.7366001967213114 7.94679610789e-05 0.0 0.0 0.0
49 1 45.06555016393443 3.100216918032787 4.79294148561e-05 0.0 0.0 0.0
50 1 47.24477639344263 3.312671278688525 9.27510147328e-05 0.0 0.0 0.0
51 1 50.932091803278695 4.4927556065573775 5.33299009212e-05 0.0 0.0 0.0
52 1 54.206485245901646 3.26003862295082 6.40010983948e-06 0.0 0.0 0.0
53 1 55.64146229508197 2.7128084590163937 6.35535569426e-05 0.0 0.0 0.0
54 1 58.30389508196722 2.755145836065574 4.16302411046e-05 0.0 0.0 0.0
55 1 60.942596721311475 2.8110251147540986 2.65566636336e-05 0.0 0.0 0.0
56 1 63.59745573770493 2.9395166557377053 7.87922112762e-05 0.0 0.0 0.0
57 1 66.0619606557377 2.334912655737705 9.39578248457e-05 0.0 0.0 0.0
58 1 69.80037377049182 3.1924048524590165 2.73784899336e-05 0.0 0.0 0.0
59 1 72.3688918032787 3.654233180327869 1.06060615895e-05 0.0 0.0 0.0
60 1 75.74527868852459 3.2130206557377052 5.60821643863e-05 0.0 0.0 0.0
61 1 77.24740983606559 2.959117573770492 9.48794899901e-05 0.0 0.0 0.0
62 1 79.84369836065575 3.0458473442622953 9.33489789706e-05 0.0 0.0 0.0
63 1 0.8973504262295083 5.56672131147541 6.21762070518e-05 0.0 0.0 0.0
64 1 3.114087016393443 5.19363737704918 7.85645337542e-05 0.0 0.0 0.0
65 1 6.756813114754099 5.607114754098362 4.30066467555e-05 0.0 0.0 0.0
66 1 9.352899672131148 4.941587344262296 4.05206819548e-06 0.0 0.0 0.0
67 1 12.258652459016394 4.382138163934426 6.24308166107e-05 0.0 0.0 0.0
68 1 14.730428196721313 4.847283803278689 5.07621338387e-05 0.0 0.0 0.0
69 1 17.28288983606558 4.840351278688526 9.39379293555e-06 0.0 0.0 0.0
70 1 20.480333770491807 5.239837377049181 9.42240542646e-05 0.0 0.0 0.0
71 1 22.006801967213114 5.2601350819672135 7.13809030834e-05 0.0 0.0 0.0
72 1 24.549518688524593 5.5911088524590165 7.48707348978e-05 0.0 0.0 0.0
73 1 27.171760000000003 5.623221639344263 2.61260278731e-05 0.0 0.0 0.0
74 1 29.817530491803282 4.979688459016394 6.95965098491e-05 0.0 0.0 0.0
75 1 33.32151016393443 4.99500262295082 8.92709989334e-05 0.0 0.0 0.0
76 1 36.67729639344263 5.063368524590165 9.33326431944e-05 0.0 0.0 0.0
77 1 38.21416590163935 4.903057049180328 8.77974190286e-05 0.0 0.0 0.0
78 1 40.897603278688536 4.842123540983606 6.20857565199e-05 0.0 0.0 0.0
79 1 43.68187278688525 5.0806872131147545 1.94857106253e-05 0.0 0.0 0.0
80 1 45.94410754098361 6.778575081967214 1.46466074423e-05 0.0 0.0 0.0
81 1 48.47011147540984 5.5807580327868855 5.14070219673e-05 0.0 0.0 0.0
82 1 52.36555409836066 6.644620327868854 7.49699999019e-05 0.0 0.0 0.0
83 1 54.81491147540984 6.01796655737705 1.97133942642e-05 0.0 0.0 0.0
84 1 57.238013114754104 4.945510557377049 9.32980042718e-05 0.0 0.0 0.0
85 1 59.90852459016394 5.012275868852459 8.93365224609e-05 0.0 0.0 0.0
86 1 62.3972655737705 5.172733770491804 7.71444683997e-05 0.0 0.0 0.0
87 1 65.00971147540983 5.009236262295082 8.93720781946e-05 0.0 0.0 0.0
88 1 67.67820327868854 4.933367278688525 9.25912060407e-05 0.0 0.0 0.0
89 1 70.39516721311476 5.645740983606558 4.6426870771e-05 0.0 0.0 0.0
90 1 73.18988852459017 6.275373770491804 4.63177196888e-05 0.0 0.0 0.0
91 1 75.64328524590164 5.853262295081968 2.8820799811e-05 0.0 0.0 0.0
92 1 78.24714754098362 5.305729180327869 2.48395124779e-05 0.0 0.0 0.0
93 1 80.98077377049181 5.146023606557378 4.9932902305e-05 0.0 0.0 0.0
94 1 82.26023606557378 8.728265573770493 1.00630140445e-05 0.0 0.0 0.0
95 1 2.2670365245901642 7.943572459016394 4.13257620447e-05 0.0 0.0 0.0
96 1 4.837175344262296 7.6458727868852465 4.70689184488e-05 0.0 0.0 0.0
97 1 7.294348852459017 7.04320262295082 2.90953216539e-05 0.0 0.0 0.0
98 1 11.082900327868852 6.4912767213114755 3.90579090704e-05 0.0 0.0 0.0
99 1 13.560230163934428 7.000739016393443 2.23445001075e-05 0.0 0.0 0.0
100 1 15.95793442622951 7.208664262295082 7.40386144846e-05 0.0 0.0 0.0
101 1 18.038297704918033 6.172067540983607 4.05717561672e-05 0.0 0.0 0.0
102 1 21.351165901639348 9.545020983606559 5.90201559081e-05 0.0 0.0 0.0
103 1 23.82273967213115 8.641722622950821 7.80351488049e-05 0.0 0.0 0.0
104 1 26.067857704918033 7.962405901639345 1.97034539427e-05 0.0 0.0 0.0
105 1 28.16175278688525 6.799933114754099 5.51626469574e-05 0.0 0.0 0.0
106 1 31.94121573770492 7.284300983606558 5.49802729819e-05 0.0 0.0 0.0
107 1 34.29963737704919 8.683984262295082 3.58576914588e-05 0.0 0.0 0.0
108 1 37.010643278688526 8.397392786885247 7.69266649043e-05 0.0 0.0 0.0
109 1 40.513815081967216 6.947621639344263 8.78962920076e-05 0.0 0.0 0.0
110 1 42.05830885245902 7.097380327868853 7.22173454223e-05 0.0 0.0 0.0
111 1 44.86282557377049 7.8674813114754105 3.71171371729e-05 0.0 0.0 0.0
112 1 47.44270426229509 8.358160655737706 1.31414408439e-05 0.0 0.0 0.0
113 1 50.52058360655738 8.435615081967214 9.02597796637e-05 0.0 0.0 0.0
114 1 53.444563934426235 7.747209836065575 7.35501148502e-05 0.0 0.0 0.0
115 1 57.19156065573771 7.4119947540983615 8.2205403395e-06 0.0 0.0 0.0
116 1 58.70025573770493 7.18680131147541 4.85261877987e-05 0.0 0.0 0.0
117 1 61.10467540983608 8.469848524590164 7.69696247283e-06 0.0 0.0 0.0
118 1 63.79285901639345 7.4335547540983615 3.70375279893e-05 0.0 0.0 0.0
119 1 66.18314098360656 7.252238688524591 6.41339044165e-05 0.0 0.0 0.0
120 1 68.59311475409837 7.344436721311476 7.41310783235e-05 0.0 0.0 0.0
121 1 70.83798032786885 7.111063606557378 8.65670882653e-05 0.0 0.0 0.0
122 1 74.24718688524591 8.407188196721313 2.12361499049e-05 0.0 0.0 0.0
123 1 77.2469049180328 7.832641967213116 5.82047941712e-05 0.0 0.0 0.0
124 1 79.94720655737706 7.367208524590165 3.72517835179e-05 0.0 0.0 0.0
125 1 0.995344918032787 10.45978098360656 8.36206090838e-05 0.0 0.0 0.0
126 1 3.673662426229509 10.172684590163936 2.88134927795e-06 0.0 0.0 0.0
127 1 6.310364590163935 9.872460327868854 4.05941606231e-05 0.0 0.0 0.0
128 1 11.558735081967214 9.922699672131149 8.59587270434e-05 0.0 0.0 0.0
129 1 10.969394754098362 8.50812131147541 2.28517689418e-05 0.0 0.0 0.0
130 1 14.52800655737705 9.590514098360657 1.53759516254e-05 0.0 0.0 0.0
131 1 18.264803934426233 8.880750819672132 2.69493799721e-05 0.0 0.0 0.0
132 1 19.564765901639344 7.985379672131149 3.34486809683e-05 0.0 0.0 0.0
133 1 22.529240655737706 11.245080000000002 7.14827577961e-05 0.0 0.0 0.0
134 1 25.59949573770492 10.800045245901641 5.70416338581e-06 0.0 0.0 0.0
135 1 28.134840655737708 9.659586885245902 4.28901935251e-05 0.0 0.0 0.0
136 1 30.793739016393445 9.38127606557377 1.35577394445e-05 0.0 0.0 0.0
137 1 33.49247540983607 10.00277967213115 8.42573048896e-05 0.0 0.0 0.0
138 1 37.14586032786886 9.904219672131148 3.87156859058e-05 0.0 0.0 0.0
139 1 38.650061639344266 9.915024918032788 4.98318611526e-05 0.0 0.0 0.0
140 1 40.92244524590165 11.28360524590164 8.38636379902e-05 0.0 0.0 0.0
141 1 43.29606491803279 9.544869508196722 2.95545434723e-06 0.0 0.0 0.0
142 1 46.01111016393443 10.404593442622952 6.94515683865e-05 0.0 0.0 0.0
143 1 48.05284721311476 9.780464262295084 7.65525034928e-05 0.0 0.0 0.0
144 1 51.61019672131148 11.810386229508197 7.0242210058e-05 0.0 0.0 0.0
145 1 54.131252459016395 10.52436 4.44346522901e-05 0.0 0.0 0.0
146 1 56.81287213114755 9.975110163934428 3.05469611895e-05 0.0 0.0 0.0
147 1 61.02691803278689 9.988389508196722 4.10498762067e-05 0.0 0.0 0.0
148 1 62.56237377049181 9.931636721311476 7.55700591635e-05 0.0 0.0 0.0
149 1 65.34093770491803 9.810304918032788 6.4163488502e-05 0.0 0.0 0.0
150 1 67.69335081967215 9.702403934426231 5.64220924797e-05 0.0 0.0 0.0
151 1 69.94680000000001 10.986259016393445 3.07595906026e-05 0.0 0.0 0.0
152 1 72.8187737704918 10.500275409836066 5.00140673944e-05 0.0 0.0 0.0
153 1 75.09696393442623 9.657668196721312 6.58622767053e-06 0.0 0.0 0.0
154 1 78.63896393442624 9.761832786885247 1.6912322802e-05 0.0 0.0 0.0
155 1 81.31300983606559 9.9176 4.2757589054e-05 0.0 0.0 0.0
156 1 81.84973770491804 13.436222295081969 1.69752416711e-05 0.0 0.0 0.0
157 1 2.021762491803279 12.545597377049182 3.06598275567e-05 0.0 0.0 0.0
158 1 5.1521331147541 12.369885901639345 6.14549807495e-05 0.0 0.0 0.0
159 1 7.308133114754099 11.084314098360657 9.53807977873e-05 0.0 0.0 0.0
160 1 10.782979016393442 12.23689049180328 7.58930221673e-07 0.0 0.0 0.0
161 1 13.084445901639347 11.792916065573772 1.40668953387e-05 0.0 0.0 0.0
162 1 15.538095081967214 11.706726557377051 1.15618391926e-05 0.0 0.0 0.0
163 1 17.97578885245902 11.831895737704919 8.26234989917e-05 0.0 0.0 0.0
164 1 20.343299016393445 12.352971147540984 7.87286262192e-06 0.0 0.0 0.0
165 1 23.04572131147541 12.650569836065575 7.89921514671e-05 0.0 0.0 0.0
166 1 27.503087213114757 12.294956065573771 7.78487192493e-05 0.0 0.0 0.0
167 1 29.90028655737705 11.771659016393444 2.89042955928e-05 0.0 0.0 0.0
168 1 31.870426229508197 13.350487213114755 3.31633875134e-05 0.0 0.0 0.0
169 1 34.47580327868853 12.511161967213116 3.31256254288e-05 0.0 0.0 0.0
170 1 37.20493573770492 12.214118688524591 2.07852116194e-05 0.0 0.0 0.0
171 1 40.767637377049184 12.829260327868854 8.43444654936e-05 0.0 0.0 0.0
172 1 43.54347475409836 11.681531147540985 2.56616580005e-05 0.0 0.0 0.0
173 1 44.911701639344265 13.878379016393444 6.37992545547e-05 0.0 0.0 0.0
174 1 47.64305573770493 12.7042931147541 4.97795541768e-06 0.0 0.0 0.0
175 1 50.63822950819673 12.99951868852459 2.06831660266e-06 0.0 0.0 0.0
176 1 54.346347540983615 12.67576524590164 8.40462378077e-06 0.0 0.0 0.0
177 1 55.8712 12.46056918032787 1.12104216836e-05 0.0 0.0 0.0
178 1 58.38064262295082 12.289805901639346 7.538604241e-05 0.0 0.0 0.0
179 1 61.28291147540984 13.0954531147541 9.73872244574e-05 0.0 0.0 0.0
180 1 64.13620327868853 12.02507737704918 9.2085883992e-05 0.0 0.0 0.0
181 1 66.80368524590165 12.288644590163937 6.24220121992e-05 0.0 0.0 0.0
182 1 69.37523278688525 12.40634098360656 7.50698020564e-07 0.0 0.0 0.0
183 1 71.66251147540984 13.950481311475412 3.55563174708e-06 0.0 0.0 0.0
184 1 75.34184918032788 12.104652459016396 3.85102882711e-05 0.0 0.0 0.0
185 1 76.89093770491803 11.974989508196723 2.72935320286e-05 0.0 0.0 0.0
186 1 79.59325901639345 12.039265573770493 5.90478286685e-05 0.0 0.0 0.0
187 1 0.8221125901639345 14.786928524590165 7.26170399586e-05 0.0 0.0 0.0
188 1 2.9083884590163938 13.789917377049182 2.00964114027e-05 0.0 0.0 0.0
189 1 6.925001311475411 14.025310163934428 6.91924740139e-05 0.0 0.0 0.0
190 1 9.608135737704918 14.306852459016396 8.24701059357e-05 0.0 0.0 0.0
191 1 12.023007213114756 14.503316065573772 7.36452141705e-05 0.0 0.0 0.0
192 1 14.465447213114755 14.171433442622952 2.88908536904e-05 0.0 0.0 0.0
193 1 16.90081836065574 15.236154098360657 5.49141966329e-05 0.0 0.0 0.0
194 1 19.572036721311477 14.506699016393444 1.47684599123e-05 0.0 0.0 0.0
195 1 22.129749508196724 14.574913442622952 3.97381631636e-05 0.0 0.0 0.0
196 1 25.382683934426232 12.366351475409838 8.80538730436e-05 0.0 0.0 0.0
197 1 28.380432786885248 14.393445901639344 5.02499423481e-07 0.0 0.0 0.0
198 1 31.041754754098363 14.670342950819673 8.92420428978e-05 0.0 0.0 0.0
199 1 34.44323606557378 14.71396786885246 7.91475203763e-05 0.0 0.0 0.0
200 1 36.94162098360656 14.11038885245902 7.36652170582e-05 0.0 0.0 0.0
201 1 38.255114754098365 13.344024262295084 3.62366747544e-05 0.0 0.0 0.0
202 1 41.74081639344262 15.144511475409837 8.61182756914e-05 0.0 0.0 0.0
203 1 44.360078688524595 15.305479344262297 5.33118315323e-07 0.0 0.0 0.0
204 1 46.5082524590164 15.274780327868854 9.26847106759e-05 0.0 0.0 0.0
205 1 48.9089862295082 14.841964590163936 7.92284370542e-05 0.0 0.0 0.0
206 1 51.52587540983607 15.197881311475411 9.21229850866e-05 0.0 0.0 0.0
207 1 54.4892393442623 15.11785180327869 6.80420099326e-05 0.0 0.0 0.0
208 1 57.65356065573771 14.779152786885247 7.52269312048e-05 0.0 0.0 0.0
209 1 61.96707540983607 14.480796721311478 8.29823349549e-05 0.0 0.0 0.0
210 1 63.411645901639346 14.03828655737705 2.96750112695e-05 0.0 0.0 0.0
211 1 65.37022295081968 15.831755409836067 8.01764319022e-05 0.0 0.0 0.0
212 1 68.13616393442624 14.78748393442623 3.52634298412e-05 0.0 0.0 0.0
213 1 70.72740327868853 15.169252459016395 1.7935218257e-05 0.0 0.0 0.0
214 1 73.20352131147541 15.459832786885247 8.54078675142e-05 0.0 0.0 0.0
215 1 75.59481311475412 14.709625573770493 7.17500744417e-05 0.0 0.0 0.0
216 1 78.15424262295083 14.319172459016395 4.47128135426e-05 0.0 0.0 0.0
217 1 80.97572459016394 14.686045901639345 2.16426706385e-05 0.0 0.0 0.0
218 1 82.19762622950822 17.082689836065576 8.90928075374e-05 0.0 0.0 0.0
219 1 2.5367586885245905 16.688752786885246 9.4906031063e-05 0.0 0.0 0.0
220 1 4.639404000000001 15.284626229508198 3.53024032687e-05 0.0 0.0 0.0
221 1 8.115547540983608 16.379187540983608 2.71819114361e-05 0.0 0.0 0.0
222 1 10.563188196721313 16.88925573770492 4.09376643207e-06 0.0 0.0 0.0
223 1 13.2217331147541 16.789433442622954 6.55964277128e-07 0.0 0.0 0.0
224 1 16.04366950819672 16.487946885245904 3.99362138181e-05 0.0 0.0 0.0
225 1 18.572652459016393 17.005740327868853 9.67607855682e-05 0.0 0.0 0.0
226 1 21.91884524590164 16.570450491803282 9.95706282059e-06 0.0 0.0 0.0
227 1 23.484545573770493 16.38484262295082 5.34471366228e-05 0.0 0.0 0.0
228 1 26.280327213114756 16.403120655737705 7.77531068827e-05 0.0 0.0 0.0
229 1 28.983658360655742 16.72561180327869 6.70980202866e-05 0.0 0.0 0.0
230 1 31.66482360655738 17.24648524590164 4.98291588045e-05 0.0 0.0 0.0
231 1 34.44540721311476 17.257139016393445 5.69463061536e-05 0.0 0.0 0.0
232 1 36.9109724590164 16.353184262295084 2.42384862563e-05 0.0 0.0 0.0
233 1 39.86979213114755 16.931971803278692 4.65452617219e-05 0.0 0.0 0.0
234 1 43.4227993442623 17.479504918032788 2.96065315309e-05 0.0 0.0 0.0
235 1 44.92286032786886 17.825777704918032 9.97893311732e-05 0.0 0.0 0.0
236 1 47.957367213114765 17.494601967213118 8.87135732702e-05 0.0 0.0 0.0
237 1 50.61752786885246 17.19155016393443 1.40463509644e-05 0.0 0.0 0.0
238 1 52.36201967213115 16.45139081967213 9.75938937e-05 0.0 0.0 0.0
239 1 55.627829508196726 16.126324590163936 7.30085848341e-05 0.0 0.0 0.0
240 1 58.84213770491804 16.91924786885246 9.49682411288e-05 0.0 0.0 0.0
241 1 60.4528262295082 15.977979672131148 8.70813930668e-05 0.0 0.0 0.0
242 1 64.90064918032787 17.321667540983608 2.46019494188e-05 0.0 0.0 0.0
243 1 66.87235409836066 17.23300393442623 3.45445449288e-05 0.0 0.0 0.0
244 1 69.39795409836066 17.360849180327868 2.70005301166e-05 0.0 0.0 0.0
245 1 71.98868852459016 17.682734426229512 8.30969745164e-05 0.0 0.0 0.0
246 1 74.76826229508198 17.406544262295082 5.6687392793e-05 0.0 0.0 0.0
247 1 76.93486557377051 16.88849836065574 9.62390389431e-05 0.0 0.0 0.0
248 1 79.38573770491804 16.589435409836067 4.23622220882e-05 0.0 0.0 0.0
249 1 0.42704654426229516 18.294644590163937 6.81082649982e-05 0.0 0.0 0.0
250 1 4.039238229508197 18.27096393442623 4.49924202692e-08 0.0 0.0 0.0
251 1 6.52384393442623 18.328726557377053 5.94399271641e-05 0.0 0.0 0.0
252 1 8.970020327868854 18.995470819672132 6.13608722305e-05 0.0 0.0 0.0
253 1 11.139855081967214 18.31650754098361 6.86603600722e-05 0.0 0.0 0.0
254 1 14.592989508196723 18.689793442622953 3.6524398734e-05 0.0 0.0 0.0
255 1 16.36020262295082 20.10639147540984 2.76392501443e-05 0.0 0.0 0.0
256 1 19.1808262295082 19.441767868852462 8.48512422268e-05 0.0 0.0 0.0
257 1 21.68128131147541 19.425862950819674 6.53255320369e-05 0.0 0.0 0.0
258 1 24.546337704918034 18.714736393442625 4.18180250438e-05 0.0 0.0 0.0
259 1 27.332020983606558 18.869140327868855 1.66201931034e-05 0.0 0.0 0.0
260 1 30.106192131147544 19.19960918032787 6.97700781116e-05 0.0 0.0 0.0
261 1 33.09874032786885 19.39980918032787 9.48215615782e-06 0.0 0.0 0.0
262 1 37.66794557377049 19.65974098360656 9.83124681695e-05 0.0 0.0 0.0
263 1 37.36070295081968 18.174171147540985 2.74050748767e-05 0.0 0.0 0.0
264 1 40.497051803278694 19.745375081967214 6.07844418016e-05 0.0 0.0 0.0
265 1 43.04219213114755 19.900536393442625 1.25465297581e-05 0.0 0.0 0.0
266 1 45.47650295081967 19.276811147540986 5.68600651096e-05 0.0 0.0 0.0
267 1 49.236476065573775 19.52078754098361 4.68253322186e-05 0.0 0.0 0.0
268 1 53.00881967213115 19.00375147540984 9.18273067134e-06 0.0 0.0 0.0
269 1 54.539731147540984 18.959571147540984 8.84783802446e-05 0.0 0.0 0.0
270 1 58.04891147540984 19.218695081967216 1.14449423924e-05 0.0 0.0 0.0
271 1 60.51796065573771 18.95628918032787 1.11385185346e-05 0.0 0.0 0.0
272 1 62.02261639344263 18.90498950819672 6.53814055561e-05 0.0 0.0 0.0
273 1 63.75145573770492 18.33337180327869 2.65226016932e-05 0.0 0.0 0.0
274 1 67.78373114754099 19.600312131147543 7.28035775744e-06 0.0 0.0 0.0
275 1 69.78674098360656 18.8642931147541 1.60503052552e-05 0.0 0.0 0.0
276 1 73.40195409836066 19.628436065573773 9.57894854813e-05 0.0 0.0 0.0
277 1 75.89473442622952 19.711141639344262 3.67179134434e-05 0.0 0.0 0.0
278 1 78.21230819672132 19.154368524590165 4.4811434502e-05 0.0 0.0 0.0
279 1 80.75204590163936 18.8458131147541 3.64992885404e-05 0.0 0.0 0.0
280 1 82.64801311475411 22.07632918032787 5.92368889025e-05 0.0 0.0 0.0
281 1 2.734206885245902 20.848368524590164 6.42783578596e-05 0.0 0.0 0.0
282 1 5.308506229508198 20.706284590163936 9.79232462985e-05 0.0 0.0 0.0
283 1 7.6237573770491815 22.166810491803282 1.54747665069e-05 0.0 0.0 0.0
284 1 10.504516721311477 21.186360655737708 7.51995344587e-05 0.0 0.0 0.0
285 1 13.26641836065574 21.182220327868855 5.39331474021e-05 0.0 0.0 0.0
286 1 15.753947540983608 21.49577442622951 7.85020929923e-05 0.0 0.0 0.0
287 1 18.37926885245902 22.624518688524592 6.90563924983e-05 0.0 0.0 0.0
288 1 20.604998032786888 22.784274754098362 9.58533436489e-05 0.0 0.0 0.0
289 1 23.030624262295085 21.168133114754102 9.16159654987e-05 0.0 0.0 0.0
290 1 25.706740327868854 21.03872262295082 8.06344209783e-05 0.0 0.0 0.0
291 1 28.68055606557377 21.265632786885245 2.38364963741e-06 0.0 0.0 0.0
292 1 31.473762622950822 21.22246229508197 6.17205278445e-05 0.0 0.0 0.0
293 1 34.19774491803279 21.231399344262297 8.3314401727e-05 0.0 0.0 0.0
294 1 36.54879475409836 21.422510819672134 5.3797215591e-06 0.0 0.0 0.0
295 1 39.11201114754099 21.87234229508197 2.44603662322e-05 0.0 0.0 0.0
296 1 42.17524786885246 22.171405245901642 3.38673140586e-05 0.0 0.0 0.0
297 1 45.5510793442623 21.613925245901644 3.92316375476e-05 0.0 0.0 0.0
298 1 47.10390426229509 21.648209180327868 8.20466028063e-05 0.0 0.0 0.0
299 1 50.80030819672132 21.827859016393443 8.59493730385e-05 0.0 0.0 0.0
300 1 52.30950819672131 21.66128655737705 3.37413177054e-05 0.0 0.0 0.0
301 1 54.94820983606557 21.573834754098364 5.03771178033e-06 0.0 0.0 0.0
302 1 57.522281967213125 21.784739016393445 5.03569646559e-05 0.0 0.0 0.0
303 1 60.29276721311476 21.25942229508197 7.39113879246e-05 0.0 0.0 0.0
304 1 63.24603278688525 21.378380983606558 3.1030035562e-06 0.0 0.0 0.0
305 1 66.14072786885247 21.476688524590163 7.73008215518e-05 0.0 0.0 0.0
306 1 69.08187540983607 21.823971147540984 9.10239917415e-05 0.0 0.0 0.0
307 1 72.0528131147541 21.848914098360655 4.65529511219e-06 0.0 0.0 0.0
308 1 74.93236065573771 22.60417049180328 6.88416956253e-05 0.0 0.0 0.0
309 1 77.77908852459018 21.823819672131147 4.22007208664e-05 0.0 0.0 0.0
310 1 80.18148852459016 21.194590819672133 8.65733163578e-05 0.0 0.0 0.0
311 1 1.6492491147540986 23.276266885245903 2.77724541637e-05 0.0 0.0 0.0
312 1 4.263113836065574 23.16831540983607 9.34838224132e-05 0.0 0.0 0.0
313 1 6.846537049180328 23.513527868852464 1.80370726236e-05 0.0 0.0 0.0
314 1 9.40132131147541 23.476163934426232 6.15144033488e-05 0.0 0.0 0.0
315 1 12.05895737704918 23.441526557377053 3.57357596523e-05 0.0 0.0 0.0
316 1 14.654387540983608 23.789112131147544 1.22594019932e-05 0.0 0.0 0.0
317 1 17.44103016393443 23.852580327868854 4.78620445941e-05 0.0 0.0 0.0
318 1 19.894477377049185 24.140939016393443 8.22543982915e-06 0.0 0.0 0.0
319 1 22.117379016393443 23.938719344262296 9.52195201194e-05 0.0 0.0 0.0
320 1 24.377695081967218 23.365536393442625 7.36089710369e-05 0.0 0.0 0.0
321 1 26.48264786885246 22.367565901639345 1.40578792304e-05 0.0 0.0 0.0
322 1 29.893116721311475 23.342966557377054 6.96118865734e-05 0.0 0.0 0.0
323 1 33.56195213114754 23.218908196721316 8.90477635901e-05 0.0 0.0 0.0
324 1 34.98844655737705 23.734681967213117 8.24938000182e-05 0.0 0.0 0.0
325 1 37.5755455737705 23.927257704918034 6.58600603867e-05 0.0 0.0 0.0
326 1 39.739927213114754 23.27263147540984 1.83728449511e-05 0.0 0.0 0.0
327 1 43.25849901639345 24.390368524590166 9.26730466407e-05 0.0 0.0 0.0
328 1 45.84312393442623 24.389964590163938 4.57497634047e-05 0.0 0.0 0.0
329 1 48.23643540983607 24.30165442622951 4.02963795675e-05 0.0 0.0 0.0
330 1 50.92855737704918 24.125740983606562 6.79089621887e-05 0.0 0.0 0.0
331 1 53.85506229508197 23.894942950819672 3.15062922873e-05 0.0 0.0 0.0
332 1 56.77449836065574 24.61586491803279 6.47565369674e-05 0.0 0.0 0.0
333 1 59.68636065573771 23.50782229508197 1.87694160095e-05 0.0 0.0 0.0
334 1 62.41695737704919 24.519324590163937 9.91463552929e-05 0.0 0.0 0.0
335 1 65.18643278688526 23.56821049180328 1.04282073284e-05 0.0 0.0 0.0
336 1 67.9680262295082 24.676556065573774 3.20644028126e-05 0.0 0.0 0.0
337 1 70.75820327868854 23.956189508196726 3.57996953652e-05 0.0 0.0 0.0
338 1 74.99295081967215 24.120085901639346 8.15260033498e-06 0.0 0.0 0.0
339 1 76.52790163934426 24.148916721311476 7.7005813335e-05 0.0 0.0 0.0
340 1 80.19714098360656 23.595829508196722 5.21632631583e-05 0.0 0.0 0.0
341 1 81.74168524590165 23.329687213114756 1.68889687358e-05 0.0 0.0 0.0
342 1 1.0087706885245902 25.502248524590165 1.23718783743e-05 0.0 0.0 0.0
343 1 2.5448474754098362 25.479224262295084 7.2505714755e-05 0.0 0.0 0.0
344 1 4.941259147540984 25.665084590163936 7.81265482921e-05 0.0 0.0 0.0
345 1 8.686559344262296 25.751678032786888 5.80107230083e-05 0.0 0.0 0.0
346 1 10.225044590163936 25.655945573770495 3.27390472424e-05 0.0 0.0 0.0
347 1 12.822342950819673 25.943092459016395 7.4162383452e-05 0.0 0.0 0.0
348 1 16.529198688524595 26.026000000000003 4.7670884839e-05 0.0 0.0 0.0
349 1 18.062180327868855 26.32213442622951 7.63087139066e-05 0.0 0.0 0.0
350 1 20.740063606557378 26.564848524590168 4.74193327154e-07 0.0 0.0 0.0
351 1 23.306006557377053 26.115622950819674 6.19811678116e-05 0.0 0.0 0.0
352 1 25.900679344262297 25.288314754098366 7.8490995727e-05 0.0 0.0 0.0
353 1 28.62097573770492 25.63186098360656 3.82501159785e-05 0.0 0.0 0.0
354 1 31.21948590163935 25.871141639344266 4.40075197317e-05 0.0 0.0 0.0
355 1 33.48929442622951 27.023819016393446 5.05324817277e-05 0.0 0.0 0.0
356 1 36.315371147540986 26.13228524590164 3.23694390495e-05 0.0 0.0 0.0
357 1 39.002292459016395 26.129407213114757 7.48991392019e-05 0.0 0.0 0.0
358 1 41.632864918032794 26.342028196721316 1.16761070913e-05 0.0 0.0 0.0
359 1 44.42728327868853 26.689361311475412 2.69847992023e-05 0.0 0.0 0.0
360 1 47.20438295081968 26.889005901639347 2.87799315767e-05 0.0 0.0 0.0
361 1 49.865553442622954 26.44927278688525 6.4504672224e-05 0.0 0.0 0.0
362 1 52.738688524590174 26.151017704918036 5.46578136192e-05 0.0 0.0 0.0
363 1 56.28523278688525 26.077501639344263 2.38420323947e-05 0.0 0.0 0.0
364 1 59.04965901639345 25.646301639344266 9.90910009485e-06 0.0 0.0 0.0
365 1 61.861547540983615 25.968893770491807 7.14305575705e-05 0.0 0.0 0.0
366 1 64.30535081967214 26.172375737704918 6.51158395506e-05 0.0 0.0 0.0
367 1 68.11142295081967 26.20711409836066 5.84368793499e-05 0.0 0.0 0.0
368 1 69.63324590163936 26.409030819672136 9.58249091108e-05 0.0 0.0 0.0
369 1 71.79782950819673 26.268764590163936 3.53970535795e-05 0.0 0.0 0.0
370 1 74.24971147540984 26.22362491803279 8.39566909592e-05 0.0 0.0 0.0
371 1 77.54884590163935 26.44149704918033 9.20302207888e-06 0.0 0.0 0.0
372 1 79.87702295081968 26.398579016393445 5.99941460813e-05 0.0 0.0 0.0
373 1 0.5022833704918034 28.11585573770492 2.20326346308e-05 0.0 0.0 0.0
374 1 3.196121049180328 28.03855278688525 8.22805148519e-05 0.0 0.0 0.0
375 1 5.862502295081968 28.31903475409836 6.67450799156e-05 0.0 0.0 0.0
376 1 8.257278032786886 29.486001311475412 4.81989210003e-05 0.0 0.0 0.0
377 1 10.806154754098362 28.06122360655738 2.34931035795e-05 0.0 0.0 0.0
378 1 13.509586885245904 28.377756721311478 9.27198301021e-05 0.0 0.0 0.0
379 1 16.67592786885246 29.893369180327873 6.59591307937e-05 0.0 0.0 0.0
380 1 19.474032131147542 28.76013114754099 4.80434819645e-05 0.0 0.0 0.0
381 1 22.426035409836068 28.656673442622953 7.91289128589e-05 0.0 0.0 0.0
382 1 24.970721311475412 27.870566557377053 7.566249481e-05 0.0 0.0 0.0
383 1 27.27966098360656 27.629821639344268 7.86017328546e-05 0.0 0.0 0.0
384 1 29.25792983606558 27.05724459016394 7.5165506175e-05 0.0 0.0 0.0
385 1 32.90990098360656 29.160682622950823 7.46168100015e-05 0.0 0.0 0.0
386 1 35.607678032786886 28.29267803278689 3.97138013682e-05 0.0 0.0 0.0
387 1 37.58832 29.750426885245904 6.2635666906e-05 0.0 0.0 0.0
388 1 40.30639475409836 28.55205442622951 9.88329834929e-05 0.0 0.0 0.0
389 1 43.10010622950821 28.636779672131148 1.75538653459e-05 0.0 0.0 0.0
390 1 45.201373114754105 30.06287016393443 2.62798140734e-06 0.0 0.0 0.0
391 1 49.82056524590164 28.56412196721312 2.04521386499e-05 0.0 0.0 0.0
392 1 51.38146885245902 28.33761573770492 8.89316271329e-05 0.0 0.0 0.0
393 1 53.81769836065575 27.284912131147543 4.18952847926e-05 0.0 0.0 0.0
394 1 57.949442622950826 27.929641967213115 3.86288258981e-05 0.0 0.0 0.0
395 1 59.98224262295083 29.059598032786887 2.46256783669e-05 0.0 0.0 0.0
396 1 62.806249180327875 28.562304262295083 6.38068492543e-06 0.0 0.0 0.0
397 1 65.3156918032787 28.588408524590168 3.03625315129e-05 0.0 0.0 0.0
398 1 67.83068852459017 28.74038885245902 6.30430810435e-05 0.0 0.0 0.0
399 1 71.60596065573772 28.814106885245902 5.27102784913e-05 0.0 0.0 0.0
400 1 73.86799344262296 28.391995409836067 7.63126708854e-05 0.0 0.0 0.0
401 1 75.09342950819672 27.488242622950825 1.93547549214e-05 0.0 0.0 0.0
402 1 77.60590163934427 30.145676721311478 4.11104724232e-05 0.0 0.0 0.0
403 1 81.7356262295082 28.552205901639347 2.15415921659e-05 0.0 0.0 0.0
404 1 82.48492459016394 31.250639344262297 4.24101868964e-05 0.0 0.0 0.0
405 1 2.24849593442623 30.28205508196722 2.98955076327e-06 0.0 0.0 0.0
406 1 5.997365901639345 30.964754754098365 7.51639192057e-05 0.0 0.0 0.0
407 1 7.536961967213116 30.843877377049182 8.19032524929e-05 0.0 0.0 0.0
408 1 9.80409442622951 30.751073442622953 1.80321820905e-05 0.0 0.0 0.0
409 1 12.312880655737706 30.37667672131148 8.47258429565e-05 0.0 0.0 0.0
410 1 14.38021704918033 29.62864065573771 1.28182248381e-05 0.0 0.0 0.0
411 1 18.368615081967214 30.99994754098361 2.27889789338e-05 0.0 0.0 0.0
412 1 20.424186885245902 29.98541573770492 6.08700686086e-05 0.0 0.0 0.0