# input file

2232 atoms
1 atom types

0.0 82.68810555352132 xlo xhi
0.0 83.16 ylo yhi
-10.0 10.0 zlo zhi
0.0 0.0 0.0 xy xz yz

Masses

1 12.0100 #C

Atoms

1 1 1.7451431475409838 0.12219420327868853 3.8148631157176065e-05
2 1 3.833978950819673 1.628905967213115 8.445858957268529e-05
3 1 7.2580452459016405 0.7187457704918033 2.3153995214210745e-05
4 1 9.933252459016394 0.5621100983606557 4.7618743391148034e-05
5 1 12.439918032786887 0.9214249180327869 6.831953771673028e-05
6 1 14.978898360655739 0.9917801967213116 3.973110581942239e-05
7 1 17.514394754098365 1.077464786885246 2.7352138836899722e-05
8 1 20.159256393442625 1.1846336393442625 9.167056545019579e-05
9 1 22.836887213114757 0.9486601967213116 3.3445313763341835e-05
10 1 25.480284590163937 0.9538305573770494 5.855640519313463e-05
11 1 28.081420327868855 0.9562188196721313 9.268872810548543e-05
12 1 30.753699016393444 1.003620524590164 1.8951153493950625e-05
13 1 33.51575213114755 1.1136371147540984 7.247794419727056e-05
14 1 37.24235016393443 0.8185832131147542 1.2360737639742148e-05
15 1 38.73923016393443 1.1546869508196722 3.992228877938875e-05
16 1 42.03669836065574 1.1046647213114755 8.675051746174436e-05
17 1 44.68741704918033 0.8519532459016395 6.825610571226772e-05
18 1 47.385143606557385 0.9015462950819674 9.976485130681565e-05
19 1 49.8630793442623 0.9900331803278689 9.041022566654686e-05
20 1 52.52662295081968 0.9801822295081969 7.215851400107877e-05
21 1 55.39657704918033 0.9330834754098362 9.245262225364644e-05
22 1 59.004216393442626 0.3698958819672131 7.1801528308667e-05
23 1 60.553304918032794 0.29544622295081974 5.588156624506992e-05
24 1 64.14276721311477 0.11162677377049181 5.2148837887934595e-05
25 1 65.70245901639345 0.16872088524590165 4.420064955132257e-05
26 1 68.4532524590164 0.3736221770491804 1.6881129137205642e-05
27 1 71.19192786885247 0.25315378360655744 2.7298992210836637e-05
28 1 73.99977704918034 0.44429555409836075 5.5621499031042646e-05
29 1 76.51628852459017 0.9703363278688525 4.960185890019433e-05
30 1 78.94090491803279 0.4433968000000001 9.394954085171504e-06
31 1 81.74269508196723 0.19131394754098363 8.249730713898062e-05
32 1 0.5390555409836065 2.49179068852459 4.597924297017995e-05
33 1 3.1533847868852463 2.989074360655738 9.147335060502121e-05
34 1 5.111739672131148 2.4597687868852463 8.127831624046734e-07
35 1 8.688528524590165 2.9115997377049183 2.9933582645792435e-05
36 1 11.140208524590166 3.13615193442623 3.920490260351518e-05
37 1 13.637179672131149 3.3472884590163936 2.3944110618261627e-05
38 1 16.210797377049182 3.4243238032786887 1.0842363862753257e-05
39 1 18.82107213114754 3.4363004590163935 8.508217701878935e-05
40 1 21.499409836065574 3.346086754098361 5.5023585101505825e-05
41 1 24.201731147540986 3.301659016393443 3.253957463184898e-05
42 1 26.77267278688525 3.3458696393442624 3.353938705599073e-05
43 1 29.261817704918037 3.294625508196722 3.193692261808194e-05
44 1 32.065072131147545 3.273691606557377 1.9945468144008605e-05
45 1 34.80551475409837 3.582868065573771 3.4928389241049516e-05
46 1 37.26320327868853 3.098379016393443 5.8859293501355496e-05
47 1 39.707057049180335 2.345975409836066 9.071635662384771e-05
48 1 43.48116786885247 3.2755295081967217 2.783175755263493e-05
49 1 46.15965704918033 3.136560918032787 8.463923655088249e-05
50 1 48.87248065573771 3.402031672131148 2.1575572433748324e-05
51 1 51.34208524590164 3.281285573770492 7.070959309317347e-05
52 1 53.90605901639345 3.0277712786885247 7.441175014542367e-06
53 1 56.471547540983615 3.252262885245902 4.945141331621004e-05
54 1 58.824970491803285 3.1314006557377057 4.122929571363766e-05
55 1 61.44095081967214 2.895952327868853 4.611154678624329e-05
56 1 64.03168524590164 2.711611803278689 2.8796325878177423e-05
57 1 66.90315409836066 2.549507868852459 3.076213216543685e-05
58 1 69.64637377049182 2.5886137704918037 4.980376666186113e-05
59 1 72.15783606557378 2.4983192786885247 5.150254186117525e-05
60 1 74.89247213114754 3.017213442622951 9.229633533743466e-05
61 1 78.06436721311476 3.095723147540984 7.91540209551318e-05
62 1 80.63389508196722 2.4996472131147542 7.918558954442171e-05
63 1 1.9557444590163937 5.020586819672132 6.0973602060429716e-05
64 1 4.655621967213115 5.348647213114755 1.7738338387036035e-05
65 1 7.189578360655739 5.05968262295082 8.461558645371471e-05
66 1 9.737142295081968 5.45856786885246 5.923584046536025e-05
67 1 12.218057049180329 5.663514098360656 8.065019685539297e-05
68 1 14.83792524590164 5.752783606557378 4.411318636463224e-05
69 1 17.457288524590165 5.770960655737706 1.0033688630607151e-05
70 1 20.059484590163937 5.674268852459017 3.378304287459011e-06
71 1 22.733328524590167 5.58792786885246 5.042152866932947e-05
72 1 25.51138754098361 5.733849180327869 7.275330551589943e-05
73 1 27.944032131147544 5.803729836065575 7.067588072405355e-05
74 1 30.666348196721316 5.436300983606558 1.473175925914193e-05
75 1 33.484901639344265 5.617667540983607 8.87945840293543e-05
76 1 37.30253639344263 5.2748281967213115 5.6682484286561886e-05
77 1 38.83238754098361 5.046287147540984 8.512451903871372e-05
78 1 41.63443016393443 5.279776393442623 7.91548789580078e-05
79 1 45.46206229508197 5.374448524590164 9.928838842963229e-05
80 1 47.00776786885246 5.450287213114755 3.702070102646534e-05
81 1 50.81697049180329 5.706886557377049 5.093357915270859e-05
82 1 53.28854426229509 5.385657704918033 7.149886754304302e-05
83 1 54.823495081967216 5.436351475409837 8.661126256085765e-05
84 1 57.48037377049181 5.677550819672132 6.527878260027914e-05
85 1 60.18925901639345 5.367531147540984 1.236708439424772e-06
86 1 62.81281311475411 5.163493770491804 9.961875360373454e-05
87 1 65.61763278688525 4.787294491803279 3.317421498428347e-05
88 1 68.3684262295082 4.849172196721312 3.529646214657969e-05
89 1 71.00611803278689 4.998330032786886 9.861221589498205e-05
90 1 73.49586885245903 4.877947475409836 9.785549738699207e-06
91 1 75.73265573770493 4.29025318032787 5.0206418173069726e-05
92 1 79.35140327868854 5.068468196721311 1.409989863423985e-05
93 1 81.90729836065574 4.863870360655738 4.975497356509856e-05
94 1 0.45778090491803286 7.153476721311476 9.225414844405031e-05
95 1 3.2072241967213118 7.462234098360656 6.84950620201846e-05
96 1 6.626039344262296 7.50984786885246 2.1542199333737767e-05
97 1 8.170381639344264 7.616335081967215 5.9142320000814655e-05
98 1 10.690831475409837 7.992650491803279 6.318603358265497e-05
99 1 13.432839344262296 8.045919344262296 4.190452311989238e-05
100 1 16.09602950819672 8.102672131147541 1.0537732850174132e-05
101 1 18.708273442622954 8.076315409836067 9.374961830827147e-05
102 1 21.193883934426232 7.90368393442623 4.0302475966135376e-05
103 1 23.786335081967213 7.812243278688526 8.790519648711005e-05
104 1 26.347683278688525 8.307921311475411 3.9612010834244065e-05
105 1 30.212073442622952 7.618102295081968 5.130902098298589e-05
106 1 31.749346885245906 7.611639344262295 8.540022929773877e-05
107 1 34.48761836065574 7.908935081967214 2.7256351739664343e-06
108 1 37.10279081967214 7.771849836065575 5.872905060545508e-06
109 1 39.830105573770496 7.350344262295082 9.485533869054807e-05
110 1 42.52056131147541 7.760236721311476 8.773863294605179e-06
111 1 44.95381180327869 7.904340327868853 3.356045167439521e-05
112 1 47.61629508196722 8.005222950819673 4.526157051133102e-05
113 1 50.276607213114765 8.089847213114753 8.62939570590367e-05
114 1 52.958832786885246 7.85016262295082 3.180801740021766e-06
115 1 55.84645901639345 7.854656393442624 8.529875613458684e-05
116 1 58.817901639344264 7.784674754098361 5.754957206777303e-05
117 1 61.59040655737705 7.634007213114756 8.225706333123076e-05
118 1 64.33564590163935 7.1171731147541 8.421045477484831e-05
119 1 67.09603278688525 7.066277377049181 1.3422855471666885e-05
120 1 69.73422950819673 7.289754098360657 4.278079195230793e-05
121 1 73.27420983606558 7.054866229508198 2.9459049761925893e-05
122 1 74.83036721311477 7.067539672131149 6.577421421489955e-05
123 1 77.56550819672132 7.22881049180328 5.819806131786414e-05
124 1 80.41476065573771 7.316110819672131 7.205813523455189e-05
125 1 1.2601390819672131 9.410813770491805 5.2146213332499925e-05
126 1 3.6727081311475414 9.967485901639344 7.162154636793321e-05
127 1 6.231748852459017 10.327441967213117 8.132750408637315e-05
128 1 9.40788524590164 10.272961311475411 4.113178171494283e-05
129 1 12.14873180327869 10.263721311475411 9.878683885345043e-05
130 1 14.792785573770493 10.387931147540984 9.03720351978734e-05
131 1 17.456985573770496 10.440998032786887 3.36392537617695e-05
132 1 20.122245901639346 10.42160918032787 1.3672857376598514e-06
133 1 22.61073442622951 10.181975081967215 3.991874830865705e-06
134 1 24.82348721311476 11.539295737704919 8.50158387178564e-05
135 1 26.850228196721314 9.790360655737706 8.582659589375811e-05
136 1 30.451000655737708 10.270941639344263 6.24601918037495e-05
137 1 33.28061180327869 9.94112918032787 3.055767019783349e-05
138 1 35.98995147540984 10.136481967213117 9.485545100038713e-05
139 1 38.47207803278689 9.78521049180328 9.993159234858496e-06
140 1 41.06942688524591 9.775415081967214 1.5069502315535134e-05
141 1 43.71236983606558 10.289320655737706 4.303618076951524e-05
142 1 46.374802622950824 10.27533442622951 2.0678961243699978e-05
143 1 48.90782491803279 10.321635409836066 4.5149449024118e-06
144 1 51.70310163934427 10.268164590163936 1.5635801238947e-05
145 1 54.655862295081974 10.070337704918035 6.182730051400736e-05
146 1 57.33596721311476 9.842417704918033 4.893149575925151e-05
147 1 60.03121967213115 9.979957377049182 4.583029042408734e-05
148 1 64.03471475409837 9.261812459016394 3.8963156316900063e-05
149 1 65.57521967213115 9.283826885245903 6.091269685006857e-05
150 1 68.15434098360656 9.50912131147541 4.6489927237863e-05
151 1 70.72740327868853 9.774556721311475 5.6566524194946104e-05
152 1 73.29844590163935 9.695688524590166 4.660481894466182e-05
153 1 76.0573180327869 9.462264918032789 7.092680279117103e-06
154 1 78.83487213114755 9.413085901639345 1.0963379453077128e-06
155 1 82.4208 9.343356721311476 1.045654074648591e-05
156 1 82.04665573770492 12.050676721311476 6.661279510496415e-05
157 1 2.108961836065574 12.093039344262298 5.856820921611839e-05
158 1 4.833393508196722 12.462588852459017 9.516688892241729e-05
159 1 7.0516347540983615 11.652801311475411 2.6934775642004184e-05
160 1 10.871036721311476 12.49869049180328 1.7404530355113093e-05
161 1 13.456318032786887 12.653700327868854 4.28217234668593e-05
162 1 16.116024262295085 12.731457704918034 8.109797495875751e-05
163 1 18.87504786885246 12.744282622950822 5.3189752188240095e-05
164 1 21.557273442622954 12.746453770491804 8.49394155763504e-05
165 1 24.226421639344263 12.954429508196723 1.0093188168323386e-05
166 1 26.698954754098363 12.773113442622952 9.757280264813582e-05
167 1 29.227584262295085 12.697678688524592 2.4985034438863354e-05
168 1 31.98196262295082 12.14752 6.315915564521389e-05
169 1 34.78688327868853 12.250876721311478 9.260895851826399e-05
170 1 37.39084655737705 12.377308196721312 8.086274627023876e-05
171 1 39.93517901639345 12.100108196721314 1.109750459295561e-05
172 1 42.380497049180335 13.28717049180328 1.294948062894341e-05
173 1 45.25413704918033 12.582405901639344 3.772254524460319e-05
174 1 47.992509508196726 12.679198688524592 8.761895402035758e-07
175 1 50.50089180327869 12.408764590163937 9.924643189101082e-05
176 1 52.54782950819673 11.556715409836068 1.920775794984241e-05
177 1 56.08881967213115 12.220581639344264 5.548911821192967e-05
178 1 58.636636065573775 12.161506229508197 2.307754920111137e-05
179 1 60.69619672131148 11.373127213114754 9.339130076791902e-05
180 1 64.33059672131148 11.995287213114755 6.340764323209236e-06
181 1 66.9021442622951 11.785443278688525 2.9227793204847108e-05
182 1 69.40704262295083 12.006294426229509 5.9574768443771156e-05
183 1 72.00989508196722 12.098139016393443 3.986691370382196e-05
184 1 74.65768524590165 11.857242622950821 8.455040223807043e-05
185 1 78.03255737704919 11.552979016393444 4.0779573491035995e-05
186 1 79.54377704918033 11.800186885245903 7.463517894937587e-05
187 1 0.7929182295081968 14.305792131147541 2.9343919618887883e-05
188 1 3.4547602622950824 14.48301836065574 5.0205627120438605e-05
189 1 6.231193442622951 14.56653180327869 5.223323288562321e-06
190 1 9.414196721311477 14.491702950819674 7.013886654534279e-05
191 1 12.115356721311478 14.954460327868853 3.258114774394918e-05
192 1 14.655548852459019 15.015201967213116 9.527733623035167e-05
193 1 17.5306531147541 14.965215081967214 8.23695428696223e-05
194 1 20.265844590163933 15.059533770491806 3.825075553781215e-05
195 1 22.840876065573774 15.17334229508197 9.595454317812434e-05
196 1 25.495331147540988 15.30810491803279 3.4084301562328644e-05
197 1 28.062283934426233 15.14905573770492 8.711364147103743e-05
198 1 31.554448524590168 14.274992131147542 6.7225410877048475e-06
199 1 33.07298950819673 14.272720000000001 1.5796277387083215e-05
200 1 35.66210819672131 14.616872131147543 5.29720549628231e-06
201 1 38.856169180327875 14.633382950819673 2.984936895393107e-05
202 1 41.60448852459017 14.604047213114756 5.1447438539057347e-05
203 1 44.071265573770496 14.847670163934428 1.6888166052272737e-05
204 1 46.81897901639344 14.865847213114755 1.6940745757599043e-05
205 1 50.3928393442623 14.591272786885247 3.6193275977093755e-05
206 1 51.962124590163945 14.502912131147541 3.315715016603833e-05
207 1 54.617993442622954 14.494681967213117 1.3870849709624312e-05
208 1 57.414229508196726 14.567794098360658 5.6873676777893204e-05
209 1 60.23116721311476 14.31286098360656 1.517155262394403e-05
210 1 62.897639344262295 14.262419672131148 8.426404420404263e-05
211 1 65.59592131147541 14.239193442622952 8.734982957715044e-05
212 1 68.0639606557377 14.324777049180328 5.3386405425829146e-05
213 1 70.64661639344263 14.411168524590165 5.573727166325403e-05
214 1 73.16009836065575 14.281707540983607 8.883795956789387e-06
215 1 75.68973770491804 14.382287213114756 9.540807413466487e-05
216 1 78.0971868852459 14.274638688524592 6.844822333365195e-05
217 1 80.76264918032787 14.33320918032787 7.539253981491506e-05
218 1 82.23953442622953 16.570299016393445 2.6781961473922068e-05
219 1 2.204088393442623 16.690015081967218 5.7249648869719355e-05
220 1 4.823542557377049 16.719552786885245 8.25591843134422e-05
221 1 7.070973114754099 15.877198032786886 2.660533239351619e-05
222 1 10.418226229508198 18.18709704918033 5.23703271965944e-06
223 1 13.2956531147541 17.442494426229512 1.6188205044120886e-07
224 1 16.129404590163936 17.071127213114757 4.200160511698162e-05
225 1 18.971184262295083 17.26355147540984 3.188135552954368e-05
226 1 21.52051540983607 17.528280000000002 5.165533534414534e-05
227 1 24.140888524590167 17.575085901639348 8.472245452426503e-05
228 1 26.916372459016397 17.616741639344266 4.295706228161317e-05
229 1 30.019800655737708 17.32474754098361 6.939600448766847e-05
230 1 31.49880655737705 16.98635147540984 7.641023244448103e-05
231 1 34.05157114754099 16.735760655737707 2.713427449151571e-05
232 1 36.46078754098361 15.91824786885246 6.528562163125025e-05
233 1 40.0658518032787 16.810740983606557 8.738320067345129e-05
234 1 42.407005245901644 17.085719344262298 9.586258298741893e-05
235 1 45.02096590163935 16.981049836065576 5.6751896915054284e-05
236 1 47.48920721311475 17.300612459016396 7.77000546680433e-05
237 1 50.12174885245902 17.304752786885246 9.853303602367613e-05
238 1 53.51878688524591 16.934647868852462 2.869869894859165e-05
239 1 56.222118032786895 16.75747213114754 3.415509314316519e-05
240 1 58.95069508196722 16.609834098360658 1.7755309747381466e-05
241 1 62.43917377049181 16.360101639344265 4.779079980992007e-06
242 1 63.98018360655738 16.471335081967215 7.822011144928748e-05
243 1 66.59111475409836 16.726621639344266 8.195430573188834e-07
244 1 69.27677377049181 16.743485901639346 1.341972126157287e-05
245 1 72.03413114754099 16.774992786885246 7.038736360903875e-05
246 1 74.53902950819673 16.697740327868853 5.856009398273111e-05
247 1 77.05958032786886 16.78226360655738 7.198036237422702e-05
248 1 79.43471475409837 16.61094491803279 4.398407990784748e-06
249 1 0.9511040000000001 18.93740524590164 9.583043938880676e-06
250 1 3.5125026885245902 19.059797377049183 1.0758694496880385e-06
251 1 6.429424262295083 18.768611147540984 6.529909993213041e-05
252 1 9.358554754098362 19.359213770491802 3.55992942127831e-05
253 1 12.249765901639345 19.884681967213115 6.014615774019048e-05
254 1 15.792068852459018 19.053132459016396 7.990876342281294e-05
255 1 17.31777967213115 19.252474098360658 3.500331057645253e-05
256 1 19.929417704918034 19.800966557377052 6.186699674932357e-05
257 1 22.96609573770492 19.92775147540984 5.50879689102106e-05
258 1 25.73309704918033 19.788899016393447 2.618746734876192e-05
259 1 28.158319344262296 20.20151803278689 5.690134330114141e-05
260 1 30.494120655737706 20.000661639344266 6.734995190990663e-05
261 1 32.98912262295082 19.22228 7.927968376701786e-05
262 1 35.6341862295082 18.65253049180328 2.146680214596478e-05
263 1 38.37518426229508 18.82657573770492 1.5874230044916182e-05
264 1 40.981318688524595 19.438435409836067 1.9867152295112713e-05
265 1 43.72140786885246 19.324121967213117 9.335685733370048e-05
266 1 46.19192131147541 20.463318032786887 4.162863486438664e-05
267 1 48.98144196721312 19.570219016393445 8.699637498696148e-05
268 1 51.23049836065574 18.37659278688525 6.204584070080515e-05
269 1 54.894688524590165 19.12922360655738 6.221887915071483e-05
270 1 58.22714754098361 18.825818360655738 3.2915825511852126e-05
271 1 59.75149508196722 18.9882 7.242649261769554e-05
272 1 62.30940983606558 19.117257049180328 9.012659850825897e-05
273 1 65.0960524590164 18.97123475409836 7.443967824300174e-05
274 1 67.87259672131148 19.04788131147541 2.0456297287757333e-06
275 1 70.7168 18.98279737704918 3.040845294144733e-05
276 1 74.12853114754098 18.95038163934426 7.726574304241736e-05
277 1 75.65994754098361 19.118620327868857 5.156713118390395e-05
278 1 78.06941639344262 19.193802622950823 2.8683795930711865e-05
279 1 80.812131147541 18.72650098360656 1.1299777972778102e-05
280 1 81.75683278688525 20.86816131147541 4.6496700052271804e-05
281 1 1.7405029508196723 21.388580327868855 2.472054131838245e-05
282 1 4.930140852459016 20.987826885245905 3.247656321381755e-05
283 1 7.663645901639345 21.08694229508197 2.2104103103622964e-05
284 1 9.866401311475412 20.827313442622952 1.7996395833876502e-05
285 1 14.09948262295082 21.893548852459016 7.757753423765346e-06
286 1 15.61100524590164 21.91662360655738 1.4029889877293856e-05
287 1 18.596888524590163 21.82796 1.6664695233427318e-05
288 1 20.799542950819674 21.087901639344263 5.6954715597077055e-05
289 1 24.528766557377054 21.99786491803279 4.4892522636673525e-05
290 1 27.098597377049185 22.39240786885246 6.165241607997368e-05
291 1 29.719879344262296 22.585084590163937 9.370659269407612e-06
292 1 32.41987803278689 21.868403934426233 1.6719756458150216e-05
293 1 34.876304262295086 21.108754754098364 8.277286447691324e-05
294 1 37.4798131147541 21.89385180327869 8.398934434011493e-05
295 1 39.82551081967214 22.53095737704918 1.4454727293551495e-05
296 1 42.54494885245902 21.626952131147544 1.4029813313269003e-05
297 1 45.42752590163935 21.78226491803279 6.41511414150359e-05
298 1 48.10793377049181 21.900971147540986 5.296757179591394e-05
299 1 50.82555409836066 21.233166557377054 5.692270967145428e-05
300 1 53.33095737704919 21.287798688524592 6.616141973137263e-05
301 1 55.67276721311476 21.717382950819673 5.461476249612532e-05
302 1 58.2544131147541 21.5254131147541 1.0695964792537494e-05
303 1 61.01530491803279 21.44028393442623 8.690418002679326e-05
304 1 63.698944262295086 21.284213770491803 4.6787335480130036e-05
305 1 66.2967475409836 21.252201967213118 2.0843727284580416e-05
306 1 69.94074098360657 21.026150163934428 1.3555359768753107e-05
307 1 71.4327737704918 21.372321967213118 2.4041443657779794e-05
308 1 74.03613114754098 21.73227803278689 6.225777615973801e-05
309 1 76.69200000000001 21.718948196721314 5.261773518849336e-05
310 1 80.22693114754098 20.959854426229512 8.91736677585805e-05
311 1 0.4377497967213115 24.366940327868853 1.323614193127759e-05
312 1 2.5956371803278695 22.685361311475415 6.282512220550727e-05
313 1 6.062752786885246 24.402335081967216 2.990474701200845e-05
314 1 8.922305573770492 23.588356721311477 6.607275656146444e-05
315 1 11.625838688524592 24.13533442622951 2.4388165158650188e-05
316 1 14.17304918032787 24.4390931147541 4.446956162309435e-05
317 1 16.32354557377049 23.27874098360656 8.364897588265413e-05
318 1 20.158145573770494 23.9462931147541 8.494673837585799e-06
319 1 23.65480393442623 24.13684918032787 4.407097647341187e-05
320 1 25.184756065573772 24.41288786885246 8.938708788368049e-05
321 1 27.8988924590164 24.789657704918035 9.6179709760909e-05
322 1 31.890521967213118 24.28585049180328 9.88901909491273e-05
323 1 34.44833573770492 23.76962229508197 2.1939669472213365e-05
324 1 36.92046491803279 23.324486557377053 8.254617925859591e-05
325 1 39.262729180327874 23.95634098360656 1.1914455521164591e-05
326 1 41.337891803278694 24.128164590163934 7.690508718848107e-05
327 1 43.959981639344264 23.764573114754103 7.113968905762854e-05
328 1 46.5869186885246 24.076612459016395 5.2254487192115045e-05
329 1 50.23429508196722 23.545691147540985 3.0708400337501354e-05
330 1 51.75308852459017 23.677222295081968 7.0953117476893485e-06
331 1 54.407442622950825 24.039601967213116 1.3158232886819355e-05
332 1 57.075934426229516 23.95447278688525 3.5618925945077276e-05
333 1 59.708072131147546 23.70908262295082 5.589209957671444e-05
334 1 62.41948196721312 23.671466229508198 5.894573380881774e-05
335 1 64.93649836065575 23.661317377049183 4.361163016650379e-05
336 1 67.34849180327869 23.650310163934428 6.412054200327138e-05
337 1 69.8579344262295 23.583004590163938 9.547282794060148e-05
338 1 72.55874098360657 23.871413770491806 5.8109360849357755e-05
339 1 75.23379672131149 24.140939016393443 4.0249952526731326e-05
340 1 78.16434098360656 24.180575081967213 2.5512245033145632e-05
341 1 80.63440000000001 23.23940786885246 4.152905406911883e-05
342 1 82.61670819672132 25.817317377049186 2.6843176615721377e-05
343 1 2.3540288524590167 25.620146885245905 1.980253538355421e-05
344 1 5.205401967213115 25.68836131147541 2.50578144793859e-05
345 1 7.702019672131148 25.938901639344266 7.363085060785679e-05
346 1 10.49169180327869 26.058617704918035 2.0390659726626715e-05
347 1 13.084142950819674 26.650432131147543 4.1358469255193824e-05
348 1 16.545558032786886 25.991564590163936 9.837577708643832e-05
349 1 18.09000131147541 25.858064262295084 4.074848207365558e-05
350 1 20.623780983606558 26.447152131147543 9.298970268491488e-05
351 1 23.182301639344264 26.89041967213115 9.230550681306785e-05
352 1 25.925420327868853 26.847451147540987 3.7636564180408083e-05
353 1 28.72993704918033 26.943789508196723 7.223741409920873e-05
354 1 32.12485442622951 26.29406098360656 5.04532586946176e-05
355 1 33.34917967213115 24.837877377049182 5.746864199559083e-05
356 1 36.82735803278688 25.649179672131147 5.6734596694989774e-05
357 1 39.833135081967214 26.647655081967216 5.874926052354272e-05
358 1 42.47996590163935 26.175556721311477 9.586995466625813e-05
359 1 44.98117836065574 26.173082622950822 2.4166097792221287e-05
360 1 47.46098229508197 26.43452918032787 9.44623225155648e-05
361 1 49.96461836065574 26.138394754098364 6.150434282265933e-05
362 1 52.18782295081967 25.172133114754104 7.934743318781189e-05
363 1 55.686904918032795 26.271491147540985 6.917811473253323e-05
364 1 58.29430163934427 26.1330931147541 5.6153917884984475e-06
365 1 61.056708196721324 25.951524590163938 3.546385289394045e-05
366 1 63.77468196721312 26.1046662295082 9.441141439481741e-05
367 1 66.87942295081967 25.95167606557377 4.952022100281577e-05
368 1 68.4068 25.963945573770495 6.92773391348975e-05
369 1 70.99097049180328 25.955715409836067 7.811452756652248e-05
370 1 73.6544131147541 26.281084590163935 2.4756891967454966e-05
371 1 75.98713442622952 25.51749704918033 8.978204069665708e-05
372 1 80.0189049180328 25.900679344262297 8.21710352539935e-06
373 1 0.8423244590163935 28.16200524590164 5.582307298416792e-05
374 1 3.537814229508197 27.77443016393443 7.456425559253088e-05
375 1 6.404834754098362 28.216283934426233 6.138677292960973e-05
376 1 9.170270819672131 28.122470163934427 4.176975763684667e-05
377 1 11.665777704918034 28.67146754098361 3.330573252937733e-05
378 1 14.102360655737707 29.04142098360656 3.08804167739617e-05
379 1 16.644168524590167 28.78456918032787 1.9417531482764707e-05
380 1 19.303167868852462 28.497977704918036 8.352416725019478e-05
381 1 21.675020327868854 30.0247993442623 4.943557701426225e-05
382 1 24.51841573770492 29.230664262295086 2.1946925237605776e-05
383 1 27.507126557377052 29.05793180327869 8.301604431797944e-05
384 1 30.22494885245902 29.167549508196725 1.674997188626345e-05
385 1 32.643657704918034 28.811733770491806 1.3982244217344143e-05
386 1 34.7431068852459 27.560900327868854 9.269066932934818e-05
387 1 37.26284983606558 27.164741639344264 6.592977348002586e-05
388 1 41.910014426229516 28.495200655737708 4.593155330569724e-05
389 1 43.43163540983607 28.518376393442626 2.7125618610455038e-05
390 1 45.90265377049181 28.666771803278692 7.726893464872698e-06
391 1 48.77356721311476 28.631730491803282 7.38955678603899e-05
392 1 51.386518032786896 28.076825573770492 1.0908568511428107e-05
393 1 53.95604590163935 28.416433442622953 6.977099316164259e-06
394 1 56.89517377049181 28.54443016393443 3.076650362284551e-05
395 1 59.63637377049181 28.22436262295082 8.391207773174828e-05
396 1 62.289718032786894 28.269199344262297 5.785665895712763e-05
397 1 64.76028196721312 28.74503409836066 2.281015745917159e-06
398 1 67.15409836065574 28.733320000000003 8.301169046177747e-06
399 1 69.85389508196722 28.305149508196724 8.519972011169924e-05
400 1 72.39363278688526 29.357045245901645 1.0379304851703331e-05
401 1 75.33528524590164 28.362811147540985 4.470143425710627e-06
402 1 79.40896393442623 28.046429508196724 4.078082886686475e-05
403 1 80.98380327868853 28.170386885245904 5.490475174557875e-05
404 1 82.64548852459018 30.63150885245902 5.98005343468276e-05
405 1 3.0760818360655744 29.96506754098361 7.766898665529851e-05
406 1 4.314403409836066 29.089034754098364 8.560292504155122e-05
407 1 7.905097704918034 30.287962622950822 5.548092089108301e-05
408 1 9.717904918032788 31.967269508196722 5.811432762931528e-05
409 1 12.641582295081967 31.316430163934427 3.125336744412783e-05
410 1 15.439181639344264 31.295072131147542 2.7883075118764047e-05
411 1 18.171646557377052 31.002825573770494 2.700865737085403e-05
412 1 21.00262098360656 31.41377836065574 1.7159011179980244e-05
413 1 23.52938229508197 31.5887324590164 7.5671996726809355e-06
414 1 25.56718098360656 30.396419016393445 8.835922132009635e-05
415 1 28.522617704918037 31.23205836065574 8.278570859753262e-05
416 1 31.36687147540984 31.360004590163935 1.4860358713064505e-05
417 1 34.975419672131146 30.27655147540984 6.29067074723967e-05
418 1 36.45124459016394 29.84535147540984 8.056320116998146e-05
419 1 38.964777049180334 30.625904262295084 8.890483896853787e-05
420 1 41.6055993442623 30.973085901639347 1.1966408192059608e-05
421 1 44.454801311475414 31.01065180327869 9.608077366822938e-05
422 1 47.24820983606558 30.6699331147541 3.4774008984953274e-05
423 1 50.072620327868854 30.612422950819678 2.2187405273736418e-05
424 1 52.450380327868864 30.59682098360656 7.711259743616337e-05
425 1 54.54175081967214 29.859438688524595 9.009573263336096e-05
426 1 58.13373770491804 30.531484590163938 2.018003735257511e-05
427 1 60.92391475409837 30.515781639344265 1.9134232834351697e-05
428 1 63.3364131147541 30.87871672131148 4.0946345808771345e-05
429 1 65.86655737704918 31.237360000000002 7.973810723779513e-05
430 1 68.62340983606558 30.81863147540984 7.994428221652452e-05
431 1 71.48023606557378 30.62726754098361 4.222660037397027e-05
432 1 74.01795409836066 30.68992786885246 9.854945278238522e-05
433 1 76.59707540983607 30.54557180327869 3.687064738528478e-05
434 1 79.15953442622951 30.565617049180332 9.05162861502805e-05
435 1 1.2563824918032789 32.91545508196722 4.9419070497064026e-05
436 1 3.835463409836066 32.712680000000006 5.738626355260845e-06
437 1 6.666180327868854 32.46855213114754 3.19110143850749e-05
438 1 8.861664918032787 33.949527213114756 3.92589151538298e-05
439 1 11.684712131147542 33.575180983606565 7.293068959333995e-05
440 1 14.22081442622951 33.5284255737705 7.585027626719962e-05
441 1 16.80240983606558 33.42123147540984 4.633690049863928e-05
442 1 19.386933770491805 33.365387540983605 7.525445376454262e-05
443 1 22.033310163934427 33.9122137704918 4.568033119732096e-06
444 1 25.153501639344263 34.44303409836066 6.240400176544709e-05
445 1 27.284457704918033 33.874597377049184 3.276099688793871e-05
446 1 30.793082622950823 33.216285245901645 7.053626642651092e-05
447 1 32.33353704918033 33.32701377049181 5.1133461896169235e-05
448 1 34.93098688524591 33.099699672131145 7.538933204358374e-05
449 1 37.59771147540984 32.67127672131148 9.64920061111651e-05
450 1 40.31694754098361 33.10439540983607 5.485710330352865e-05
451 1 43.15186032786885 33.17099409836066 9.481677595868202e-05
452 1 46.85386885245902 32.6811731147541 5.3620582777976056e-05
453 1 48.39346491803279 32.7150531147541 6.642617833570715e-05
454 1 51.09467540983607 33.11146426229509 4.043180073967712e-05
455 1 53.89141639344263 32.82209573770492 3.1356876399994225e-05
456 1 56.62554754098361 32.76367672131148 9.431397587619186e-05
457 1 59.40411147540984 32.61947213114754 4.047662700940734e-05
458 1 61.95899672131148 33.12999475409836 7.435800181514885e-06
459 1 64.40128524590165 34.435258360655745 4.1936614443095667e-05
460 1 67.23135081967213 33.27980393442623 7.337647062148174e-05
461 1 70.00335081967214 32.90914360655738 6.192557605730429e-05
462 1 72.70920655737706 33.03345442622951 2.4311950899698265e-05