ITEM: TIMESTEP
0
ITEM: NUMBER OF ATOMS
2232
ITEM: BOX BOUNDS xy xz yz pp pp pp
0.0 82.68810555352132 0
0.0 83.16 0
-10.0 10.0 0
ITEM: ATOMS id type x y z vx vy vz
1 1 1.813705967213115 0.8676410491803279 3.29641508828e-05 0.0 0.0 0.0
2 1 4.473048655737705 1.0490681967213116 3.00187392732e-05 0.0 0.0 0.0
3 1 6.796095737704919 1.5081396721311475 7.56409479244e-05 0.0 0.0 0.0
4 1 9.393444590163934 1.818442098360656 7.53726689942e-05 0.0 0.0 0.0
5 1 12.232346229508199 0.9821110163934427 1.79479379665e-05 0.0 0.0 0.0
6 1 15.68649049180328 0.8235718032786886 3.6193174131e-05 0.0 0.0 0.0
7 1 17.655620327868856 2.3551194754098366 7.09522186465e-05 0.0 0.0 0.0
8 1 20.367686557377052 1.1959135081967214 1.63171114901e-05 0.0 0.0 0.0
9 1 23.114996065573774 0.8806729836065574 4.29245944215e-05 0.0 0.0 0.0
10 1 25.391469508196725 0.5910721967213116 9.67760346289e-05 0.0 0.0 0.0
11 1 27.984829508196725 83.11657704918034 9.16288383815e-06 0.0 0.0 0.0
12 1 31.21085180327869 82.97923934426231 1.8492049348e-06 0.0 0.0 0.0
13 1 33.90766950819672 82.76565901639346 2.40557444576e-05 0.0 0.0 0.0
14 1 36.40827606557377 82.86765245901641 1.36284102744e-05 0.0 0.0 0.0
15 1 39.01415803278689 0.2702528327868853 1.09142483876e-05 0.0 0.0 0.0
16 1 41.67684327868852 0.8160838688524591 8.00897177192e-05 0.0 0.0 0.0
17 1 44.246371147540984 0.8729578360655739 4.0184792835e-05 0.0 0.0 0.0
18 1 47.05921901639345 0.8530590163934427 8.46216264295e-05 0.0 0.0 0.0
19 1 49.78784655737706 1.1250432131147543 2.69843871455e-05 0.0 0.0 0.0
20 1 52.478655737704926 1.4496146229508198 3.0436849532e-05 0.0 0.0 0.0
21 1 55.42333770491803 1.278861442622951 9.41915837984e-05 0.0 0.0 0.0
22 1 58.1776655737705 0.7992700983606558 1.15389530314e-05 0.0 0.0 0.0
23 1 59.66565901639345 1.165174098360656 4.97255112479e-05 0.0 0.0 0.0
24 1 62.38615737704919 1.3343115409836066 8.83136132043e-05 0.0 0.0 0.0
25 1 65.19855081967214 0.9874984918032788 9.43022942992e-05 0.0 0.0 0.0
26 1 68.10536393442622 1.0044435409836066 5.50799121206e-05 0.0 0.0 0.0
27 1 71.0020786885246 0.9076204590163935 7.82209902483e-05 0.0 0.0 0.0
28 1 73.81901639344262 1.3273537704918033 9.55935507655e-05 0.0 0.0 0.0
29 1 76.4153049180328 1.320592918032787 6.8928655232e-05 0.0 0.0 0.0
30 1 79.23224262295082 0.896668786885246 5.86139017933e-05 0.0 0.0 0.0
31 1 81.90477377049181 0.7475260983606559 8.2418048604e-05 0.0 0.0 0.0
32 1 0.5657859016393443 3.090169049180328 1.69833929694e-05 0.0 0.0 0.0
33 1 3.236903278688525 3.181766229508197 8.49053216051e-05 0.0 0.0 0.0
34 1 5.651143606557377 3.7661028196721316 1.23627549343e-05 0.0 0.0 0.0
35 1 8.246826229508196 3.954512983606558 6.42397329077e-05 0.0 0.0 0.0
36 1 10.250340983606558 3.0836152131147547 6.17577094514e-06 0.0 0.0 0.0
37 1 13.42233704918033 1.91291731147541 5.65459205977e-06 0.0 0.0 0.0
38 1 16.517888524590166 3.401092524590164 4.84082538329e-05 0.0 0.0 0.0
39 1 18.87580524590164 3.7256134426229512 7.31200381786e-05 0.0 0.0 0.0
40 1 21.922834098360656 3.308359278688525 3.46323311765e-05 0.0 0.0 0.0
41 1 24.705740327868856 3.253207081967213 7.50764227077e-05 0.0 0.0 0.0
42 1 27.128185573770494 2.472285704918033 3.15868941254e-05 0.0 0.0 0.0
43 1 28.897216393442623 1.1748331803278689 1.79750325292e-05 0.0 0.0 0.0
44 1 32.58564262295082 1.9033844590163937 8.40441587135e-05 0.0 0.0 0.0
45 1 34.9433068852459 2.037929967213115 1.95925472047e-05 0.0 0.0 0.0
46 1 37.346110819672134 2.240593967213115 9.21237448165e-05 0.0 0.0 0.0
47 1 39.973300327868856 2.780517967213115 4.45591958977e-06 0.0 0.0 0.0
48 1 42.84870754098361 3.290727540983607 3.38969592112e-05 0.0 0.0 0.0
49 1 45.42166885245902 3.03211862295082 1.58180916495e-05 0.0 0.0 0.0
50 1 48.136158688524596 3.2590641311475417 7.57938345163e-05 0.0 0.0 0.0
51 1 51.199698360655745 3.6209792786885253 2.11262317474e-06 0.0 0.0 0.0
52 1 53.95554098360656 3.3793860983606563 4.74108753467e-05 0.0 0.0 0.0
53 1 56.64624918032787 3.898012655737705 7.23417012228e-05 0.0 0.0 0.0
54 1 59.3132262295082 3.4257729180327874 7.36727220053e-05 0.0 0.0 0.0
55 1 60.87140327868853 3.4528971147540988 1.47496581338e-05 0.0 0.0 0.0
56 1 63.64390819672132 3.267319540983607 7.32934845098e-05 0.0 0.0 0.0
57 1 66.50174426229509 3.014027409836066 5.81783832145e-05 0.0 0.0 0.0
58 1 69.27475409836066 3.01032131147541 6.86581342901e-05 0.0 0.0 0.0
59 1 72.13915409836066 3.3278743606557377 3.43358555556e-05 0.0 0.0 0.0
60 1 75.61753442622951 3.616934885245902 4.63076316491e-05 0.0 0.0 0.0
61 1 78.2976393442623 3.131834885245902 7.02880388279e-05 0.0 0.0 0.0
62 1 80.91664918032788 3.0888209180327872 7.04888721778e-05 0.0 0.0 0.0
63 1 1.7446281311475411 5.343345573770492 4.18768971185e-05 0.0 0.0 0.0
64 1 4.234737442622951 6.718388852459017 3.21822983829e-05 0.0 0.0 0.0
65 1 7.1830649180327875 6.187215081967214 7.40927767181e-05 0.0 0.0 0.0
66 1 10.136481967213117 6.008575081967214 3.65100156328e-05 0.0 0.0 0.0
67 1 13.715845901639346 4.557213442622952 7.29019486105e-05 0.0 0.0 0.0
68 1 14.434748196721314 6.84224524590164 3.73385381597e-05 0.0 0.0 0.0
69 1 17.31358885245902 6.0038793442622955 7.26480996867e-05 0.0 0.0 0.0
70 1 19.591728524590167 5.052462295081968 2.20783478413e-05 0.0 0.0 0.0
71 1 22.824971147540985 4.552204655737705 1.3358763116e-05 0.0 0.0 0.0
72 1 26.336928524590167 5.156929836065574 9.84636667341e-05 0.0 0.0 0.0
73 1 29.308017704918036 4.037748721311476 4.90462521283e-05 0.0 0.0 0.0
74 1 30.81484459016394 3.8777856393442627 6.72092621459e-05 0.0 0.0 0.0
75 1 33.313835409836074 4.392478885245902 3.67712590883e-06 0.0 0.0 0.0
76 1 35.622017704918036 4.526590163934427 2.00616582988e-05 0.0 0.0 0.0
77 1 38.19528196721312 4.703579081967214 5.90888266609e-05 0.0 0.0 0.0
78 1 40.62893639344262 4.167512655737705 3.15755905271e-06 0.0 0.0 0.0
79 1 43.88000262295082 5.482955409836066 3.14388256923e-05 0.0 0.0 0.0
80 1 46.47013114754099 5.340215081967213 7.52442134148e-05 0.0 0.0 0.0
81 1 48.876671475409836 4.611381049180328 2.80865481062e-05 0.0 0.0 0.0
82 1 53.14363278688525 5.595905573770493 2.38700816342e-05 0.0 0.0 0.0
83 1 54.66040655737705 5.7469770491803285 5.45866322364e-05 0.0 0.0 0.0
84 1 56.886590163934436 6.543939672131148 7.62277541952e-05 0.0 0.0 0.0
85 1 59.84339016393443 6.126170491803279 3.20111475911e-06 0.0 0.0 0.0
86 1 62.657298360655744 5.557986229508197 3.70853110509e-05 0.0 0.0 0.0
87 1 65.56714098360656 5.126988196721312 6.26592062021e-05 0.0 0.0 0.0
88 1 67.3252655737705 6.501324590163935 8.00236398165e-05 0.0 0.0 0.0
89 1 71.2868524590164 5.775706885245902 4.77412313485e-05 0.0 0.0 0.0
90 1 73.29390163934427 4.396245573770492 3.38462386552e-05 0.0 0.0 0.0
91 1 77.99064918032786 5.27992786885246 5.8869724408e-06 0.0 0.0 0.0
92 1 79.51550163934427 5.405500983606558 2.03250717677e-06 0.0 0.0 0.0
93 1 0.19853579016393444 5.394998688524591 3.99582168361e-05 0.0 0.0 0.0
94 1 0.28306361311475414 7.887274098360657 6.21902467746e-05 0.0 0.0 0.0
95 1 3.188486688524591 7.843194754098361 9.57048622816e-05 0.0 0.0 0.0
96 1 5.673006557377049 8.388960655737705 7.84655916102e-05 0.0 0.0 0.0
97 1 8.778100983606558 8.168260983606558 9.84051291381e-06 0.0 0.0 0.0
98 1 11.544243934426232 8.203807213114755 9.01833145045e-05 0.0 0.0 0.0
99 1 14.229600000000001 8.359675409836067 2.13344099016e-05 0.0 0.0 0.0
100 1 16.84492393442623 8.09928918032787 9.25327900405e-05 0.0 0.0 0.0
101 1 19.934820327868852 7.389626885245903 1.7738215327e-05 0.0 0.0 0.0
102 1 22.079661639344263 8.647781639344263 7.06071465747e-05 0.0 0.0 0.0
103 1 25.483162622950825 7.576547540983607 2.63281336487e-05 0.0 0.0 0.0
104 1 27.00584393442623 7.449661639344264 5.26904174169e-06 0.0 0.0 0.0
105 1 30.014801967213117 6.656233442622952 1.75382308869e-06 0.0 0.0 0.0
106 1 31.512136393442628 6.416548852459017 7.65071972397e-05 0.0 0.0 0.0
107 1 33.88737180327869 6.8986445901639355 8.42896372056e-05 0.0 0.0 0.0
108 1 36.501786885245906 6.898291147540984 5.95504860373e-06 0.0 0.0 0.0
109 1 39.401581639344265 6.797862950819673 7.37207062113e-05 0.0 0.0 0.0
110 1 42.14111540983607 7.749128524590165 2.46429792907e-05 0.0 0.0 0.0
111 1 45.197030819672136 7.7444327868852465 6.27455241381e-05 0.0 0.0 0.0
112 1 47.87501508196722 7.3423665573770505 8.3678766606e-05 0.0 0.0 0.0
113 1 50.33618754098361 7.905198688524591 4.9350656088e-05 0.0 0.0 0.0
114 1 52.83209836065575 8.291460983606557 7.97323319228e-05 0.0 0.0 0.0
115 1 55.73032786885246 8.56093573770492 7.99358246456e-05 0.0 0.0 0.0
116 1 57.813114754098365 7.732516721311476 9.30639477963e-05 0.0 0.0 0.0
117 1 61.495481967213124 7.805628852459017 7.47871057424e-05 0.0 0.0 0.0
118 1 63.4944524590164 6.856584918032787 3.95926206142e-05 0.0 0.0 0.0
119 1 68.8228524590164 6.17888393442623 4.29115553271e-05 0.0 0.0 0.0
120 1 70.82990163934427 7.205786229508198 6.5666399998e-05 0.0 0.0 0.0
121 1 73.20655081967213 7.307123278688525 8.3238512175e-05 0.0 0.0 0.0
122 1 75.55896393442623 7.745594098360656 3.4510976681e-05 0.0 0.0 0.0
123 1 78.02649836065574 7.763670163934426 9.67728102559e-06 0.0 0.0 0.0
124 1 80.50009180327869 9.074336393442625 2.13471787794e-05 0.0 0.0 0.0
125 1 1.903379409836066 9.91573180327869 6.07947914824e-05 0.0 0.0 0.0
126 1 4.2073809836065585 10.438978360655739 8.72100584855e-05 0.0 0.0 0.0
127 1 6.489862950819673 9.671300983606558 1.09178268045e-05 0.0 0.0 0.0
128 1 10.143096393442624 10.346729836065576 5.4779457686e-05 0.0 0.0 0.0
129 1 12.060926557377051 9.681601311475411 8.52022094289e-05 0.0 0.0 0.0
130 1 15.823474754098362 10.4620531147541 8.94193120037e-05 0.0 0.0 0.0
131 1 17.98654360655738 9.124323278688527 6.01973373828e-05 0.0 0.0 0.0
132 1 20.828676721311478 11.099411147540986 1.6576684787e-05 0.0 0.0 0.0
133 1 23.49378557377049 10.755561967213117 3.28323525192e-06 0.0 0.0 0.0
134 1 25.845542295081973 10.414590819672133 2.96917810963e-05 0.0 0.0 0.0
135 1 28.153876065573776 9.88876918032787 8.87157494787e-05 0.0 0.0 0.0
136 1 30.65458360655738 9.357342950819673 2.31169795202e-05 0.0 0.0 0.0
137 1 32.86678098360656 9.050100327868853 7.01673158939e-05 0.0 0.0 0.0
138 1 36.82266229508197 9.334571147540984 1.61739478275e-05 0.0 0.0 0.0
139 1 38.23148459016394 8.755531147540983 5.56828263525e-05 0.0 0.0 0.0
140 1 41.01418885245902 10.463466885245902 9.36157941764e-05 0.0 0.0 0.0
141 1 42.98841836065574 9.036467540983606 6.13743272441e-05 0.0 0.0 0.0
142 1 46.514563934426235 9.748603934426232 2.88479971102e-05 0.0 0.0 0.0
143 1 48.426436065573775 11.214936393442624 8.44347166823e-05 0.0 0.0 0.0
144 1 51.22645901639345 10.480078688524591 5.30615217211e-05 0.0 0.0 0.0
145 1 54.516504918032794 10.432515409836066 5.51623146668e-05 0.0 0.0 0.0
146 1 58.48112131147541 10.003335081967215 9.80697892681e-05 0.0 0.0 0.0
147 1 60.04232786885247 10.195910819672132 6.81852905165e-05 0.0 0.0 0.0
148 1 62.80877377049181 9.84261967213115 9.74450144439e-05 0.0 0.0 0.0
149 1 65.69942950819673 9.000012459016395 7.45978684055e-06 0.0 0.0 0.0
150 1 69.52115409836065 9.096451803278688 8.66633037636e-05 0.0 0.0 0.0
151 1 71.01823606557377 9.356989508196722 6.47246273016e-05 0.0 0.0 0.0
152 1 73.57514098360657 9.841862295081969 1.96390166911e-05 0.0 0.0 0.0
153 1 76.65261639344264 10.188438032786886 2.39777666106e-05 0.0 0.0 0.0
154 1 80.09868196721312 10.547283278688525 6.46122255874e-05 0.0 0.0 0.0
155 1 0.40978895081967215 10.192729836065576 9.73737564479e-05 0.0 0.0 0.0
156 1 0.7929737704918034 13.049960000000002 9.95391001195e-05 0.0 0.0 0.0
157 1 3.113819409836066 12.655164590163936 5.45411458163e-06 0.0 0.0 0.0
158 1 5.743947540983607 12.462740327868854 1.69772571428e-05 0.0 0.0 0.0
159 1 8.560279344262296 12.363019016393443 6.1008047222e-05 0.0 0.0 0.0
160 1 11.371360000000001 12.690508852459018 1.13639754903e-05 0.0 0.0 0.0
161 1 14.622123278688525 12.550343606557378 6.4119302141e-05 0.0 0.0 0.0
162 1 17.433607868852462 12.03128786885246 3.14092463356e-05 0.0 0.0 0.0
163 1 20.09392 12.441432786885247 6.44073897722e-05 0.0 0.0 0.0
164 1 22.340502295081972 13.146399344262296 9.02523612564e-05 0.0 0.0 0.0
165 1 24.85878098360656 13.061674098360657 1.76011422319e-05 0.0 0.0 0.0
166 1 28.351601967213117 12.203262950819674 3.12013154377e-05 0.0 0.0 0.0
167 1 29.88372524590164 11.890567213114755 4.74020994975e-05 0.0 0.0 0.0
168 1 32.45926163934426 12.96185180327869 6.89248715006e-05 0.0 0.0 0.0
169 1 35.229645901639344 11.773173770491805 2.18531299558e-05 0.0 0.0 0.0
170 1 37.61629245901639 11.740909508196722 1.4780253274e-05 0.0 0.0 0.0
171 1 40.543554754098366 11.960548852459016 8.23430623764e-05 0.0 0.0 0.0
172 1 42.88854557377049 12.00276 7.67354288993e-05 0.0 0.0 0.0
173 1 45.10766032786886 13.26561049180328 3.54749667158e-06 0.0 0.0 0.0
174 1 47.864310819672134 12.63612918032787 9.39361969488e-05 0.0 0.0 0.0
175 1 50.06600590163935 12.797400000000001 5.20962796642e-05 0.0 0.0 0.0
176 1 52.02978360655739 11.781858360655738 1.34450096369e-05 0.0 0.0 0.0
177 1 55.44252459016394 12.296672786885248 7.77280455354e-05 0.0 0.0 0.0
178 1 58.02265573770493 12.569833442622953 8.56390238605e-05 0.0 0.0 0.0
179 1 61.405606557377055 12.379883278688526 9.87038937148e-05 0.0 0.0 0.0
180 1 65.02334426229508 11.213068196721313 6.21550749599e-05 0.0 0.0 0.0
181 1 66.53860327868854 11.343438032786887 5.05570238257e-05 0.0 0.0 0.0
182 1 69.15710819672132 11.547828852459018 4.05109228072e-05 0.0 0.0 0.0
183 1 71.81600655737707 11.834218360655738 5.50964396941e-05 0.0 0.0 0.0
184 1 74.0507737704918 11.288048524590165 6.01056923715e-05 0.0 0.0 0.0
185 1 77.5008786885246 11.450581639344264 3.91483654526e-05 0.0 0.0 0.0
186 1 80.77274754098362 12.900504262295083 3.17620954769e-06 0.0 0.0 0.0
187 1 2.4653127868852462 15.335673442622952 1.78713857262e-05 0.0 0.0 0.0
188 1 4.573562688524591 14.881903606557378 9.72945588856e-05 0.0 0.0 0.0
189 1 6.9839757377049185 14.527400655737706 1.15784132956e-05 0.0 0.0 0.0
190 1 9.71245180327869 14.641764590163936 7.43614463966e-05 0.0 0.0 0.0
191 1 12.141713442622953 14.058786229508197 4.80977585505e-05 0.0 0.0 0.0
192 1 16.816396065573773 14.19582098360656 2.12308115741e-05 0.0 0.0 0.0
193 1 18.321203278688525 14.429295081967215 4.11567399578e-05 0.0 0.0 0.0
194 1 20.638524590163936 15.218229508196723 3.17122820249e-05 0.0 0.0 0.0
195 1 23.17210229508197 15.441958688524593 9.2999151213e-05 0.0 0.0 0.0
196 1 25.801160000000003 15.201365245901641 8.57163431774e-06 0.0 0.0 0.0
197 1 28.35387409836066 15.044992131147543 9.0558607307e-05 0.0 0.0 0.0
198 1 32.76201049180328 14.497963934426231 9.0492658179e-05 0.0 0.0 0.0
199 1 34.24106688524591 14.135887213114756 9.65304717718e-05 0.0 0.0 0.0
200 1 36.7522262295082 14.166838688524592 1.62206353604e-05 0.0 0.0 0.0
201 1 38.8551593442623 15.013687213114755 6.81239699163e-05 0.0 0.0 0.0
202 1 41.72284131147542 14.628636721311477 7.65456043841e-05 0.0 0.0 0.0
203 1 45.12245442622951 14.802025573770493 2.10079190317e-05 0.0 0.0 0.0
204 1 46.633169180327876 15.011364590163936 2.24817302251e-07 0.0 0.0 0.0
205 1 48.99780131147541 15.280637377049182 9.47790589677e-05 0.0 0.0 0.0
206 1 51.466800000000006 14.75870360655738 9.71825629645e-05 0.0 0.0 0.0
207 1 54.2852524590164 14.519776393442624 1.88740683189e-05 0.0 0.0 0.0
208 1 57.005245901639356 14.639189508196724 4.34419486454e-05 0.0 0.0 0.0
209 1 59.62678032786886 14.923559344262296 4.12342680712e-05 0.0 0.0 0.0
210 1 62.96277377049181 14.456611147540984 1.04791988409e-05 0.0 0.0 0.0
211 1 65.30559344262295 13.680047213114754 9.47073134287e-05 0.0 0.0 0.0
212 1 68.09425573770493 13.69681049180328 4.68627153504e-05 0.0 0.0 0.0
213 1 70.8167737704918 13.91978229508197 9.64324374641e-05 0.0 0.0 0.0
214 1 73.23583606557378 14.053838032786887 5.82742031454e-05 0.0 0.0 0.0
215 1 75.89776393442624 13.949824918032789 2.25884420589e-05 0.0 0.0 0.0
216 1 78.90455081967214 14.599452459016396 3.78059878056e-05 0.0 0.0 0.0
217 1 81.57556721311477 15.064431475409837 4.19124091864e-06 0.0 0.0 0.0
218 1 82.34102295081968 17.315608524590164 5.99602028934e-05 0.0 0.0 0.0
219 1 1.514789442622951 16.52344262295082 3.08064187358e-05 0.0 0.0 0.0
220 1 5.638318688524591 17.117024262295082 2.96030115638e-05 0.0 0.0 0.0
221 1 8.268083278688525 16.746919344262295 2.34980024368e-05 0.0 0.0 0.0
222 1 10.42736524590164 15.99060262295082 8.79923526341e-05 0.0 0.0 0.0
223 1 13.867472786885248 16.478454426229508 9.0256121327e-05 0.0 0.0 0.0
224 1 16.255129180327874 16.852043278688527 5.44192992522e-05 0.0 0.0 0.0
225 1 18.840612459016395 17.196144918032786 2.36333287306e-05 0.0 0.0 0.0
226 1 21.346167213114757 17.65733704918033 9.45237416163e-05 0.0 0.0 0.0
227 1 25.066554754098362 17.51065836065574 3.42276962759e-05 0.0 0.0 0.0
228 1 26.590750819672134 17.378672786885247 1.74073536792e-05 0.0 0.0 0.0
229 1 29.012388196721314 17.401192131147543 4.41957051515e-06 0.0 0.0 0.0
230 1 31.066293770491807 16.39181049180328 2.34841513688e-07 0.0 0.0 0.0
231 1 35.14219409836066 16.534550819672134 8.30784564611e-06 0.0 0.0 0.0
232 1 38.03623278688525 16.308902950819675 1.75199507778e-05 0.0 0.0 0.0
233 1 39.93497704918033 18.10858229508197 3.49971659661e-05 0.0 0.0 0.0
234 1 42.7075324590164 17.355699016393444 1.78493648801e-05 0.0 0.0 0.0
235 1 45.062621639344265 17.466427540983606 9.15790478056e-05 0.0 0.0 0.0
236 1 47.84037770491804 17.64572393442623 6.0475638692e-05 0.0 0.0 0.0
237 1 50.404048524590166 17.421590819672133 9.75270269885e-05 0.0 0.0 0.0
238 1 53.008314754098365 16.70642491803279 7.36635102274e-05 0.0 0.0 0.0
239 1 55.916642622950825 16.74979737704918 8.36814267161e-05 0.0 0.0 0.0
240 1 59.40461639344263 16.47996918032787 8.16988332135e-05 0.0 0.0 0.0
241 1 61.8464 17.644865573770492 9.16403441733e-05 0.0 0.0 0.0
242 1 65.36062950819674 16.07351016393443 2.41956587226e-05 0.0 0.0 0.0
243 1 66.84761311475411 15.796360655737706 1.20157506198e-05 0.0 0.0 0.0
244 1 69.50095737704919 15.985502950819674 2.98812379534e-05 0.0 0.0 0.0
245 1 72.21943606557379 16.461893114754098 6.82342922235e-05 0.0 0.0 0.0
246 1 75.15048524590163 16.158689836065577 8.83045355351e-06 0.0 0.0 0.0
247 1 76.44509508196722 15.363948852459018 8.08375795881e-06 0.0 0.0 0.0
248 1 79.72554754098361 16.968073442622952 8.49598478944e-05 0.0 0.0 0.0
249 1 0.5208784918032787 19.409200655737706 9.96308575447e-05 0.0 0.0 0.0
250 1 3.7950093770491806 19.200215081967215 5.89132660348e-05 0.0 0.0 0.0
251 1 7.892373770491804 18.947301639344264 1.35642653643e-05 0.0 0.0 0.0
252 1 9.434696393442625 18.84344 6.42714885507e-05 0.0 0.0 0.0
253 1 12.684702295081967 18.63591868852459 7.40890327744e-05 0.0 0.0 0.0
254 1 14.197588196721313 18.89781967213115 2.9272978477e-06 0.0 0.0 0.0
255 1 16.77292262295082 19.192085901639345 9.07958088964e-05 0.0 0.0 0.0
256 1 19.330584918032788 19.71709967213115 8.37633719269e-05 0.0 0.0 0.0
257 1 21.981909508196726 20.057262950819673 5.29186138709e-05 0.0 0.0 0.0
258 1 24.77107672131148 20.027018360655738 6.3934094609e-05 0.0 0.0 0.0
259 1 27.674860327868856 19.850953442622952 9.60570328143e-05 0.0 0.0 0.0
260 1 30.49442360655738 19.31558885245902 2.22048403027e-05 0.0 0.0 0.0
261 1 33.68106229508197 18.781284590163935 8.34628744168e-05 0.0 0.0 0.0
262 1 36.447053770491806 18.50307475409836 6.12123899554e-05 0.0 0.0 0.0
263 1 39.00304983606558 19.31367016393443 6.00938641352e-05 0.0 0.0 0.0
264 1 41.590199344262295 19.722855737704922 5.70326489944e-05 0.0 0.0 0.0
265 1 44.00956459016394 19.936335081967215 8.22029921079e-05 0.0 0.0 0.0
266 1 46.57338688524591 19.78869704918033 5.13416933307e-05 0.0 0.0 0.0
267 1 49.36422032786886 19.9600662295082 2.32079496555e-05 0.0 0.0 0.0
268 1 53.006800000000005 18.805672131147542 8.91923592466e-06 0.0 0.0 0.0
269 1 54.52306885245902 18.66308327868853 9.31928440048e-05 0.0 0.0 0.0
270 1 56.99615737704919 17.827342950819673 9.31454458876e-05 0.0 0.0 0.0
271 1 61.23999344262296 19.037278032786887 3.61429877961e-06 0.0 0.0 0.0
272 1 63.680767213114756 19.294533770491807 6.33598163239e-05 0.0 0.0 0.0
273 1 65.9584524590164 18.505700327868855 9.82751197579e-06 0.0 0.0 0.0
274 1 68.49718032786886 18.092879344262297 1.83926426659e-05 0.0 0.0 0.0
275 1 70.85413770491805 19.4549462295082 1.97543337857e-05 0.0 0.0 0.0
276 1 72.98792131147542 20.214797377049184 4.12748741914e-05 0.0 0.0 0.0
277 1 76.08710819672132 18.600422950819677 2.04026447203e-05 0.0 0.0 0.0
278 1 77.65033442622952 18.646925901639346 4.06007568416e-05 0.0 0.0 0.0
279 1 81.69624262295082 19.173959344262297 1.42808394875e-05 0.0 0.0 0.0
280 1 81.34027540983608 21.209031475409837 5.79788603011e-05 0.0 0.0 0.0
281 1 1.1859110819672134 20.788586229508198 8.98418444132e-05 0.0 0.0 0.0
282 1 4.814868065573771 21.336422295081967 8.43993079019e-05 0.0 0.0 0.0
283 1 7.35201049180328 21.33768459016394 2.47567715872e-05 0.0 0.0 0.0
284 1 10.077810491803278 21.413472786885247 2.72293455883e-05 0.0 0.0 0.0
285 1 12.530449836065575 21.564342295081968 6.95211568629e-05 0.0 0.0 0.0
286 1 15.289271475409837 21.39610360655738 2.4348883035e-05 0.0 0.0 0.0
287 1 17.60800655737705 22.75519147540984 9.29789825625e-05 0.0 0.0 0.0
288 1 20.403232786885248 22.174535737704918 4.87145749162e-05 0.0 0.0 0.0
289 1 23.152915409836066 22.18301836065574 8.42252385535e-06 0.0 0.0 0.0
290 1 26.042409836065577 22.02013180327869 2.7643420771e-05 0.0 0.0 0.0
291 1 30.286700327868857 21.209586885245905 3.69359368886e-05 0.0 0.0 0.0
292 1 31.58317836065574 20.38545967213115 9.22574332188e-05 0.0 0.0 0.0
293 1 35.218487213114756 20.802622950819675 4.59733854844e-05 0.0 0.0 0.0
294 1 37.468957377049186 22.2669862295082 9.93248250518e-05 0.0 0.0 0.0
295 1 40.37748721311476 21.772419016393446 6.131334927e-05 0.0 0.0 0.0
296 1 42.29612524590164 23.522616393442625 6.33269016922e-06 0.0 0.0 0.0
297 1 45.530125245901644 22.2522931147541 6.33181656986e-05 0.0 0.0 0.0
298 1 48.16872590163935 22.032552786885248 1.91286115342e-05 0.0 0.0 0.0
299 1 50.32109049180328 21.20362885245902 2.49237333083e-05 0.0 0.0 0.0
300 1 54.15599344262296 21.35762885245902 5.22731682996e-05 0.0 0.0 0.0
301 1 56.39782950819673 20.474173770491806 2.41190167025e-05 0.0 0.0 0.0
302 1 58.64219016393443 19.373805901639344 6.80599431158e-05 0.0 0.0 0.0
303 1 62.11956065573771 21.52112131147541 7.27675545031e-05 0.0 0.0 0.0
304 1 65.90695081967213 21.043216393442624 6.24363413411e-05 0.0 0.0 0.0
305 1 67.3636393442623 20.61211737704918 7.17169862286e-05 0.0 0.0 0.0
306 1 69.93973114754098 20.702851147540986 6.60365068522e-05 0.0 0.0 0.0
307 1 72.29062950819673 21.56580655737705 6.11047559791e-05 0.0 0.0 0.0
308 1 74.50469508196721 22.136565901639347 9.73614760364e-05 0.0 0.0 0.0
309 1 76.43499672131148 21.54667016393443 2.40669606693e-05 0.0 0.0 0.0
310 1 78.86567213114755 21.092142950819674 9.17950412762e-05 0.0 0.0 0.0
311 1 0.7300155409836067 24.424046557377054 9.04980950142e-05 0.0 0.0 0.0
312 1 3.2373324590163937 23.310096393442624 6.85725934244e-05 0.0 0.0 0.0
313 1 5.856544262295083 23.661418360655738 8.38093064249e-05 0.0 0.0 0.0
314 1 8.863634098360658 23.581136393442627 7.92376534509e-05 0.0 0.0 0.0
315 1 10.219641967213116 25.266199344262297 7.54782173763e-06 0.0 0.0 0.0
316 1 14.02329049180328 23.811379016393445 5.132929588e-05 0.0 0.0 0.0
317 1 16.726621639344266 24.005873442622953 8.35579806312e-05 0.0 0.0 0.0
318 1 19.284889836065574 24.56042491803279 8.78952753514e-05 0.0 0.0 0.0
319 1 21.728541639344265 24.3867331147541 1.72648736582e-05 0.0 0.0 0.0
320 1 24.76259409836066 24.091961967213116 6.03041976481e-05 0.0 0.0 0.0
321 1 26.91622098360656 23.28141704918033 8.69315768769e-05 0.0 0.0 0.0
322 1 30.47569114754099 23.988352786885248 9.19003373391e-05 0.0 0.0 0.0
323 1 34.02874885245902 23.26647147540984 6.43712814714e-05 0.0 0.0 0.0
324 1 36.562730491803286 23.503025573770493 9.23742050654e-05 0.0 0.0 0.0
325 1 39.28272393442624 23.91205967213115 4.54222906164e-06 0.0 0.0 0.0
326 1 41.91173114754099 24.99354360655738 7.16329660387e-05 0.0 0.0 0.0
327 1 43.66995672131148 24.169416393442628 7.64904519993e-05 0.0 0.0 0.0
328 1 47.131119344262295 24.384662950819674 6.68605118814e-05 0.0 0.0 0.0
329 1 49.10802491803279 23.239306885245902 3.67602818303e-05 0.0 0.0 0.0
330 1 53.06284590163935 23.74801180327869 2.00765298757e-06 0.0 0.0 0.0
331 1 56.38672131147541 23.10621049180328 1.40817210222e-05 0.0 0.0 0.0
332 1 57.702032786885255 22.290262950819674 4.49204007224e-05 0.0 0.0 0.0
333 1 60.22308852459017 22.858245245901642 3.75175213327e-05 0.0 0.0 0.0
334 1 62.92591475409837 23.850611147540988 9.70843830123e-05 0.0 0.0 0.0
335 1 65.54896393442624 23.492068852459017 1.38101321059e-05 0.0 0.0 0.0
336 1 68.20937704918033 22.972356721311478 6.70502168145e-05 0.0 0.0 0.0
337 1 70.47241967213115 23.407747540983607 5.72905392602e-05 0.0 0.0 0.0
338 1 73.1580786885246 24.3189731147541 5.22106641758e-05 0.0 0.0 0.0
339 1 76.03863606557378 24.438790163934428 6.91218682549e-05 0.0 0.0 0.0
340 1 78.33146885245903 23.600070819672133 9.08252637677e-05 0.0 0.0 0.0
341 1 81.07771803278689 24.387793442622954 8.56825047786e-05 0.0 0.0 0.0
342 1 0.24945929836065578 25.87023278688525 3.95123960759e-05 0.0 0.0 0.0
343 1 2.8769068196721315 25.88901573770492 3.6586579508e-05 0.0 0.0 0.0
344 1 5.116839344262296 25.609998032786887 5.05166297422e-05 0.0 0.0 0.0
345 1 8.930384262295084 26.14086885245902 4.19726819724e-05 0.0 0.0 0.0
346 1 11.680218360655738 25.713001311475413 9.0712298405e-05 0.0 0.0 0.0
347 1 13.429153442622951 26.5105193442623 1.59004674509e-05 0.0 0.0 0.0
348 1 15.533197377049182 26.176364590163935 9.59522979417e-05 0.0 0.0 0.0
349 1 17.767712131147544 27.675163278688526 5.3357134899e-05 0.0 0.0 0.0
350 1 21.523292459016396 26.591508196721314 7.75454537794e-05 0.0 0.0 0.0
351 1 22.659660983606557 25.584297704918036 1.51716669865e-05 0.0 0.0 0.0
352 1 25.826506885245905 27.541612459016395 4.44337555094e-06 0.0 0.0 0.0
353 1 29.32281180327869 26.22872459016394 3.54732180545e-05 0.0 0.0 0.0
354 1 31.705318032786888 24.879836065573773 7.63954390188e-05 0.0 0.0 0.0
355 1 35.23257442622951 25.825951475409838 4.20958620179e-05 0.0 0.0 0.0
356 1 38.499242622950824 25.671648524590168 4.50019520732e-05 0.0 0.0 0.0
357 1 39.94871081967214 25.275489836065574 9.01668423883e-05 0.0 0.0 0.0
358 1 43.177611147540986 27.149392131147543 5.03486795255e-05 0.0 0.0 0.0
359 1 45.68877049180328 26.65866229508197 2.93580747672e-05 0.0 0.0 0.0
360 1 49.15962754098361 26.119157377049184 6.809803528e-05 0.0 0.0 0.0
361 1 51.80509508196722 25.44913114754099 2.75321131449e-05 0.0 0.0 0.0
362 1 54.15346885245902 27.096830163934428 6.34468616292e-05 0.0 0.0 0.0
363 1 56.490734426229515 25.987070819672134 3.29221607043e-05 0.0 0.0 0.0
364 1 58.87899672131148 24.90023475409836 1.06344908602e-05 0.0 0.0 0.0
365 1 61.165770491803286 26.30673442622951 1.24688785013e-05 0.0 0.0 0.0
366 1 65.45 25.46362229508197 7.22564440419e-05 0.0 0.0 0.0
367 1 66.97030819672132 25.45135278688525 7.17561157672e-05 0.0 0.0 0.0
368 1 69.02633442622951 25.6919462295082 2.99808591135e-05 0.0 0.0 0.0
369 1 71.42419016393443 25.848218360655743 1.34799191889e-06 0.0 0.0 0.0
370 1 73.94928524590165 25.617824262295088 4.79071229488e-05 0.0 0.0 0.0
371 1 77.68618360655739 26.37045508196722 3.4894791319e-07 0.0 0.0 0.0
372 1 80.38194098360657 25.789698360655738 3.57320925722e-06 0.0 0.0 0.0
373 1 1.5468466885245902 28.154582950819673 2.72709513753e-05 0.0 0.0 0.0
374 1 4.247239213114755 28.32610360655738 3.67466168889e-05 0.0 0.0 0.0
375 1 7.075214426229509 28.551650491803283 4.66997266943e-05 0.0 0.0 0.0
376 1 9.208745573770493 28.80703803278689 7.61716389324e-05 0.0 0.0 0.0
377 1 11.823665573770494 28.70393377049181 4.28531926457e-05 0.0 0.0 0.0
378 1 14.29978360655738 28.956796721311477 5.73292055962e-05 0.0 0.0 0.0
379 1 16.85068 28.88085704918033 2.93947197325e-05 0.0 0.0 0.0
380 1 19.04308459016394 28.50131016393443 9.53641212844e-05 0.0 0.0 0.0
381 1 22.538177704918038 29.435257049180333 1.78923209127e-05 0.0 0.0 0.0
382 1 25.103817704918036 28.901053770491806 4.39392872642e-05 0.0 0.0 0.0
383 1 27.28511409836066 27.997250491803282 5.37599484914e-05 0.0 0.0 0.0
384 1 31.24079344262295 27.614876065573775 5.26956033362e-05 0.0 0.0 0.0
385 1 33.007400655737705 28.855813114754103 2.86636532094e-06 0.0 0.0 0.0
386 1 36.90673114754099 28.36008459016394 2.8331216223e-05 0.0 0.0 0.0
387 1 38.44698360655738 28.47278229508197 1.50561609991e-05 0.0 0.0 0.0
388 1 41.32430950819672 29.154522622950825 2.31781648539e-05 0.0 0.0 0.0
389 1 44.8317731147541 29.241116065573774 2.08845546937e-05 0.0 0.0 0.0
390 1 46.842205245901646 27.6631462295082 5.99709879194e-05 0.0 0.0 0.0
391 1 50.63772459016394 27.98336524590164 4.19848130393e-06 0.0 0.0 0.0
392 1 53.36024262295082 28.396287213114757 5.64735229107e-05 0.0 0.0 0.0
393 1 55.94188852459017 28.838847868852465 2.29965084159e-05 0.0 0.0 0.0
394 1 58.92898360655738 27.44481967213115 7.51498332013e-05 0.0 0.0 0.0
395 1 60.44474754098361 27.637799344262298 6.14858255173e-05 0.0 0.0 0.0
396 1 62.446747540983615 27.096880655737706 5.61269552641e-05 0.0 0.0 0.0
397 1 66.02863606557376 28.294647213114757 1.98515226519e-05 0.0 0.0 0.0
398 1 68.23462295081967 28.21476918032787 4.77276385677e-05 0.0 0.0 0.0
399 1 70.58400655737707 28.146756721311476 7.47129359633e-05 0.0 0.0 0.0
400 1 73.17777049180329 28.952757377049185 8.73467944596e-05 0.0 0.0 0.0
401 1 76.05630819672132 28.61602754098361 4.93017182282e-05 0.0 0.0 0.0
402 1 78.81114098360656 28.286619016393445 7.28966859479e-05 0.0 0.0 0.0
403 1 81.44479344262295 28.170891803278693 4.55364292099e-06 0.0 0.0 0.0
404 1 0.3818008393442623 30.275996065573775 9.98906938171e-05 0.0 0.0 0.0
405 1 2.5482960655737705 31.592569836065575 7.05283508398e-05 0.0 0.0 0.0
406 1 5.41504393442623 30.630700983606562 5.37889811818e-05 0.0 0.0 0.0
407 1 8.134885901639345 31.276087213114756 5.77135324866e-05 0.0 0.0 0.0
408 1 10.680127213114755 31.07967409836066 3.18157831947e-05 0.0 0.0 0.0
409 1 12.783969180327869 32.56019475409836 9.27071338231e-06 0.0 0.0 0.0
410 1 16.396203278688525 31.075988196721312 5.21923167699e-05 0.0 0.0 0.0
411 1 17.929487868852462 31.192927213114757 7.24886915262e-05 0.0 0.0 0.0
412 1 20.74622360655738 31.719556721311477 3.96271440316e-05 0.0 0.0 0.0