# input file

2232 atoms
1 atom types

0.0 82.68810555352132 xlo xhi
0.0 83.16 ylo yhi
-10.0 10.0 zlo zhi
0.0 0.0 0.0 xy xz yz

Masses

1 12.0100 #C

Atoms

1 1 1.813705967213115 0.8676410491803279 9.350807144848373e-06
2 1 4.473048655737705 1.0490681967213116 8.401372136489926e-05
3 1 6.796095737704919 1.5081396721311475 5.089673100639155e-05
4 1 9.393444590163934 1.818442098360656 1.4374279342670794e-05
5 1 12.232346229508199 0.9821110163934427 7.608498819428246e-05
6 1 15.68649049180328 0.8235718032786886 7.659333084639477e-05
7 1 17.655620327868856 2.3551194754098366 3.074171881660951e-05
8 1 20.367686557377052 1.1959135081967214 9.928496313710267e-05
9 1 23.114996065573774 0.8806729836065574 8.044296956798608e-05
10 1 25.391469508196725 0.5910721967213116 8.269151266948304e-05
11 1 27.984829508196725 83.11657704918034 5.951784652683022e-05
12 1 31.21085180327869 82.97923934426231 8.455675454629081e-05
13 1 33.90766950819672 82.76565901639346 2.016371423361315e-05
14 1 36.40827606557377 82.86765245901641 4.265674569737844e-05
15 1 39.01415803278689 0.2702528327868853 1.7846700169876594e-05
16 1 41.67684327868852 0.8160838688524591 1.1528657038895984e-05
17 1 44.246371147540984 0.8729578360655739 2.3477741416769463e-05
18 1 47.05921901639345 0.8530590163934427 8.63871972946184e-05
19 1 49.78784655737706 1.1250432131147543 7.334278777038261e-06
20 1 52.478655737704926 1.4496146229508198 9.159278462946661e-05
21 1 55.42333770491803 1.278861442622951 1.1100444106606712e-06
22 1 58.1776655737705 0.7992700983606558 4.0158696177008955e-05
23 1 59.66565901639345 1.165174098360656 6.544542562886402e-05
24 1 62.38615737704919 1.3343115409836066 3.956102944363705e-05
25 1 65.19855081967214 0.9874984918032788 9.38045760989072e-05
26 1 68.10536393442622 1.0044435409836066 6.0561114788524773e-05
27 1 71.0020786885246 0.9076204590163935 7.652061451704419e-05
28 1 73.81901639344262 1.3273537704918033 9.926542889010117e-05
29 1 76.4153049180328 1.320592918032787 1.8766405088775986e-05
30 1 79.23224262295082 0.896668786885246 2.3321663013469097e-05
31 1 81.90477377049181 0.7475260983606559 4.003386961364346e-05
32 1 0.5657859016393443 3.090169049180328 2.2601423798011223e-05
33 1 3.236903278688525 3.181766229508197 3.795559552103406e-05
34 1 5.651143606557377 3.7661028196721316 4.7869321045669215e-05
35 1 8.246826229508196 3.954512983606558 1.7629092379744737e-05
36 1 10.250340983606558 3.0836152131147547 2.9850558174461106e-05
37 1 13.42233704918033 1.91291731147541 7.936526926732378e-05
38 1 16.517888524590166 3.401092524590164 2.774293654459633e-05
39 1 18.87580524590164 3.7256134426229512 6.963705607414902e-05
40 1 21.922834098360656 3.308359278688525 8.203571588347603e-05
41 1 24.705740327868856 3.253207081967213 2.2284708322430747e-05
42 1 27.128185573770494 2.472285704918033 5.325732807930761e-05
43 1 28.897216393442623 1.1748331803278689 9.511603153927635e-05
44 1 32.58564262295082 1.9033844590163937 5.111716212898389e-05
45 1 34.9433068852459 2.037929967213115 7.766226298812629e-05
46 1 37.346110819672134 2.240593967213115 5.1553605631206046e-05
47 1 39.973300327868856 2.780517967213115 9.286298001291718e-05
48 1 42.84870754098361 3.290727540983607 9.61499966756803e-05
49 1 45.42166885245902 3.03211862295082 2.912422759720139e-05
50 1 48.136158688524596 3.2590641311475417 7.544878248698673e-06
51 1 51.199698360655745 3.6209792786885253 7.326033828889428e-05
52 1 53.95554098360656 3.3793860983606563 4.0978022229547806e-05
53 1 56.64624918032787 3.898012655737705 9.380044776257202e-05
54 1 59.3132262295082 3.4257729180327874 9.382124141445523e-05
55 1 60.87140327868853 3.4528971147540988 8.350493491616484e-05
56 1 63.64390819672132 3.267319540983607 5.7197152405431945e-05
57 1 66.50174426229509 3.014027409836066 3.168594373786485e-05
58 1 69.27475409836066 3.01032131147541 5.101198999272779e-05
59 1 72.13915409836066 3.3278743606557377 7.396974795205902e-05
60 1 75.61753442622951 3.616934885245902 1.6361998568327518e-05
61 1 78.2976393442623 3.131834885245902 4.999125022616424e-05
62 1 80.91664918032788 3.0888209180327872 7.600942569002626e-05
63 1 1.7446281311475411 5.343345573770492 3.541276321157815e-05
64 1 4.234737442622951 6.718388852459017 5.562370596792853e-05
65 1 7.1830649180327875 6.187215081967214 1.601177546951773e-05
66 1 10.136481967213117 6.008575081967214 7.200087839410801e-05
67 1 13.715845901639346 4.557213442622952 6.524982667977144e-05
68 1 14.434748196721314 6.84224524590164 6.471552816413543e-05
69 1 17.31358885245902 6.0038793442622955 4.062931826624766e-05
70 1 19.591728524590167 5.052462295081968 9.565790929982058e-05
71 1 22.824971147540985 4.552204655737705 9.755671197840246e-05
72 1 26.336928524590167 5.156929836065574 6.640143777238428e-06
73 1 29.308017704918036 4.037748721311476 2.2393279092289e-05
74 1 30.81484459016394 3.8777856393442627 6.916894027385491e-05
75 1 33.313835409836074 4.392478885245902 3.272440356452902e-05
76 1 35.622017704918036 4.526590163934427 1.5147494587369582e-05
77 1 38.19528196721312 4.703579081967214 7.934404643429463e-05
78 1 40.62893639344262 4.167512655737705 6.353094780187065e-05
79 1 43.88000262295082 5.482955409836066 2.058458516665459e-05
80 1 46.47013114754099 5.340215081967213 4.034842222927059e-05
81 1 48.876671475409836 4.611381049180328 8.568668093918211e-05
82 1 53.14363278688525 5.595905573770493 3.4018400811906436e-05
83 1 54.66040655737705 5.7469770491803285 8.154362223891774e-05
84 1 56.886590163934436 6.543939672131148 5.3102361329242745e-05
85 1 59.84339016393443 6.126170491803279 6.0146617241600025e-05
86 1 62.657298360655744 5.557986229508197 5.99149805382796e-06
87 1 65.56714098360656 5.126988196721312 9.926507790037511e-05
88 1 67.3252655737705 6.501324590163935 2.3705240679649653e-05
89 1 71.2868524590164 5.775706885245902 8.603441093187446e-05
90 1 73.29390163934427 4.396245573770492 2.551849749951898e-05
91 1 77.99064918032786 5.27992786885246 5.7408228661382834e-05
92 1 79.51550163934427 5.405500983606558 1.9268381706748084e-05
93 1 0.19853579016393444 5.394998688524591 6.611669489803541e-06
94 1 0.28306361311475414 7.887274098360657 8.884769791016656e-05
95 1 3.188486688524591 7.843194754098361 1.1302374712814501e-05
96 1 5.673006557377049 8.388960655737705 5.884197125489672e-05
97 1 8.778100983606558 8.168260983606558 3.718430644521708e-05
98 1 11.544243934426232 8.203807213114755 4.028257021211661e-05
99 1 14.229600000000001 8.359675409836067 9.46229317945672e-05
100 1 16.84492393442623 8.09928918032787 6.149532548561713e-05
101 1 19.934820327868852 7.389626885245903 2.4780205047872995e-05
102 1 22.079661639344263 8.647781639344263 5.025043606441835e-05
103 1 25.483162622950825 7.576547540983607 7.92939912293483e-05
104 1 27.00584393442623 7.449661639344264 5.1744619094913685e-05
105 1 30.014801967213117 6.656233442622952 6.134784756012306e-05
106 1 31.512136393442628 6.416548852459017 4.94023986671989e-05
107 1 33.88737180327869 6.8986445901639355 1.2401346397288493e-05
108 1 36.501786885245906 6.898291147540984 1.1499417781888999e-05
109 1 39.401581639344265 6.797862950819673 7.728807688202101e-05
110 1 42.14111540983607 7.749128524590165 8.441888670288363e-05
111 1 45.197030819672136 7.7444327868852465 7.53523240829377e-05
112 1 47.87501508196722 7.3423665573770505 4.8120894899731474e-05
113 1 50.33618754098361 7.905198688524591 9.356050760482282e-05
114 1 52.83209836065575 8.291460983606557 1.4699258438705487e-05
115 1 55.73032786885246 8.56093573770492 5.911691288790339e-05
116 1 57.813114754098365 7.732516721311476 6.318185847971005e-05
117 1 61.495481967213124 7.805628852459017 5.273365535844742e-05
118 1 63.4944524590164 6.856584918032787 9.96216132244523e-05
119 1 68.8228524590164 6.17888393442623 9.828615370768371e-05
120 1 70.82990163934427 7.205786229508198 1.431733040134452e-05
121 1 73.20655081967213 7.307123278688525 4.095068834781418e-05
122 1 75.55896393442623 7.745594098360656 9.506404210993725e-05
123 1 78.02649836065574 7.763670163934426 3.6344760279424896e-05
124 1 80.50009180327869 9.074336393442625 3.617987305118722e-05
125 1 1.903379409836066 9.91573180327869 3.474918316037211e-05
126 1 4.2073809836065585 10.438978360655739 9.927268642589676e-05
127 1 6.489862950819673 9.671300983606558 2.6545434365183865e-06
128 1 10.143096393442624 10.346729836065576 9.963482171677586e-05
129 1 12.060926557377051 9.681601311475411 5.900737834431261e-05
130 1 15.823474754098362 10.4620531147541 2.6209487046378535e-05
131 1 17.98654360655738 9.124323278688527 4.0183821309494554e-05
132 1 20.828676721311478 11.099411147540986 2.1124893783968525e-05
133 1 23.49378557377049 10.755561967213117 8.81058424177872e-05
134 1 25.845542295081973 10.414590819672133 6.0253063747220793e-05
135 1 28.153876065573776 9.88876918032787 4.964678232701403e-06
136 1 30.65458360655738 9.357342950819673 3.3170901791236164e-05
137 1 32.86678098360656 9.050100327868853 5.990899709991935e-05
138 1 36.82266229508197 9.334571147540984 1.4652426832626275e-05
139 1 38.23148459016394 8.755531147540983 3.124314309107404e-05
140 1 41.01418885245902 10.463466885245902 3.957196307916401e-05
141 1 42.98841836065574 9.036467540983606 4.268435856219939e-05
142 1 46.514563934426235 9.748603934426232 1.7865992460476844e-05
143 1 48.426436065573775 11.214936393442624 3.8069870405795004e-05
144 1 51.22645901639345 10.480078688524591 1.176153396322559e-05
145 1 54.516504918032794 10.432515409836066 5.126244572401848e-05
146 1 58.48112131147541 10.003335081967215 7.51777951178311e-05
147 1 60.04232786885247 10.195910819672132 9.439695142405547e-06
148 1 62.80877377049181 9.84261967213115 8.30766525221227e-05
149 1 65.69942950819673 9.000012459016395 9.871292586711831e-05
150 1 69.52115409836065 9.096451803278688 8.510582577825519e-05
151 1 71.01823606557377 9.356989508196722 5.023768689997341e-05
152 1 73.57514098360657 9.841862295081969 4.081221297580856e-05
153 1 76.65261639344264 10.188438032786886 5.58333129128715e-05
154 1 80.09868196721312 10.547283278688525 2.7364553723118204e-05
155 1 0.40978895081967215 10.192729836065576 9.987946125879338e-05
156 1 0.7929737704918034 13.049960000000002 6.212717652698514e-05
157 1 3.113819409836066 12.655164590163936 5.95263720143461e-05
158 1 5.743947540983607 12.462740327868854 3.04795628815681e-05
159 1 8.560279344262296 12.363019016393443 2.6292851153885222e-05
160 1 11.371360000000001 12.690508852459018 2.7884774367324786e-05
161 1 14.622123278688525 12.550343606557378 7.66834199678435e-05
162 1 17.433607868852462 12.03128786885246 1.1976901580221433e-05
163 1 20.09392 12.441432786885247 2.3807032561789546e-05
164 1 22.340502295081972 13.146399344262296 5.229563675818858e-05
165 1 24.85878098360656 13.061674098360657 2.795071140491742e-05
166 1 28.351601967213117 12.203262950819674 5.1611854375222945e-05
167 1 29.88372524590164 11.890567213114755 4.7881869457494e-05
168 1 32.45926163934426 12.96185180327869 3.1381196239715284e-05
169 1 35.229645901639344 11.773173770491805 6.595760577224242e-05
170 1 37.61629245901639 11.740909508196722 5.261405458711055e-06
171 1 40.543554754098366 11.960548852459016 4.306150792283693e-05
172 1 42.88854557377049 12.00276 4.9552350772050406e-05
173 1 45.10766032786886 13.26561049180328 6.691940127679868e-05
174 1 47.864310819672134 12.63612918032787 6.260388130642028e-05
175 1 50.06600590163935 12.797400000000001 6.850096675662797e-05
176 1 52.02978360655739 11.781858360655738 7.640033383080131e-05
177 1 55.44252459016394 12.296672786885248 8.560555037278533e-05
178 1 58.02265573770493 12.569833442622953 1.3046256105304866e-05
179 1 61.405606557377055 12.379883278688526 3.1584788685136325e-05
180 1 65.02334426229508 11.213068196721313 8.91536888298486e-05
181 1 66.53860327868854 11.343438032786887 6.446539821804059e-05
182 1 69.15710819672132 11.547828852459018 4.849091024012731e-05
183 1 71.81600655737707 11.834218360655738 9.780160656764462e-05
184 1 74.0507737704918 11.288048524590165 6.394629962583554e-07
185 1 77.5008786885246 11.450581639344264 6.951892094622314e-05
186 1 80.77274754098362 12.900504262295083 7.547161882783823e-05
187 1 2.4653127868852462 15.335673442622952 6.964936436579942e-05
188 1 4.573562688524591 14.881903606557378 6.498823423463642e-05
189 1 6.9839757377049185 14.527400655737706 7.903701232021848e-05
190 1 9.71245180327869 14.641764590163936 6.17282051752895e-05
191 1 12.141713442622953 14.058786229508197 6.934176526652711e-05
192 1 16.816396065573773 14.19582098360656 5.627193169990022e-05
193 1 18.321203278688525 14.429295081967215 6.121851341541588e-05
194 1 20.638524590163936 15.218229508196723 8.636309193701043e-05
195 1 23.17210229508197 15.441958688524593 1.2184743151927991e-05
196 1 25.801160000000003 15.201365245901641 3.0690308581651984e-05
197 1 28.35387409836066 15.044992131147543 5.2529932279307355e-06
198 1 32.76201049180328 14.497963934426231 7.914099685185465e-05
199 1 34.24106688524591 14.135887213114756 4.397932166791346e-05
200 1 36.7522262295082 14.166838688524592 3.6613440607505955e-05
201 1 38.8551593442623 15.013687213114755 2.3531435122286572e-05
202 1 41.72284131147542 14.628636721311477 1.8914232353346916e-05
203 1 45.12245442622951 14.802025573770493 9.824953293301022e-05
204 1 46.633169180327876 15.011364590163936 4.6725652883513126e-05
205 1 48.99780131147541 15.280637377049182 9.0880511990213e-05
206 1 51.466800000000006 14.75870360655738 5.538140886987297e-05
207 1 54.2852524590164 14.519776393442624 8.168337336337862e-05
208 1 57.005245901639356 14.639189508196724 7.128469985791075e-05
209 1 59.62678032786886 14.923559344262296 1.6379393476723026e-05
210 1 62.96277377049181 14.456611147540984 1.5370555953072763e-05
211 1 65.30559344262295 13.680047213114754 7.965764479471796e-05
212 1 68.09425573770493 13.69681049180328 7.870765887223659e-05
213 1 70.8167737704918 13.91978229508197 1.7453301295498603e-06
214 1 73.23583606557378 14.053838032786887 4.280969726272644e-05
215 1 75.89776393442624 13.949824918032789 2.0948307808937007e-05
216 1 78.90455081967214 14.599452459016396 9.708218036009553e-06
217 1 81.57556721311477 15.064431475409837 1.4463062105367465e-05
218 1 82.34102295081968 17.315608524590164 8.034424539374835e-05
219 1 1.514789442622951 16.52344262295082 8.576577722996752e-05
220 1 5.638318688524591 17.117024262295082 7.404553360500724e-05
221 1 8.268083278688525 16.746919344262295 9.425768137354684e-06
222 1 10.42736524590164 15.99060262295082 3.199350684546296e-05
223 1 13.867472786885248 16.478454426229508 9.742491452059144e-05
224 1 16.255129180327874 16.852043278688527 7.543545795892733e-05
225 1 18.840612459016395 17.196144918032786 1.5053906590933842e-05
226 1 21.346167213114757 17.65733704918033 6.155775120989516e-05
227 1 25.066554754098362 17.51065836065574 1.0751701945134684e-05
228 1 26.590750819672134 17.378672786885247 6.863111709864867e-06
229 1 29.012388196721314 17.401192131147543 8.714729732859885e-05
230 1 31.066293770491807 16.39181049180328 4.033998690594914e-05
231 1 35.14219409836066 16.534550819672134 9.95203250056477e-05
232 1 38.03623278688525 16.308902950819675 6.522320733298182e-05
233 1 39.93497704918033 18.10858229508197 6.605668380452203e-05
234 1 42.7075324590164 17.355699016393444 8.763954190739448e-05
235 1 45.062621639344265 17.466427540983606 1.7482967148627318e-05
236 1 47.84037770491804 17.64572393442623 5.4996468055334684e-05
237 1 50.404048524590166 17.421590819672133 6.359099216857441e-05
238 1 53.008314754098365 16.70642491803279 8.960699956889784e-06
239 1 55.916642622950825 16.74979737704918 1.8709324600711998e-05
240 1 59.40461639344263 16.47996918032787 6.153516893821562e-05
241 1 61.8464 17.644865573770492 9.916972716631589e-05
242 1 65.36062950819674 16.07351016393443 1.3487293122318023e-05
243 1 66.84761311475411 15.796360655737706 4.366933624325935e-05
244 1 69.50095737704919 15.985502950819674 6.117712470040864e-05
245 1 72.21943606557379 16.461893114754098 1.6054317552297282e-05
246 1 75.15048524590163 16.158689836065577 7.83705627904279e-05
247 1 76.44509508196722 15.363948852459018 2.7263020111530645e-05
248 1 79.72554754098361 16.968073442622952 4.022168012145415e-05
249 1 0.5208784918032787 19.409200655737706 2.0451224556904302e-05
250 1 3.7950093770491806 19.200215081967215 4.461001817209084e-05
251 1 7.892373770491804 18.947301639344264 7.163911525318819e-05
252 1 9.434696393442625 18.84344 6.677599691421146e-05
253 1 12.684702295081967 18.63591868852459 9.377453968265523e-05
254 1 14.197588196721313 18.89781967213115 7.485083701337813e-05
255 1 16.77292262295082 19.192085901639345 6.94686837875605e-05
256 1 19.330584918032788 19.71709967213115 8.490231457575626e-06
257 1 21.981909508196726 20.057262950819673 7.528113149860549e-05
258 1 24.77107672131148 20.027018360655738 9.849692944362295e-05
259 1 27.674860327868856 19.850953442622952 4.2187096209167675e-05
260 1 30.49442360655738 19.31558885245902 7.929003905136369e-05
261 1 33.68106229508197 18.781284590163935 5.468656174867837e-05
262 1 36.447053770491806 18.50307475409836 3.609092479662013e-07
263 1 39.00304983606558 19.31367016393443 4.148095486957804e-06
264 1 41.590199344262295 19.722855737704922 4.810440461142188e-05
265 1 44.00956459016394 19.936335081967215 8.847028479536712e-05
266 1 46.57338688524591 19.78869704918033 1.1682155240988368e-06
267 1 49.36422032786886 19.9600662295082 1.1129157967789905e-05
268 1 53.006800000000005 18.805672131147542 4.1228511647504765e-05
269 1 54.52306885245902 18.66308327868853 1.5805927587302848e-05
270 1 56.99615737704919 17.827342950819673 6.722549637924914e-05
271 1 61.23999344262296 19.037278032786887 9.416817113387913e-05
272 1 63.680767213114756 19.294533770491807 5.4174262933050346e-05
273 1 65.9584524590164 18.505700327868855 8.519739962935849e-05
274 1 68.49718032786886 18.092879344262297 9.154621348237457e-05
275 1 70.85413770491805 19.4549462295082 5.015232352279421e-05
276 1 72.98792131147542 20.214797377049184 3.246473603798824e-05
277 1 76.08710819672132 18.600422950819677 1.7624892576044826e-05
278 1 77.65033442622952 18.646925901639346 6.766504964739024e-05
279 1 81.69624262295082 19.173959344262297 1.0466665525509234e-05
280 1 81.34027540983608 21.209031475409837 9.463136635175288e-05
281 1 1.1859110819672134 20.788586229508198 8.747737989306306e-05
282 1 4.814868065573771 21.336422295081967 6.402172829391773e-06
283 1 7.35201049180328 21.33768459016394 8.978033887643441e-05
284 1 10.077810491803278 21.413472786885247 2.0492847814027695e-05
285 1 12.530449836065575 21.564342295081968 5.7076949404712474e-05
286 1 15.289271475409837 21.39610360655738 3.5242079625346645e-06
287 1 17.60800655737705 22.75519147540984 2.1797623332883964e-05
288 1 20.403232786885248 22.174535737704918 1.978217822326569e-05
289 1 23.152915409836066 22.18301836065574 8.007532271303458e-05
290 1 26.042409836065577 22.02013180327869 3.747298876684904e-05
291 1 30.286700327868857 21.209586885245905 6.812902102208484e-05
292 1 31.58317836065574 20.38545967213115 1.7972075239864394e-05
293 1 35.218487213114756 20.802622950819675 1.9212860040068525e-05
294 1 37.468957377049186 22.2669862295082 2.8732155685889672e-05
295 1 40.37748721311476 21.772419016393446 3.771918234869989e-05
296 1 42.29612524590164 23.522616393442625 1.46398261083031e-05
297 1 45.530125245901644 22.2522931147541 9.42660804799694e-05
298 1 48.16872590163935 22.032552786885248 5.861967734319273e-05
299 1 50.32109049180328 21.20362885245902 9.553217648669338e-05
300 1 54.15599344262296 21.35762885245902 7.780468945044323e-05
301 1 56.39782950819673 20.474173770491806 2.349905881212332e-05
302 1 58.64219016393443 19.373805901639344 6.864443858621334e-05
303 1 62.11956065573771 21.52112131147541 5.598840019735111e-05
304 1 65.90695081967213 21.043216393442624 5.0109772540659595e-05
305 1 67.3636393442623 20.61211737704918 9.966639668102633e-05
306 1 69.93973114754098 20.702851147540986 7.486870928777439e-05
307 1 72.29062950819673 21.56580655737705 9.289452798250683e-05
308 1 74.50469508196721 22.136565901639347 6.381308892717204e-05
309 1 76.43499672131148 21.54667016393443 8.997166472258695e-05
310 1 78.86567213114755 21.092142950819674 5.421210410819912e-05
311 1 0.7300155409836067 24.424046557377054 2.8531194194474752e-05
312 1 3.2373324590163937 23.310096393442624 3.424503562742684e-05
313 1 5.856544262295083 23.661418360655738 1.5915087070365352e-05
314 1 8.863634098360658 23.581136393442627 4.845439414669259e-05
315 1 10.219641967213116 25.266199344262297 4.359805843122964e-05
316 1 14.02329049180328 23.811379016393445 1.8836940609283994e-05
317 1 16.726621639344266 24.005873442622953 6.62775340634351e-05
318 1 19.284889836065574 24.56042491803279 4.88832796415022e-05
319 1 21.728541639344265 24.3867331147541 9.528771322184184e-05
320 1 24.76259409836066 24.091961967213116 6.97899977721935e-05
321 1 26.91622098360656 23.28141704918033 2.3285266599928645e-05
322 1 30.47569114754099 23.988352786885248 7.73656104211552e-05
323 1 34.02874885245902 23.26647147540984 1.6013919732836082e-05
324 1 36.562730491803286 23.503025573770493 4.9497026530869404e-05
325 1 39.28272393442624 23.91205967213115 5.803768626229312e-05
326 1 41.91173114754099 24.99354360655738 3.764140524856693e-05
327 1 43.66995672131148 24.169416393442628 7.21999109946903e-05
328 1 47.131119344262295 24.384662950819674 6.120432078600215e-05
329 1 49.10802491803279 23.239306885245902 8.18000865722712e-05
330 1 53.06284590163935 23.74801180327869 3.247375233582515e-05
331 1 56.38672131147541 23.10621049180328 5.4358803909804154e-05
332 1 57.702032786885255 22.290262950819674 3.191989225080122e-05
333 1 60.22308852459017 22.858245245901642 7.817797803600827e-05
334 1 62.92591475409837 23.850611147540988 7.949617047495217e-05
335 1 65.54896393442624 23.492068852459017 4.4475633096236524e-05
336 1 68.20937704918033 22.972356721311478 5.842255843407105e-05
337 1 70.47241967213115 23.407747540983607 8.389128078746691e-05
338 1 73.1580786885246 24.3189731147541 6.811907990448887e-05
339 1 76.03863606557378 24.438790163934428 1.6854418859392918e-05
340 1 78.33146885245903 23.600070819672133 6.8373293511447054e-06
341 1 81.07771803278689 24.387793442622954 9.85396408092853e-05
342 1 0.24945929836065578 25.87023278688525 4.234830842638323e-05
343 1 2.8769068196721315 25.88901573770492 4.144944579532658e-05
344 1 5.116839344262296 25.609998032786887 3.460350129208916e-05
345 1 8.930384262295084 26.14086885245902 8.825107694837243e-05
346 1 11.680218360655738 25.713001311475413 7.240567909433329e-05
347 1 13.429153442622951 26.5105193442623 9.502989857063176e-05
348 1 15.533197377049182 26.176364590163935 5.151555790480618e-05
349 1 17.767712131147544 27.675163278688526 1.1049986348630481e-05
350 1 21.523292459016396 26.591508196721314 3.266154064862158e-05
351 1 22.659660983606557 25.584297704918036 9.225137880340208e-05
352 1 25.826506885245905 27.541612459016395 4.866563040907928e-05
353 1 29.32281180327869 26.22872459016394 4.9420493790615294e-05
354 1 31.705318032786888 24.879836065573773 6.308717043084908e-05
355 1 35.23257442622951 25.825951475409838 7.773300759649881e-05
356 1 38.499242622950824 25.671648524590168 2.2472340690745154e-05
357 1 39.94871081967214 25.275489836065574 8.012446655303291e-05
358 1 43.177611147540986 27.149392131147543 8.22334914462721e-05
359 1 45.68877049180328 26.65866229508197 4.1032865047738034e-05
360 1 49.15962754098361 26.119157377049184 4.992521688083745e-05
361 1 51.80509508196722 25.44913114754099 9.897697404579928e-05
362 1 54.15346885245902 27.096830163934428 7.906143348764406e-05
363 1 56.490734426229515 25.987070819672134 9.612866813554034e-05
364 1 58.87899672131148 24.90023475409836 7.884278339223867e-05
365 1 61.165770491803286 26.30673442622951 7.384125024128573e-05
366 1 65.45 25.46362229508197 9.727947290388472e-06
367 1 66.97030819672132 25.45135278688525 7.892750405086233e-05
368 1 69.02633442622951 25.6919462295082 6.933079844615398e-06
369 1 71.42419016393443 25.848218360655743 3.741921377365097e-05
370 1 73.94928524590165 25.617824262295088 2.4655798035166944e-05
371 1 77.68618360655739 26.37045508196722 5.165982717684081e-05
372 1 80.38194098360657 25.789698360655738 5.980634415311914e-05
373 1 1.5468466885245902 28.154582950819673 7.038706800674284e-05
374 1 4.247239213114755 28.32610360655738 3.647532849925915e-05
375 1 7.075214426229509 28.551650491803283 5.318276302735662e-05
376 1 9.208745573770493 28.80703803278689 9.673469973033797e-05
377 1 11.823665573770494 28.70393377049181 4.3866695656917735e-05
378 1 14.29978360655738 28.956796721311477 2.7558697387022604e-05
379 1 16.85068 28.88085704918033 9.452133724956015e-05
380 1 19.04308459016394 28.50131016393443 1.4536392103386887e-05
381 1 22.538177704918038 29.435257049180333 2.614987087703735e-06
382 1 25.103817704918036 28.901053770491806 8.379983004352887e-05
383 1 27.28511409836066 27.997250491803282 6.987910100903405e-06
384 1 31.24079344262295 27.614876065573775 5.060588594829064e-05
385 1 33.007400655737705 28.855813114754103 9.123998394393489e-05
386 1 36.90673114754099 28.36008459016394 1.3581274021173906e-05
387 1 38.44698360655738 28.47278229508197 6.670222534717336e-05
388 1 41.32430950819672 29.154522622950825 8.785897369636256e-05
389 1 44.8317731147541 29.241116065573774 3.564542427729807e-05
390 1 46.842205245901646 27.6631462295082 1.646903310258934e-05
391 1 50.63772459016394 27.98336524590164 6.79312266413221e-05
392 1 53.36024262295082 28.396287213114757 9.11464187454466e-06
393 1 55.94188852459017 28.838847868852465 7.961145703609699e-05
394 1 58.92898360655738 27.44481967213115 1.318196859478209e-05
395 1 60.44474754098361 27.637799344262298 2.877276389722273e-05
396 1 62.446747540983615 27.096880655737706 2.5436069228262617e-05
397 1 66.02863606557376 28.294647213114757 3.709848806648999e-05
398 1 68.23462295081967 28.21476918032787 7.467257591936887e-05
399 1 70.58400655737707 28.146756721311476 3.945984465861847e-05
400 1 73.17777049180329 28.952757377049185 9.378695438449702e-05
401 1 76.05630819672132 28.61602754098361 3.0691502267213566e-05
402 1 78.81114098360656 28.286619016393445 1.3409668686760513e-05
403 1 81.44479344262295 28.170891803278693 4.3003847951927324e-05
404 1 0.3818008393442623 30.275996065573775 5.577020443602585e-05
405 1 2.5482960655737705 31.592569836065575 5.3407549604165386e-05
406 1 5.41504393442623 30.630700983606562 1.3250902446449975e-05
407 1 8.134885901639345 31.276087213114756 1.621844812958736e-05
408 1 10.680127213114755 31.07967409836066 1.098526539552488e-05
409 1 12.783969180327869 32.56019475409836 5.1831890030147265e-05
410 1 16.396203278688525 31.075988196721312 3.7172264717292814e-05
411 1 17.929487868852462 31.192927213114757 3.658393656212633e-06
412 1 20.74622360655738 31.719556721311477 3.219894994271476e-05
413 1 24.254192131147544 31.503552786885248 7.785452810117117e-05
414 1 26.97055016393443 30.78167147540984 3.04228314590852e-05
415 1 29.696602622950824 30.103112131147544 8.914534276110387e-05
416 1 32.36605377049181 30.25125508196722 4.234743572327876e-05
417 1 34.56562819672131 30.9727324590164 5.097419081177856e-06
418 1 37.09546950819672 32.07345377049181 3.42436473429909e-05
419 1 39.834599344262294 30.85599540983607 3.807497220648618e-05
420 1 42.36580393442623 30.323609836065575 2.6641402735509635e-06
421 1 47.34868852459017 30.28952786885246 8.938456371183479e-06
422 1 48.88707278688525 30.135123934426232 5.606659352935882e-05
423 1 52.32869508196722 30.28639737704918 2.2712508499603656e-05
424 1 53.78437377049181 29.85423803278689 5.1090077751002706e-05
425 1 57.969134426229516 30.78429704918033 1.7385266373878284e-05
426 1 59.430872131147545 30.37667672131148 5.186323622923667e-05
427 1 62.72394754098361 29.617179016393447 2.3931520171087673e-05
428 1 64.13266885245902 30.22600918032787 6.818037673362257e-05
429 1 66.80873442622952 30.798737704918036 3.951477828459313e-05
430 1 69.57921967213116 30.702500327868854 2.8438057289579613e-05
431 1 72.34970491803278 30.225857704918038 3.821257206156437e-06
432 1 73.43679344262297 32.08991409836066 5.525755725056031e-05
433 1 77.56348852459018 30.699672786885248 8.022030615203073e-05
434 1 80.33548852459018 30.53224196721312 1.918316501191908e-05
435 1 1.748440262295082 32.91585901639345 6.30181180582435e-05
436 1 3.966873377049181 32.93312721311476 3.8803194530711974e-05
437 1 6.485571147540984 33.11575606557377 6.197030342330993e-05
438 1 9.470444590163934 33.62643016393443 8.512809458248033e-05
439 1 12.149186229508198 33.97416721311476 1.1130750213055653e-05
440 1 14.40864393442623 34.35644065573771 2.14047507134829e-05
441 1 16.89930360655738 33.52272 4.571017185557659e-05
442 1 19.69816524590164 34.21072131147541 9.23456016171405e-05
443 1 21.93399278688525 32.71015540983607 3.249190039593028e-05
444 1 26.551215737704922 33.04128065573771 7.440237091107483e-05
445 1 28.00154229508197 32.52212393442623 3.747865224301916e-06
446 1 31.384846557377053 32.39680327868852 1.339384036900877e-05
447 1 32.782914098360656 33.014469508196726 6.271467809479101e-05
448 1 36.23155475409836 33.34327213114755 2.4457721006910527e-05
449 1 38.89701704918033 33.27849114754098 4.448567739792978e-05
450 1 41.44725704918034 32.958272131147545 7.301909321548706e-05
451 1 44.16326163934427 33.00270491803279 3.076736389733114e-05
452 1 47.94242163934427 32.39942885245902 1.7721194602103165e-05
453 1 49.48297704918033 32.6442131147541 4.062516473841376e-05
454 1 52.11561967213115 32.97665114754099 2.369314374008893e-05
455 1 55.04919344262296 33.127773114754106 8.135488493555023e-05
456 1 57.890872131147546 33.40674032786885 8.343742771943015e-05
457 1 61.40358688524591 32.68990819672131 5.331629723068221e-07
458 1 62.86734426229509 32.24340918032787 7.659978118717903e-05
459 1 65.00769180327869 33.87828327868853 7.382060087165199e-06
460 1 68.02710163934428 32.994373770491805 5.0120068522788376e-05
461 1 71.90739672131147 32.419625573770496 5.3148758653081884e-06
462 1 74.95407213114756 32.32656918032787 3.208756513992292e-05