ITEM: TIMESTEP
0
ITEM: NUMBER OF ATOMS
2232
ITEM: BOX BOUNDS xy xz yz pp pp pp
0.0 82.68810555352132 0
0.0 83.16 0
-10.0 10.0 0
ITEM: ATOMS id type x y z vx vy vz
1 1 0.9471656393442623 0.4772162098360656 7.869577212e-05 0.0 0.0 0.0
2 1 3.500859278688525 1.465817442622951 4.10428370809e-05 0.0 0.0 0.0
3 1 6.320008524590165 0.8384416393442624 7.02087126133e-05 0.0 0.0 0.0
4 1 9.324826229508197 0.906181442622951 4.78709784266e-06 0.0 0.0 0.0
5 1 12.483946885245903 1.0675885901639346 1.42664363695e-05 0.0 0.0 0.0
6 1 14.383600000000001 0.3464459737704918 8.93923757404e-05 0.0 0.0 0.0
7 1 17.06956196721312 83.15242622950821 4.29601789822e-05 0.0 0.0 0.0
8 1 19.69932655737705 0.3478557049180328 9.4959666534e-05 0.0 0.0 0.0
9 1 22.347975081967213 0.9547545573770493 3.68443438039e-05 0.0 0.0 0.0
10 1 24.872868196721313 1.4035459016393443 3.76083227068e-05 0.0 0.0 0.0
11 1 27.551104918032788 1.5620598688524592 8.11354998161e-05 0.0 0.0 0.0
12 1 30.92880459016394 0.737044 5.30293278098e-05 0.0 0.0 0.0
13 1 32.442700327868856 0.8405168524590165 1.90638728124e-05 0.0 0.0 0.0
14 1 34.83343672131148 1.0515826885245902 4.19457060801e-06 0.0 0.0 0.0
15 1 37.37029639344263 1.096671868852459 1.86605513602e-05 0.0 0.0 0.0
16 1 40.00657442622951 2.240912065573771 1.12011892893e-05 0.0 0.0 0.0
17 1 42.75928655737705 0.8903472131147542 4.22747679683e-05 0.0 0.0 0.0
18 1 45.55299803278689 0.4078859147540984 4.86907074068e-05 0.0 0.0 0.0
19 1 48.19366885245902 0.3501303606557377 9.08446691547e-05 0.0 0.0 0.0
20 1 50.890688524590175 0.6115314754098361 9.85632654362e-05 0.0 0.0 0.0
21 1 53.67480655737705 0.1790060655737705 5.50460923328e-05 0.0 0.0 0.0
22 1 55.29407868852459 2.0337997377049186 1.44201128453e-05 0.0 0.0 0.0
23 1 59.04814426229509 1.0817969836065575 7.32484397754e-05 0.0 0.0 0.0
24 1 62.86078032786886 0.8081314098360656 4.30779110882e-05 0.0 0.0 0.0
25 1 66.65170491803279 1.3360888524590164 3.87052017725e-05 0.0 0.0 0.0
26 1 65.96552131147541 83.14838688524591 1.99944784654e-05 0.0 0.0 0.0
27 1 69.34544262295083 0.800305180327869 3.93852181319e-05 0.0 0.0 0.0
28 1 72.12097704918033 0.873488 7.84783337506e-05 0.0 0.0 0.0
29 1 74.86621639344263 0.9894727213114756 4.04052868378e-06 0.0 0.0 0.0
30 1 77.6508393442623 0.9359615081967214 6.12560482407e-05 0.0 0.0 0.0
31 1 80.86262295081968 0.8357807213114755 6.67044711509e-05 0.0 0.0 0.0
32 1 82.41575081967214 2.8124540327868854 4.42054679537e-05 0.0 0.0 0.0
33 1 3.638520131147541 2.966322754098361 2.41258752918e-05 0.0 0.0 0.0
34 1 5.141630819672131 3.0806816393442626 1.0971804963e-05 0.0 0.0 0.0
35 1 6.980037377049181 2.2114500983606558 2.04917645521e-06 0.0 0.0 0.0
36 1 10.215299672131149 3.3821833442622955 4.18174205986e-05 0.0 0.0 0.0
37 1 11.867593442622953 2.460733180327869 4.67722292038e-05 0.0 0.0 0.0
38 1 15.931375737704919 2.3647886557377054 3.88862649117e-06 0.0 0.0 0.0
39 1 18.356951475409836 2.423354098360656 7.83037343734e-05 0.0 0.0 0.0
40 1 20.018384262295083 4.063590426229508 5.03677303005e-05 0.0 0.0 0.0
41 1 22.87061573770492 3.421940590163935 6.60057478979e-05 0.0 0.0 0.0
42 1 25.493109508196724 3.682599475409836 6.81061064712e-05 0.0 0.0 0.0
43 1 29.72669573770492 3.669527147540984 1.17937934554e-05 0.0 0.0 0.0
44 1 31.263009836065578 3.518879803278689 3.78363588532e-05 0.0 0.0 0.0
45 1 33.91170885245902 3.396119081967213 5.8679259119e-05 0.0 0.0 0.0
46 1 36.625845245901644 3.4406579016393444 6.96259467116e-05 0.0 0.0 0.0
47 1 39.31958295081967 3.6345514754098365 1.91146406066e-05 0.0 0.0 0.0
48 1 41.764598032786886 3.381880393442623 8.5166049403e-05 0.0 0.0 0.0
49 1 44.42162819672132 2.7849763934426233 2.48899100878e-05 0.0 0.0 0.0
50 1 47.08093049180328 2.6740307540983608 4.05560439005e-06 0.0 0.0 0.0
51 1 49.693477377049184 3.6172630819672134 1.44262531438e-05 0.0 0.0 0.0
52 1 52.48824918032787 2.556551475409836 9.86208024502e-05 0.0 0.0 0.0
53 1 54.534177049180336 4.294438950819672 5.11152148426e-05 0.0 0.0 0.0
54 1 56.61494426229508 2.811136196721312 7.29410739686e-05 0.0 0.0 0.0
55 1 60.12715409836066 2.1711172459016397 6.3184424936e-06 0.0 0.0 0.0
56 1 62.53510819672132 4.282674360655738 5.25307620199e-05 0.0 0.0 0.0
57 1 66.60070819672131 3.3221536393442626 6.13898880035e-06 0.0 0.0 0.0
58 1 68.1609049180328 3.2677638688524593 9.28104247108e-05 0.0 0.0 0.0
59 1 70.91876721311476 3.0896893770491807 3.00643880644e-05 0.0 0.0 0.0
60 1 73.66905573770492 3.1731977704918037 8.10066522694e-06 0.0 0.0 0.0
61 1 76.31533114754099 3.1405548196721313 2.66231950117e-05 0.0 0.0 0.0
62 1 78.5092 2.225350491803279 3.0715096755e-05 0.0 0.0 0.0
63 1 0.7388617049180328 5.022586295081967 1.61331049776e-05 0.0 0.0 0.0
64 1 3.438759409836066 5.24907737704918 7.95994726823e-05 0.0 0.0 0.0
65 1 7.145145573770492 5.085029508196722 8.44948426008e-05 0.0 0.0 0.0
66 1 8.670401967213117 5.21524786885246 8.13283577969e-05 0.0 0.0 0.0
67 1 11.380852459016394 5.495477377049181 8.51339727051e-05 0.0 0.0 0.0
68 1 15.021563934426231 4.623574819672132 9.36975725339e-05 0.0 0.0 0.0
69 1 16.561816393442626 4.749183278688524 4.784068031e-05 0.0 0.0 0.0
70 1 19.043993442622952 5.263316065573771 1.15233719582e-05 0.0 0.0 0.0
71 1 21.374442622950824 5.704513442622951 5.18493666266e-05 0.0 0.0 0.0
72 1 23.695500327868857 5.815241967213116 6.18765165234e-05 0.0 0.0 0.0
73 1 26.037158688524595 5.112648524590164 7.37257938596e-05 0.0 0.0 0.0
74 1 29.655350819672133 6.417962622950821 2.88121354903e-05 0.0 0.0 0.0
75 1 33.672680655737715 5.532689836065574 6.10587044927e-05 0.0 0.0 0.0
76 1 35.24883278688525 5.6901232786885245 7.13302126709e-05 0.0 0.0 0.0
77 1 38.01442032786886 5.920416393442624 8.24034713557e-05 0.0 0.0 0.0
78 1 40.79394360655738 5.953539016393443 4.34528099897e-06 0.0 0.0 0.0
79 1 43.516815081967216 5.266547540983607 1.64189150555e-05 0.0 0.0 0.0
80 1 46.03241770491803 6.051190163934427 7.73466181124e-05 0.0 0.0 0.0
81 1 48.976493770491814 4.978759409836067 2.85937839845e-05 0.0 0.0 0.0
82 1 51.698052459016395 4.924975540983606 3.44893262147e-05 0.0 0.0 0.0
83 1 53.463750819672136 6.639369180327869 7.50360371704e-05 0.0 0.0 0.0
84 1 57.24811147540984 5.290935081967214 7.89351194583e-05 0.0 0.0 0.0
85 1 58.76740983606558 4.896594098360657 4.19378713161e-05 0.0 0.0 0.0
86 1 61.285940983606565 5.208986885245902 9.25410421703e-05 0.0 0.0 0.0
87 1 63.679757377049185 5.930110819672132 2.75790639774e-05 0.0 0.0 0.0
88 1 66.62696393442623 5.625241311475411 7.73953065845e-05 0.0 0.0 0.0
89 1 70.08817704918035 5.362481967213115 6.37372185446e-05 0.0 0.0 0.0
90 1 72.66073442622952 5.349657049180329 8.42198352598e-05 0.0 0.0 0.0
91 1 75.3448786885246 5.469171147540984 3.63298764853e-05 0.0 0.0 0.0
92 1 78.0547737704918 5.124968524590164 3.77278633026e-05 0.0 0.0 0.0
93 1 80.72932459016394 4.896074032786886 3.66562953139e-05 0.0 0.0 0.0
94 1 0.2368176655737705 6.926061639344263 4.3737971884e-05 0.0 0.0 0.0
95 1 1.7193216393442625 7.2820793442622955 7.34302089202e-05 0.0 0.0 0.0
96 1 4.425106688524591 7.715904918032788 1.73801558022e-05 0.0 0.0 0.0
97 1 6.906622295081967 7.63032131147541 9.80570264645e-05 0.0 0.0 0.0
98 1 9.68165180327869 7.638652459016394 6.31199423297e-05 0.0 0.0 0.0
99 1 12.462942295081968 7.7110577049180336 6.20478364148e-05 0.0 0.0 0.0
100 1 14.92689180327869 7.391747540983607 8.09240454647e-05 0.0 0.0 0.0
101 1 17.526714754098364 7.419215081967214 4.4187272583e-05 0.0 0.0 0.0
102 1 20.06630098360656 7.945289180327869 4.47681584193e-05 0.0 0.0 0.0
103 1 22.508993442622955 9.29200655737705 3.62670678019e-05 0.0 0.0 0.0
104 1 24.991523934426233 7.877175737704919 1.68086808656e-05 0.0 0.0 0.0
105 1 27.861023606557378 8.042132459016393 5.35151842375e-05 0.0 0.0 0.0
106 1 30.369809836065578 7.764680000000001 9.99595407911e-05 0.0 0.0 0.0
107 1 33.948113442622954 8.284493114754099 7.69886998554e-05 0.0 0.0 0.0
108 1 36.675781639344265 8.190780327868854 9.19248421155e-05 0.0 0.0 0.0
109 1 39.805213114754096 8.233748852459016 3.22912574584e-05 0.0 0.0 0.0
110 1 42.55984393442623 7.828148196721313 4.70907011778e-05 0.0 0.0 0.0
111 1 45.27913049180328 7.4325954098360665 7.12321935276e-05 0.0 0.0 0.0
112 1 47.94610754098361 7.015583606557378 3.44165544723e-05 0.0 0.0 0.0
113 1 50.47862491803279 7.209421639344263 9.61766041374e-05 0.0 0.0 0.0
114 1 52.09895737704919 8.802892459016395 6.11447039543e-05 0.0 0.0 0.0
115 1 54.9588131147541 8.43314098360656 9.6171033046e-06 0.0 0.0 0.0
116 1 57.50006557377049 7.924890491803279 8.40857817567e-05 0.0 0.0 0.0
117 1 60.04384262295083 7.5312059016393444 7.01329421725e-05 0.0 0.0 0.0
118 1 62.48613114754099 7.864401311475411 2.76030792853e-05 0.0 0.0 0.0
119 1 64.38866229508197 7.253349508196722 8.42341415026e-05 0.0 0.0 0.0
120 1 67.72364590163934 6.686982950819673 1.58834519686e-05 0.0 0.0 0.0
121 1 71.39591475409837 7.735243278688526 6.92377798226e-05 0.0 0.0 0.0
122 1 73.7776131147541 7.711865573770493 6.6187220453e-05 0.0 0.0 0.0
123 1 77.21055081967214 7.543323934426231 4.08231041522e-05 0.0 0.0 0.0
124 1 79.80582950819672 7.302730491803279 7.62563121226e-05 0.0 0.0 0.0
125 1 0.8795571147540985 9.474988852459017 2.49826583594e-05 0.0 0.0 0.0
126 1 3.419663409836066 10.714158688524591 4.29268934811e-05 0.0 0.0 0.0
127 1 6.136066885245902 10.03161049180328 9.66226245293e-05 0.0 0.0 0.0
128 1 8.787340983606558 10.814839344262296 9.83931332216e-06 0.0 0.0 0.0
129 1 11.490722622950821 9.81444524590164 9.51129607953e-05 0.0 0.0 0.0
130 1 14.118770491803279 9.934918688524592 3.29804823902e-05 0.0 0.0 0.0
131 1 16.36146491803279 9.785109508196722 6.15345793971e-05 0.0 0.0 0.0
132 1 18.492572459016394 11.333592131147542 1.67447663231e-05 0.0 0.0 0.0
133 1 21.49188655737705 10.469172459016395 1.21580178355e-05 0.0 0.0 0.0
134 1 25.361073442622953 9.972434098360656 6.10385389661e-05 0.0 0.0 0.0
135 1 26.90087147540984 9.864785573770494 9.54125339335e-05 0.0 0.0 0.0
136 1 29.636517377049184 11.07305442622951 2.02779499775e-05 0.0 0.0 0.0
137 1 32.58458229508197 10.66957442622951 5.19861969692e-05 0.0 0.0 0.0
138 1 35.28407606557377 10.46356786885246 4.57018114148e-05 0.0 0.0 0.0
139 1 37.493496393442626 9.541385573770492 7.08124894803e-05 0.0 0.0 0.0
140 1 41.321078032786886 10.268417049180329 4.69012827179e-05 0.0 0.0 0.0
141 1 43.9788655737705 9.963396065573772 8.84926790405e-05 0.0 0.0 0.0
142 1 47.85587868852459 8.9166 8.75418861991e-06 0.0 0.0 0.0
143 1 48.155800000000006 10.969243278688525 3.90600072891e-05 0.0 0.0 0.0
144 1 51.01388852459017 9.884123934426231 5.13037244423e-05 0.0 0.0 0.0
145 1 53.67834098360657 10.62448524590164 5.97882963958e-05 0.0 0.0 0.0
146 1 56.441757377049186 10.480684590163936 5.27325934316e-05 0.0 0.0 0.0
147 1 59.51115409836066 10.036356721311476 3.33900656557e-06 0.0 0.0 0.0
148 1 62.09431475409836 9.864381639344263 7.48136979994e-05 0.0 0.0 0.0
149 1 64.73958032786885 9.810961311475412 5.84049300678e-05 0.0 0.0 0.0
150 1 67.61862295081967 9.938049180327871 6.23988762372e-05 0.0 0.0 0.0
151 1 69.86803278688525 10.50941442622951 4.66467669159e-06 0.0 0.0 0.0
152 1 72.93793442622952 10.229386885245903 1.31267342561e-05 0.0 0.0 0.0
153 1 74.9061049180328 8.740282622950822 8.29052221016e-05 0.0 0.0 0.0
154 1 78.85102950819673 9.748351475409837 3.00096752111e-05 0.0 0.0 0.0
155 1 81.35087868852459 9.798136393442624 4.4909378406e-05 0.0 0.0 0.0
156 1 0.26843664262295086 12.152619672131149 3.89335925534e-05 0.0 0.0 0.0
157 1 2.903268590163935 12.144086557377051 1.33170577547e-05 0.0 0.0 0.0
158 1 4.471579344262295 13.990369836065575 6.76681407083e-05 0.0 0.0 0.0
159 1 9.105540327868853 12.307478032786886 7.40785079393e-05 0.0 0.0 0.0
160 1 10.636956721311478 12.257188196721312 6.12322803951e-05 0.0 0.0 0.0
161 1 13.323625573770492 12.092786885245902 9.59472022788e-05 0.0 0.0 0.0
162 1 15.360616393442625 13.972192786885246 2.99896686302e-05 0.0 0.0 0.0
163 1 17.816083278688527 12.782201967213116 4.53701512658e-05 0.0 0.0 0.0
164 1 20.245041967213115 12.547415081967214 9.52310965513e-05 0.0 0.0 0.0
165 1 22.519243278688528 11.603824262295083 4.95835469324e-05 0.0 0.0 0.0
166 1 26.219232131147546 12.649913442622951 2.44338307856e-05 0.0 0.0 0.0
167 1 28.94058885245902 12.42714360655738 9.83299951184e-05 0.0 0.0 0.0
168 1 31.59363016393443 12.775789508196723 7.9248099425e-05 0.0 0.0 0.0
169 1 34.18426360655738 12.838500327868854 8.39179401967e-05 0.0 0.0 0.0
170 1 36.85189704918033 12.49641836065574 2.95084331136e-05 0.0 0.0 0.0
171 1 39.59188524590164 12.47940262295082 1.64185759374e-06 0.0 0.0 0.0
172 1 42.68213508196722 12.509394754098361 8.78294845121e-05 0.0 0.0 0.0
173 1 45.24065573770492 12.144995409836067 4.34059633595e-05 0.0 0.0 0.0
174 1 47.709149508196724 12.42668918032787 3.60993624916e-05 0.0 0.0 0.0
175 1 49.95659016393443 12.09283737704918 2.78188291261e-05 0.0 0.0 0.0
176 1 52.14389508196722 13.524532459016394 2.17042619695e-05 0.0 0.0 0.0
177 1 55.54552786885247 12.622900327868853 3.00595225649e-05 0.0 0.0 0.0
178 1 57.57782295081968 11.491782950819672 7.3541512468e-05 0.0 0.0 0.0
179 1 61.266249180327875 12.233961967213117 6.43790222805e-05 0.0 0.0 0.0
180 1 63.758524590163944 12.169180983606557 9.58353547889e-06 0.0 0.0 0.0
181 1 67.44594098360656 11.451187540983609 4.14591339759e-05 0.0 0.0 0.0
182 1 68.93645901639346 11.706524590163935 2.69921764507e-05 0.0 0.0 0.0
183 1 71.09952786885246 11.392768524590165 2.56880058894e-05 0.0 0.0 0.0
184 1 75.49938360655739 11.301580327868853 3.99202515686e-05 0.0 0.0 0.0
185 1 76.7116918032787 10.374348852459018 7.12464222901e-05 0.0 0.0 0.0
186 1 80.3920393442623 12.115356721311478 2.12648560395e-05 0.0 0.0 0.0
187 1 1.6450936393442626 14.475596065573772 4.14310292769e-05 0.0 0.0 0.0
188 1 3.6206157377049184 16.255684590163934 2.48416468416e-05 0.0 0.0 0.0
189 1 5.768335081967214 14.813083278688525 3.30768516341e-05 0.0 0.0 0.0
190 1 9.47832131147541 14.64812655737705 1.61189261413e-06 0.0 0.0 0.0
191 1 12.26269180327869 14.431769180327871 5.92683757527e-05 0.0 0.0 0.0
192 1 14.794704262295085 15.467103606557378 5.64764687554e-05 0.0 0.0 0.0
193 1 17.27930491803279 15.636806557377051 8.37642842808e-05 0.0 0.0 0.0
194 1 19.395769836065575 15.046708852459018 1.04556494011e-06 0.0 0.0 0.0
195 1 22.055678032786886 14.348356721311477 3.0115188421e-05 0.0 0.0 0.0
196 1 24.858276065573776 14.87953049180328 8.01477661439e-05 0.0 0.0 0.0
197 1 27.873343606557377 14.727247213114756 1.75166174341e-05 0.0 0.0 0.0
198 1 29.968702950819676 15.973132459016396 9.78516874026e-05 0.0 0.0 0.0
199 1 32.663702950819676 15.167586229508197 6.45215964243e-05 0.0 0.0 0.0
200 1 35.377435409836075 14.993187540983607 9.74862878996e-05 0.0 0.0 0.0
201 1 38.463191475409836 14.769609836065575 6.08043531421e-05 0.0 0.0 0.0
202 1 40.45372983606558 13.78496918032787 8.70641112854e-05 0.0 0.0 0.0
203 1 43.97654295081968 14.668727213114757 6.80008365421e-05 0.0 0.0 0.0
204 1 46.30371016393443 14.694175081967215 6.83163593082e-05 0.0 0.0 0.0
205 1 48.842084590163935 14.763348852459018 5.37681042797e-05 0.0 0.0 0.0
206 1 51.36581639344263 14.814093114754101 8.61908659643e-05 0.0 0.0 0.0
207 1 53.483947540983614 14.210211147540985 2.28981338698e-05 0.0 0.0 0.0
208 1 57.46724590163935 14.355072131147542 8.29423794977e-06 0.0 0.0 0.0
209 1 60.02213114754099 14.38445836065574 4.2161982257e-05 0.0 0.0 0.0
210 1 62.558334426229514 14.638381639344264 1.65740804268e-05 0.0 0.0 0.0
211 1 65.03546229508197 14.560573770491803 5.93434337641e-06 0.0 0.0 0.0
212 1 67.57368524590164 13.803651147540984 7.29332905958e-05 0.0 0.0 0.0
213 1 70.44666885245901 14.059998032786886 3.45428796665e-05 0.0 0.0 0.0
214 1 72.89754098360656 13.286514098360657 4.65135453762e-05 0.0 0.0 0.0
215 1 76.34764590163935 14.002336393442624 9.03571651057e-05 0.0 0.0 0.0
216 1 79.08531147540984 13.89544524590164 2.01782692392e-05 0.0 0.0 0.0
217 1 81.78763278688525 14.501548852459019 3.01093690161e-05 0.0 0.0 0.0
218 1 0.12451834098360656 16.917985573770494 8.27512926125e-05 0.0 0.0 0.0
219 1 3.060303147540984 17.677432786885248 4.78178272884e-05 0.0 0.0 0.0
220 1 5.889060983606558 17.54448786885246 4.10497732557e-05 0.0 0.0 0.0
221 1 9.383447213114755 16.966558688524593 8.42896644654e-05 0.0 0.0 0.0
222 1 10.88704262295082 16.647248524590164 4.66422453263e-05 0.0 0.0 0.0
223 1 13.042739672131148 18.272579672131148 3.87726302324e-05 0.0 0.0 0.0
224 1 15.220703606557379 16.99432918032787 9.89577706602e-05 0.0 0.0 0.0
225 1 19.166436065573773 17.81911278688525 7.16063133593e-05 0.0 0.0 0.0
226 1 21.197620327868854 16.78110229508197 8.70544522893e-05 0.0 0.0 0.0
227 1 23.810217704918035 17.412754754098362 8.66416109707e-05 0.0 0.0 0.0
228 1 25.92476393442623 15.960408524590166 5.05731244227e-05 0.0 0.0 0.0
229 1 29.292112786885248 17.33434098360656 8.39709276141e-05 0.0 0.0 0.0
230 1 31.44649704918033 18.908927868852462 2.8674717661e-05 0.0 0.0 0.0
231 1 33.98325573770492 17.333331147540985 3.87447038365e-05 0.0 0.0 0.0
232 1 36.31143278688525 16.21670491803279 8.05050383782e-05 0.0 0.0 0.0
233 1 40.18304327868852 16.78726229508197 9.43835417108e-05 0.0 0.0 0.0
234 1 42.68869901639345 16.95418819672131 7.49831020508e-05 0.0 0.0 0.0
235 1 45.14739737704919 17.20563737704918 9.45933136308e-05 0.0 0.0 0.0
236 1 47.63033180327869 17.082841311475413 9.94771335872e-05 0.0 0.0 0.0
237 1 50.36113049180329 17.111672131147543 6.79510848576e-05 0.0 0.0 0.0
238 1 52.96590163934427 16.981302295081967 8.13965190325e-05 0.0 0.0 0.0
239 1 55.84746885245902 16.511476065573774 2.83443323485e-05 0.0 0.0 0.0
240 1 58.44274754098361 16.69668 1.31865323717e-05 0.0 0.0 0.0
241 1 61.06226229508197 16.90813967213115 7.27553440325e-05 0.0 0.0 0.0
242 1 63.91000000000001 17.05875672131148 9.90583129581e-05 0.0 0.0 0.0
243 1 67.58428852459018 16.00267016393443 7.98418527224e-05 0.0 0.0 0.0
244 1 69.11166557377051 15.965558688524592 2.14649763642e-05 0.0 0.0 0.0
245 1 71.85387540983606 16.034984918032787 5.48930096536e-05 0.0 0.0 0.0
246 1 76.05226885245902 16.465881967213114 8.61135263763e-07 0.0 0.0 0.0
247 1 77.5316786885246 16.106784262295083 1.58449340292e-05 0.0 0.0 0.0
248 1 80.01133114754099 16.35166950819672 7.53579146009e-05 0.0 0.0 0.0
249 1 0.5893352786885246 18.407544262295083 5.02709960118e-05 0.0 0.0 0.0
250 1 4.246047606557378 19.643078688524593 9.02738138273e-06 0.0 0.0 0.0
251 1 6.843103606557377 19.960621639344264 2.43865183002e-05 0.0 0.0 0.0
252 1 9.45994229508197 19.590516721311477 3.20971474982e-05 0.0 0.0 0.0
253 1 12.371855081967215 19.649592131147543 5.15323642845e-05 0.0 0.0 0.0
254 1 14.701546885245904 20.00268131147541 7.08977458274e-05 0.0 0.0 0.0
255 1 17.40538295081967 19.88952918032787 8.75774421129e-05 0.0 0.0 0.0
256 1 21.78756655737705 20.40202098360656 1.48241533582e-05 0.0 0.0 0.0
257 1 23.695803278688526 18.91210885245902 8.42424060388e-05 0.0 0.0 0.0
258 1 25.27155147540984 18.853083934426234 7.53471454388e-05 0.0 0.0 0.0
259 1 27.459108852459018 20.347590819672135 2.27872722784e-05 0.0 0.0 0.0
260 1 30.410657704918037 20.052920655737708 2.9194386664e-05 0.0 0.0 0.0
261 1 33.49020327868853 19.874482622950822 7.90400404431e-05 0.0 0.0 0.0
262 1 35.92744262295082 18.996480655737706 5.35078923638e-05 0.0 0.0 0.0
263 1 38.51954032786886 18.968558688524592 9.01835732879e-05 0.0 0.0 0.0
264 1 41.512744918032794 19.364717377049185 7.83176763912e-05 0.0 0.0 0.0
265 1 44.33114688524591 19.529724590163937 5.18480282884e-05 0.0 0.0 0.0
266 1 46.885981639344266 19.501600655737708 6.07300615865e-06 0.0 0.0 0.0
267 1 49.230316065573774 19.256765901639344 8.55239265783e-05 0.0 0.0 0.0
268 1 51.943947540983615 19.32124393442623 5.16488773184e-05 0.0 0.0 0.0
269 1 54.784111475409844 18.60779475409836 4.03499730262e-06 0.0 0.0 0.0
270 1 55.87170491803279 20.14335147540984 5.87213818964e-05 0.0 0.0 0.0
271 1 59.65303606557378 19.09145573770492 8.12972353653e-05 0.0 0.0 0.0
272 1 61.801462295081976 18.256472786885247 6.97577605194e-05 0.0 0.0 0.0
273 1 65.296 19.231822950819673 6.02935939607e-05 0.0 0.0 0.0
274 1 67.61660327868853 18.43385049180328 4.84641609302e-05 0.0 0.0 0.0
275 1 70.15684590163936 18.24637442622951 9.5618005724e-05 0.0 0.0 0.0
276 1 72.46078688524591 18.328221639344264 1.2475162893e-05 0.0 0.0 0.0
277 1 74.44158032786886 17.726460327868853 3.40076981096e-05 0.0 0.0 0.0
278 1 78.27643278688525 18.59007213114754 4.30347302979e-05 0.0 0.0 0.0
279 1 80.9080655737705 18.628344918032788 4.36934359096e-05 0.0 0.0 0.0
280 1 82.1744 22.209223606557376 8.76231812099e-05 0.0 0.0 0.0
281 1 3.4379464918032787 21.64134229508197 4.41697288566e-05 0.0 0.0 0.0
282 1 4.974467606557377 21.986554754098364 4.26925562793e-05 0.0 0.0 0.0
283 1 7.432393442622952 21.365152131147546 1.18175384425e-05 0.0 0.0 0.0
284 1 11.111327213114755 22.816841967213115 5.63929588117e-06 0.0 0.0 0.0
285 1 13.34256 23.472175081967215 1.62074284566e-05 0.0 0.0 0.0
286 1 16.030541639344264 22.3193462295082 1.21243354151e-05 0.0 0.0 0.0
287 1 19.276457704918034 22.104352131147543 1.50720043926e-05 0.0 0.0 0.0
288 1 20.78469836065574 21.98074819672131 1.26699580694e-05 0.0 0.0 0.0
289 1 23.618500327868855 22.680918032786888 8.94461895795e-05 0.0 0.0 0.0
290 1 26.54576262295082 21.59973704918033 8.16369521295e-05 0.0 0.0 0.0
291 1 29.30544262295082 22.14721967213115 8.10149527881e-05 0.0 0.0 0.0
292 1 31.258920000000003 21.31632655737705 7.17776605001e-05 0.0 0.0 0.0
293 1 35.017681311475414 21.704305573770494 2.65293858374e-05 0.0 0.0 0.0
294 1 37.22180000000001 21.3297068852459 9.40707517097e-05 0.0 0.0 0.0
295 1 39.161341639344265 20.37142295081967 4.14188313134e-05 0.0 0.0 0.0
296 1 42.376205245901645 20.638171147540984 7.92804232386e-05 0.0 0.0 0.0
297 1 45.810304262295084 21.884207868852464 9.64700347152e-05 0.0 0.0 0.0
298 1 49.030419016393445 21.60816918032787 5.18410839783e-05 0.0 0.0 0.0
299 1 50.55340327868853 21.46719606557377 8.95985150419e-05 0.0 0.0 0.0
300 1 52.90379672131148 20.49633967213115 2.25157075458e-05 0.0 0.0 0.0
301 1 57.21428196721312 20.816710163934427 6.08443748982e-05 0.0 0.0 0.0
302 1 58.98755409836066 21.633516065573772 7.72606489908e-05 0.0 0.0 0.0
303 1 61.385409836065584 21.11663147540984 7.35681409452e-05 0.0 0.0 0.0
304 1 64.00492459016394 21.45113967213115 7.78429646203e-06 0.0 0.0 0.0
305 1 68.0533573770492 20.412927213114756 8.22600980129e-05 0.0 0.0 0.0
306 1 68.57089836065575 22.937719344262298 6.66027450835e-05 0.0 0.0 0.0
307 1 71.96293770491803 20.635343606557377 7.65384097486e-05 0.0 0.0 0.0
308 1 74.42693770491803 21.765047213114755 9.71920881769e-05 0.0 0.0 0.0
309 1 77.16914754098362 20.881945573770494 8.14348953727e-05 0.0 0.0 0.0
310 1 79.88560655737706 20.87235213114754 7.88687283283e-05 0.0 0.0 0.0
311 1 82.23448524590164 25.721786885245905 5.73532782608e-05 0.0 0.0 0.0
312 1 3.3595680655737707 23.930893114754102 8.86908815218e-06 0.0 0.0 0.0
313 1 7.299398032786886 23.83728131147541 8.56896804813e-05 0.0 0.0 0.0
314 1 10.223984262295083 24.116198032786887 9.58167140399e-05 0.0 0.0 0.0
315 1 12.560845901639345 24.805613114754102 2.68900876615e-05 0.0 0.0 0.0
316 1 14.85837442622951 24.90801049180328 7.35424637402e-05 0.0 0.0 0.0
317 1 17.195589508196722 24.822830819672134 4.53483686542e-05 0.0 0.0 0.0
318 1 19.717958032786886 24.72432131147541 6.27539054636e-05 0.0 0.0 0.0
319 1 23.259453114754102 24.194106885245905 6.79898811021e-05 0.0 0.0 0.0
320 1 25.750718688524593 23.727714098360657 9.30152459217e-05 0.0 0.0 0.0
321 1 28.14635278688525 25.132800000000003 1.32260023437e-05 0.0 0.0 0.0
322 1 31.896429508196725 23.796635409836068 6.59296578551e-05 0.0 0.0 0.0
323 1 33.45506098360656 23.938062950819674 7.40673078169e-05 0.0 0.0 0.0
324 1 36.21953770491804 24.077824262295085 7.93091577869e-05 0.0 0.0 0.0
325 1 38.92029377049181 23.346702950819672 8.34711108713e-05 0.0 0.0 0.0
326 1 41.68603278688525 23.47500262295082 8.81653589298e-05 0.0 0.0 0.0
327 1 44.11590032786886 23.98370754098361 4.75110411529e-05 0.0 0.0 0.0
328 1 46.64548918032787 24.466661639344263 3.32304810285e-05 0.0 0.0 0.0
329 1 49.21547147540984 24.337705573770496 5.71662078971e-05 0.0 0.0 0.0
330 1 51.93940327868853 24.27085442622951 1.08913828479e-05 0.0 0.0 0.0
331 1 54.22112786885246 23.76962229508197 1.37483503984e-05 0.0 0.0 0.0
332 1 57.20872786885246 23.725492459016394 7.77781266934e-05 0.0 0.0 0.0
333 1 60.065554098360664 23.74180131147541 5.18774028545e-05 0.0 0.0 0.0
334 1 62.61387540983607 23.55866754098361 1.4568061191e-05 0.0 0.0 0.0
335 1 64.7421049180328 22.81669049180328 9.47402448163e-05 0.0 0.0 0.0
336 1 70.10382950819674 22.737216393442626 9.09112029011e-05 0.0 0.0 0.0
337 1 73.081331147541 23.947302950819676 2.51935599079e-06 0.0 0.0 0.0
338 1 73.03588852459018 22.4378 9.95947163227e-06 0.0 0.0 0.0
339 1 76.39308852459017 23.403960655737706 6.02453174628e-05 0.0 0.0 0.0
340 1 78.92676721311476 23.200529180327873 1.2964532978e-05 0.0 0.0 0.0
341 1 81.30139672131149 23.459804590163937 7.30468438265e-05 0.0 0.0 0.0
342 1 1.0396262295081968 25.8620531147541 3.46084119502e-05 0.0 0.0 0.0
343 1 2.920511540983607 26.263816393442625 8.54590883524e-05 0.0 0.0 0.0
344 1 4.689274754098362 24.72098885245902 5.30958589603e-05 0.0 0.0 0.0
345 1 8.361846557377051 26.037714098360656 2.50585642915e-05 0.0 0.0 0.0
346 1 10.73420393442623 26.877039344262297 3.31448630251e-05 0.0 0.0 0.0
347 1 13.723672131147541 27.393116065573775 2.49271209758e-05 0.0 0.0 0.0
348 1 16.324454426229508 27.32772918032787 7.7363511717e-05 0.0 0.0 0.0
349 1 18.881409836065576 27.076532459016395 8.6914672013e-05 0.0 0.0 0.0
350 1 20.908706229508198 25.708002622950822 3.10960666756e-05 0.0 0.0 0.0
351 1 24.618995409836067 26.302190163934426 2.83363229014e-05 0.0 0.0 0.0
352 1 27.25774754098361 26.373636065573773 5.0425009358e-05 0.0 0.0 0.0
353 1 29.687059672131152 26.854166557377052 6.11937110972e-05 0.0 0.0 0.0
354 1 31.954596065573774 26.45800786885246 1.84303738501e-05 0.0 0.0 0.0
355 1 34.72614163934427 26.315822950819676 3.72287219633e-05 0.0 0.0 0.0
356 1 38.674146229508196 25.59071016393443 5.05560519124e-05 0.0 0.0 0.0
357 1 40.21182360655738 25.62206557377049 7.18034546059e-05 0.0 0.0 0.0
358 1 42.725558032786886 26.24977967213115 6.85565935832e-05 0.0 0.0 0.0
359 1 45.32270491803279 26.60155606557377 9.19199169326e-05 0.0 0.0 0.0
360 1 48.185741639344265 26.737631475409838 1.87437237385e-05 0.0 0.0 0.0
361 1 50.91038032786886 26.52314229508197 3.16959624433e-05 0.0 0.0 0.0
362 1 53.45112786885247 26.468257704918038 8.51532391941e-05 0.0 0.0 0.0
363 1 56.01055737704919 25.602878688524594 9.21806534779e-05 0.0 0.0 0.0
364 1 58.74620327868853 25.807925901639347 9.24810853585e-05 0.0 0.0 0.0
365 1 61.51062950819672 26.00171344262295 8.17014354029e-05 0.0 0.0 0.0
366 1 63.97412459016394 25.75379868852459 4.24465510572e-05 0.0 0.0 0.0
367 1 66.71280000000002 25.24176131147541 8.06590825022e-05 0.0 0.0 0.0
368 1 69.30807868852459 25.503258360655742 6.41256816848e-05 0.0 0.0 0.0
369 1 71.80035409836066 25.995553442622953 4.42273633052e-05 0.0 0.0 0.0
370 1 74.15630163934426 25.016113442622952 8.42083176312e-05 0.0 0.0 0.0
371 1 77.94015737704919 25.679424262295086 4.09517410934e-05 0.0 0.0 0.0
372 1 80.21683278688526 25.881946885245906 3.24013533924e-06 0.0 0.0 0.0
373 1 1.8355234754098362 28.68908918032787 4.1513726496e-05 0.0 0.0 0.0
374 1 4.506721639344263 27.738681967213115 4.68375508448e-05 0.0 0.0 0.0
375 1 6.276282622950821 29.10569704918033 4.19834665435e-05 0.0 0.0 0.0
376 1 9.198495737704919 28.849299672131153 6.50214576296e-05 0.0 0.0 0.0
377 1 11.270578360655739 28.330041967213116 8.38041225212e-05 0.0 0.0 0.0
378 1 14.971324590163936 29.66741836065574 5.52042818244e-05 0.0 0.0 0.0
379 1 18.10116 29.47191409836066 6.90729198502e-05 0.0 0.0 0.0
380 1 20.73415606557377 28.666014426229513 2.23527371724e-05 0.0 0.0 0.0
381 1 23.221180327868854 28.417998688524595 8.43438038042e-06 0.0 0.0 0.0
382 1 25.762786229508198 28.61259409836066 2.61385542247e-05 0.0 0.0 0.0
383 1 28.25920196721312 28.97017704918033 9.66246800823e-05 0.0 0.0 0.0
384 1 30.872001311475415 29.146746885245907 5.32118009821e-05 0.0 0.0 0.0
385 1 33.37942426229508 28.552205901639347 9.55643789005e-05 0.0 0.0 0.0
386 1 35.46165573770492 27.681525245901643 8.30223807179e-05 0.0 0.0 0.0
387 1 39.16649180327869 28.23759147540984 3.52962737894e-05 0.0 0.0 0.0
388 1 40.96834229508197 29.7869324590164 3.11325771551e-05 0.0 0.0 0.0
389 1 44.23915081967213 28.846724590163937 9.58071590766e-07 0.0 0.0 0.0
390 1 47.12147540983607 28.747003278688528 1.92435645727e-05 0.0 0.0 0.0
391 1 50.05257508196722 28.811329836065575 4.39983779155e-05 0.0 0.0 0.0
392 1 52.828563934426235 28.77184524590164 4.1814698337e-05 0.0 0.0 0.0
393 1 55.52028196721312 28.091114754098363 8.00466424666e-05 0.0 0.0 0.0
394 1 57.03352131147542 27.85642885245902 6.31483835268e-05 0.0 0.0 0.0
395 1 59.88226885245902 28.05279147540984 3.99449472505e-05 0.0 0.0 0.0
396 1 62.38413770491804 28.334889180327874 2.83990680003e-05 0.0 0.0 0.0
397 1 65.99430163934427 27.58609573770492 4.98071434969e-05 0.0 0.0 0.0
398 1 67.53783606557377 27.628205901639348 3.40357881588e-05 0.0 0.0 0.0
399 1 70.33609180327869 28.068191475409836 3.42883973774e-05 0.0 0.0 0.0
400 1 73.25249836065575 27.772662950819676 6.38546747415e-05 0.0 0.0 0.0
401 1 76.1875868852459 27.533129836065577 5.80352460016e-05 0.0 0.0 0.0
402 1 78.97422950819673 28.36770885245902 8.45845968461e-06 0.0 0.0 0.0
403 1 81.71946885245903 28.532716065573773 5.36215000341e-05 0.0 0.0 0.0
404 1 0.8102318688524591 30.714567868852463 7.70772247479e-05 0.0 0.0 0.0
405 1 3.528276327868853 30.29720262295082 2.04941258324e-05 0.0 0.0 0.0
406 1 5.889464918032787 31.329305573770494 8.80560186126e-05 0.0 0.0 0.0
407 1 8.52589442622951 31.8803731147541 7.41960329614e-05 0.0 0.0 0.0
408 1 11.052857704918035 31.178739016393447 8.59470537569e-05 0.0 0.0 0.0
409 1 13.550788196721312 31.48032655737705 1.3031633804e-05 0.0 0.0 0.0
410 1 15.754755409836067 30.975560000000005 5.2670158122e-05 0.0 0.0 0.0
411 1 19.676504262295087 31.22786754098361 1.82935249394e-05 0.0 0.0 0.0
412 1 22.180140327868852 30.967683278688526 1.03229018466e-06 0.0 0.0 0.0
413 1 24.74987016393443 30.87089049180328 7.76694954093e-05 0.0 0.0 0.0