ITEM: TIMESTEP
0
ITEM: NUMBER OF ATOMS
2232
ITEM: BOX BOUNDS xy xz yz pp pp pp
0.0 82.68810555352132 0
0.0 83.16 0
-10.0 10.0 0
ITEM: ATOMS id type x y z vx vy vz
1 1 1.9668829508196723 0.8803952786885247 3.9990830986e-05 0.0 0.0 0.0
2 1 4.6262761311475415 1.115121573770492 6.21177964733e-05 0.0 0.0 0.0
3 1 7.328077377049182 1.345813573770492 6.20824982161e-05 0.0 0.0 0.0
4 1 9.844184918032788 0.943136393442623 9.70267004085e-05 0.0 0.0 0.0
5 1 12.534741639344263 0.41183083934426234 7.67578899723e-05 0.0 0.0 0.0
6 1 15.321434754098362 0.6786805245901639 3.17131047655e-05 0.0 0.0 0.0
7 1 18.9104931147541 0.9040557377049181 1.61014820886e-05 0.0 0.0 0.0
8 1 20.419087213114754 0.8401280655737706 2.35507853213e-05 0.0 0.0 0.0
9 1 22.716363278688526 0.8439856393442624 3.60466254986e-05 0.0 0.0 0.0
10 1 25.480335081967215 0.7145902950819673 7.60624462256e-05 0.0 0.0 0.0
11 1 28.961441967213116 0.6415488524590164 2.19874585697e-05 0.0 0.0 0.0
12 1 30.516337049180333 0.6382416393442623 5.63605376621e-05 0.0 0.0 0.0
13 1 33.26172786885246 0.5771667540983607 2.30703160642e-06 0.0 0.0 0.0
14 1 36.03236459016394 82.82069508196722 3.16785345712e-05 0.0 0.0 0.0
15 1 38.46480721311476 0.8414105573770493 3.38846254247e-05 0.0 0.0 0.0
16 1 41.47401770491804 0.2955391278688525 4.1534478276e-05 0.0 0.0 0.0
17 1 44.201685901639344 0.30557235409836064 9.57829808795e-05 0.0 0.0 0.0
18 1 46.136481311475414 1.7316921311475413 2.00446544168e-05 0.0 0.0 0.0
19 1 49.7275593442623 1.0442866229508196 1.22974511822e-05 0.0 0.0 0.0
20 1 52.639724590163944 1.1769538360655738 2.38713138185e-05 0.0 0.0 0.0
21 1 55.21783606557378 1.2181652459016394 9.46718891167e-05 0.0 0.0 0.0
22 1 57.34000655737706 2.612657967213115 7.69251926995e-05 0.0 0.0 0.0
23 1 60.20743606557378 1.7433910819672134 3.53595545484e-06 0.0 0.0 0.0
24 1 64.04329836065574 1.0164656393442624 9.54542381183e-05 0.0 0.0 0.0
25 1 65.55552786885247 0.7226235409836067 2.83722597495e-05 0.0 0.0 0.0
26 1 68.3265180327869 0.7696011147540984 9.24197957112e-05 0.0 0.0 0.0
27 1 71.17324590163936 0.6713440655737706 3.79133201726e-05 0.0 0.0 0.0
28 1 73.96695737704918 0.5383991475409837 3.08491786352e-05 0.0 0.0 0.0
29 1 76.46428196721313 0.1436557442622951 2.73244738494e-05 0.0 0.0 0.0
30 1 79.15751475409837 0.9108973770491804 9.41829241389e-05 0.0 0.0 0.0
31 1 82.06887213114754 0.446770662295082 9.87885259392e-05 0.0 0.0 0.0
32 1 0.5601611147540985 2.963757770491804 9.31237548832e-05 0.0 0.0 0.0
33 1 3.2229120000000004 3.278185377049181 5.20270733885e-05 0.0 0.0 0.0
34 1 5.9930740983606565 3.4641517377049187 3.70416411094e-05 0.0 0.0 0.0
35 1 8.922507540983608 3.4994556065573774 5.94699727018e-05 0.0 0.0 0.0
36 1 12.163929836065575 2.6751264262295087 1.48292766065e-05 0.0 0.0 0.0
37 1 13.693427540983608 2.6791051803278694 3.62023220983e-05 0.0 0.0 0.0
38 1 16.271488524590165 3.253686754098361 5.2771037944e-05 0.0 0.0 0.0
39 1 18.748818360655736 3.4454394754098363 1.65192986334e-05 0.0 0.0 0.0
40 1 21.373887213114756 3.34296131147541 9.65066903445e-05 0.0 0.0 0.0
41 1 24.095799344262296 2.9042178360655737 7.32955704138e-05 0.0 0.0 0.0
42 1 26.02488918032787 4.171274295081968 7.06416179315e-05 0.0 0.0 0.0
43 1 28.885401311475412 3.413846754098361 4.76778096354e-05 0.0 0.0 0.0
44 1 31.893450491803282 2.9139021639344267 9.62546275144e-05 0.0 0.0 0.0
45 1 34.77597704918033 2.224204327868853 3.75974266209e-05 0.0 0.0 0.0
46 1 37.6601193442623 2.1743992131147545 6.66183434275e-05 0.0 0.0 0.0
47 1 40.08448327868852 2.43767862295082 5.3089799014e-05 0.0 0.0 0.0
48 1 42.69395016393443 2.524918360655738 3.46900043411e-06 0.0 0.0 0.0
49 1 45.30286163934427 3.0139264262295087 9.0129857978e-05 0.0 0.0 0.0
50 1 47.475574426229514 2.4553911475409835 6.16805907676e-05 0.0 0.0 0.0
51 1 51.39964590163935 3.0388138360655743 7.91839616522e-05 0.0 0.0 0.0
52 1 52.622052459016395 4.824653377049181 5.85580148332e-05 0.0 0.0 0.0
53 1 56.662911475409835 4.050816 4.51119632048e-05 0.0 0.0 0.0
54 1 59.254150819672134 4.081797770491804 7.9128998481e-06 0.0 0.0 0.0
55 1 61.79792786885246 3.904531147540984 4.61001029842e-05 0.0 0.0 0.0
56 1 64.1261049180328 3.4739774426229513 7.99087560596e-05 0.0 0.0 0.0
57 1 66.89255081967214 2.991457573770492 8.32982149454e-06 0.0 0.0 0.0
58 1 69.7665442622951 2.860905967213115 7.79358890292e-05 0.0 0.0 0.0
59 1 72.6380131147541 2.815700655737705 8.46670627148e-05 0.0 0.0 0.0
60 1 75.46959344262295 2.79495862295082 1.15232124657e-06 0.0 0.0 0.0
61 1 79.21860983606558 2.418870426229508 5.61496454848e-07 0.0 0.0 0.0
62 1 80.72478032786887 2.5302099016393442 5.09046707251e-05 0.0 0.0 0.0
63 1 1.4529066885245903 5.348697704918033 2.59981986719e-05 0.0 0.0 0.0
64 1 4.358513049180329 5.560409836065574 8.69406851297e-05 0.0 0.0 0.0
65 1 7.25380393442623 5.49936524590164 1.9350923515e-05 0.0 0.0 0.0
66 1 10.029085901639345 5.620596065573771 4.20513520348e-05 0.0 0.0 0.0
67 1 13.1662931147541 5.121484590163935 3.35883960285e-05 0.0 0.0 0.0
68 1 14.726843278688525 5.251652459016394 3.87036618757e-05 0.0 0.0 0.0
69 1 17.546053114754102 5.769900327868854 3.11156012411e-05 0.0 0.0 0.0
70 1 20.487958032786885 5.713299016393443 1.26832894932e-05 0.0 0.0 0.0
71 1 23.229309508196724 5.232516065573771 7.90637482665e-05 0.0 0.0 0.0
72 1 25.524666885245907 6.381457049180328 1.65654870617e-05 0.0 0.0 0.0
73 1 28.087428852459016 6.654870163934427 9.90710044353e-05 0.0 0.0 0.0
74 1 30.712750163934427 5.277857704918033 7.74782312579e-06 0.0 0.0 0.0
75 1 34.38658426229509 4.368581114754099 9.06066913015e-05 0.0 0.0 0.0
76 1 35.95672786885246 4.295100393442623 7.56462858708e-05 0.0 0.0 0.0
77 1 38.76538491803279 4.763856196721312 1.75474903189e-05 0.0 0.0 0.0
78 1 41.4553862295082 4.7927779016393455 5.24126543306e-05 0.0 0.0 0.0
79 1 44.1555868852459 5.79544918032787 9.97770314231e-05 0.0 0.0 0.0
80 1 47.065227540983614 5.1860636065573775 1.07537104841e-05 0.0 0.0 0.0
81 1 49.89650491803279 5.100883934426229 8.42771092043e-05 0.0 0.0 0.0
82 1 53.941908196721315 5.599540983606558 1.72705603329e-05 0.0 0.0 0.0
83 1 55.73083278688525 6.544545573770493 1.75894902812e-05 0.0 0.0 0.0
84 1 58.51949508196722 6.310667540983607 7.50697217239e-05 0.0 0.0 0.0
85 1 61.12487213114755 6.264820983606558 7.75079374407e-05 0.0 0.0 0.0
86 1 63.404072131147544 6.141267540983607 8.77521712207e-06 0.0 0.0 0.0
87 1 65.49948196721313 5.419436721311476 7.25521703454e-05 0.0 0.0 0.0
88 1 68.24068196721312 5.023939475409837 9.73908464087e-05 0.0 0.0 0.0
89 1 71.13083278688525 4.958269836065575 4.49178607812e-05 0.0 0.0 0.0
90 1 73.66552131147542 4.98199593442623 8.86206898378e-05 0.0 0.0 0.0
91 1 77.1201704918033 5.015699213114755 1.76318133066e-05 0.0 0.0 0.0
92 1 79.67404590163935 4.665972786885246 3.43491163145e-05 0.0 0.0 0.0
93 1 81.23424262295083 4.9448642622950825 6.07797073412e-05 0.0 0.0 0.0
94 1 82.63488524590164 7.242493770491804 9.98166812497e-06 0.0 0.0 0.0
95 1 2.599408918032787 7.522420327868853 9.81099918658e-05 0.0 0.0 0.0
96 1 6.410792786885247 7.489550163934426 7.87717810688e-05 0.0 0.0 0.0
97 1 9.134977049180328 7.637895081967214 9.50917847262e-05 0.0 0.0 0.0
98 1 10.636906229508199 7.962961311475411 3.30390994277e-05 0.0 0.0 0.0
99 1 13.38305442622951 7.97760393442623 3.35564132134e-05 0.0 0.0 0.0
100 1 16.12768786885246 7.708078688524591 1.42878024307e-05 0.0 0.0 0.0
101 1 19.02950229508197 7.8532426229508205 1.66251301227e-05 0.0 0.0 0.0
102 1 22.95064524590164 7.473847213114754 4.44803106691e-05 0.0 0.0 0.0
103 1 24.548559344262294 7.585030163934427 6.2881406848e-05 0.0 0.0 0.0
104 1 27.170194754098365 7.876973770491804 8.71148877021e-05 0.0 0.0 0.0
105 1 29.540582950819672 7.867632786885247 8.10488752196e-05 0.0 0.0 0.0
106 1 31.84164590163935 7.662585573770492 9.41555889893e-05 0.0 0.0 0.0
107 1 34.50695672131148 6.790087213114755 5.89624120962e-05 0.0 0.0 0.0
108 1 37.39483540983607 6.699656393442624 3.41320908509e-05 0.0 0.0 0.0
109 1 40.13780262295082 7.118485901639345 3.93423634089e-05 0.0 0.0 0.0
110 1 44.120747540983615 7.31464655737705 9.27808362184e-05 0.0 0.0 0.0
111 1 45.64570098360656 7.352515409836066 8.06306185287e-05 0.0 0.0 0.0
112 1 48.39164721311476 7.268749508196722 4.97584696904e-05 0.0 0.0 0.0
113 1 51.13456393442623 7.234112131147541 7.10973440318e-05 0.0 0.0 0.0
114 1 53.26935737704919 7.008211803278689 5.76468367496e-05 0.0 0.0 0.0
115 1 56.473062295081974 7.863795409836067 3.43959352976e-05 0.0 0.0 0.0
116 1 60.14230163934427 8.56088524590164 7.49458336479e-05 0.0 0.0 0.0
117 1 62.67749508196722 8.7171068852459 2.88316117385e-05 0.0 0.0 0.0
118 1 64.92438032786886 8.344376393442623 5.48152299208e-05 0.0 0.0 0.0
119 1 67.50148196721311 7.234162622950821 4.81202970925e-05 0.0 0.0 0.0
120 1 68.81325901639345 6.43644262295082 6.95421402378e-05 0.0 0.0 0.0
121 1 71.68119344262296 8.68337836065574 7.56958121248e-05 0.0 0.0 0.0
122 1 74.30272786885246 7.706109508196723 9.6065758446e-05 0.0 0.0 0.0
123 1 77.02019672131148 7.316615737704919 7.78518166551e-05 0.0 0.0 0.0
124 1 79.77149508196722 8.086413770491804 2.97013833596e-07 0.0 0.0 0.0
125 1 0.9098622950819674 9.66897836065574 1.81118014651e-05 0.0 0.0 0.0
126 1 3.68415462295082 9.94577442622951 4.08035894445e-05 0.0 0.0 0.0
127 1 6.22624524590164 9.822877377049181 8.14016880237e-05 0.0 0.0 0.0
128 1 9.019906229508198 10.647560000000002 4.1696972679e-05 0.0 0.0 0.0
129 1 12.034872786885247 10.179652459016395 7.37155631709e-05 0.0 0.0 0.0
130 1 14.86721049180328 10.104015737704918 3.47367088747e-05 0.0 0.0 0.0
131 1 17.500711475409837 9.881952786885247 8.85046563679e-05 0.0 0.0 0.0
132 1 20.1285068852459 10.163646557377051 9.08803407377e-05 0.0 0.0 0.0
133 1 22.520657049180333 10.085586229508197 5.84889470096e-05 0.0 0.0 0.0
134 1 26.465228196721316 9.933353442622952 3.53358154786e-05 0.0 0.0 0.0
135 1 27.982860327868856 10.289421639344264 3.60991509682e-05 0.0 0.0 0.0
136 1 30.6277724590164 10.278363934426231 5.62696793196e-05 0.0 0.0 0.0
137 1 32.69712852459017 8.926395409836065 8.81396835887e-05 0.0 0.0 0.0
138 1 35.70532918032787 10.202878688524592 9.30799253938e-06 0.0 0.0 0.0
139 1 38.32736852459017 9.117304918032787 2.29599200787e-05 0.0 0.0 0.0
140 1 40.96960459016393 9.506748196721311 2.95015545776e-05 0.0 0.0 0.0
141 1 43.97124131147541 9.477412459016394 8.00231900855e-05 0.0 0.0 0.0
142 1 46.847153442622954 9.504980983606558 4.02789773539e-05 0.0 0.0 0.0
143 1 49.64954950819673 9.46367868852459 2.14826475919e-05 0.0 0.0 0.0
144 1 52.32516065573771 9.81444524590164 8.33964408789e-05 0.0 0.0 0.0
145 1 55.03909508196722 10.401260983606559 7.2941128987e-05 0.0 0.0 0.0
146 1 57.98781639344263 10.37884262295082 3.28019053296e-05 0.0 0.0 0.0
147 1 61.29200000000001 11.003577704918033 6.63308308352e-05 0.0 0.0 0.0
148 1 63.78579016393443 11.202565901639346 6.25998085449e-06 0.0 0.0 0.0
149 1 66.02106229508198 11.128292459016395 4.18146390661e-05 0.0 0.0 0.0
150 1 68.30480655737705 10.385558032786886 3.19187741293e-05 0.0 0.0 0.0
151 1 71.13032786885246 10.139561967213117 6.36395712521e-05 0.0 0.0 0.0
152 1 73.42720000000001 10.280434098360658 2.49522754303e-05 0.0 0.0 0.0
153 1 76.1068 9.62469704918033 6.88812857153e-05 0.0 0.0 0.0
154 1 78.99291147540984 9.40359344262295 9.05054379055e-05 0.0 0.0 0.0
155 1 82.11481967213115 9.319019672131148 1.06236523583e-05 0.0 0.0 0.0
156 1 82.00020327868853 11.956358032786886 5.94384367438e-05 0.0 0.0 0.0
157 1 1.3725186885245904 11.154346229508198 5.15520730278e-05 0.0 0.0 0.0
158 1 5.025055344262296 13.283434098360656 6.6379730564e-05 0.0 0.0 0.0
159 1 8.967192786885246 12.174028196721313 1.03576405511e-05 0.0 0.0 0.0
160 1 10.490631475409838 12.124697704918034 2.28988775643e-05 0.0 0.0 0.0
161 1 13.254350819672132 12.291068196721312 1.50517037837e-05 0.0 0.0 0.0
162 1 17.000287213114756 12.158527213114755 4.93768013925e-05 0.0 0.0 0.0
163 1 18.553162622950822 12.31086098360656 7.17042978828e-06 0.0 0.0 0.0
164 1 21.304561967213115 12.615478032786886 5.39729104615e-06 0.0 0.0 0.0
165 1 23.904788852459017 12.417297704918035 7.11027207156e-05 0.0 0.0 0.0
166 1 26.478356065573774 13.660708852459017 1.35841769369e-05 0.0 0.0 0.0
167 1 29.324276065573773 12.663849180327869 2.92486545879e-05 0.0 0.0 0.0
168 1 33.149585573770494 11.554140327868852 5.41954921106e-05 0.0 0.0 0.0
169 1 34.69791672131148 11.36833049180328 2.83373607502e-05 0.0 0.0 0.0
170 1 37.31026163934426 11.728084590163935 6.94373033967e-05 0.0 0.0 0.0
171 1 39.59637901639345 11.561158688524591 7.37185200283e-05 0.0 0.0 0.0
172 1 41.75530754098361 10.814586885245904 5.12836131973e-05 0.0 0.0 0.0
173 1 45.488721967213124 11.589535081967213 5.6610931402e-06 0.0 0.0 0.0
174 1 48.426032131147544 11.628716721311475 2.99054372236e-05 0.0 0.0 0.0
175 1 51.01893770491804 12.859302950819673 4.43098759868e-05 0.0 0.0 0.0
176 1 53.675816393442624 12.387911475409839 4.66721094698e-05 0.0 0.0 0.0
177 1 57.33596721311476 12.110307540983607 1.29461354727e-05 0.0 0.0 0.0
178 1 58.79114098360656 11.677542295081969 6.62916058631e-05 0.0 0.0 0.0
179 1 61.09508196721312 14.720026885245904 3.2881696889e-05 0.0 0.0 0.0
180 1 65.41768524590165 13.773002622950822 5.94431793224e-05 0.0 0.0 0.0
181 1 68.0685049180328 12.984371147540985 1.03988176161e-05 0.0 0.0 0.0
182 1 69.95841311475411 13.807387540983608 2.14617321468e-05 0.0 0.0 0.0
183 1 72.44109508196722 12.75160393442623 6.51374395883e-05 0.0 0.0 0.0
184 1 75.73518032786886 11.83684393442623 5.23844194617e-05 0.0 0.0 0.0
185 1 77.20499672131149 11.457448524590166 4.7462777744e-05 0.0 0.0 0.0
186 1 79.57104262295083 12.174482622950821 7.76428984757e-05 0.0 0.0 0.0
187 1 1.3002497704918035 15.329462950819673 3.85146119916e-05 0.0 0.0 0.0
188 1 4.166487672131148 14.576276721311476 4.89536082641e-05 0.0 0.0 0.0
189 1 6.358735737704919 16.184541639344264 9.72261509973e-05 0.0 0.0 0.0
190 1 9.531943606557379 14.18844918032787 2.52847023564e-05 0.0 0.0 0.0
191 1 11.097492459016394 14.212281311475412 6.23966748544e-05 0.0 0.0 0.0
192 1 13.820010491803279 14.622274754098363 8.73913124392e-05 0.0 0.0 0.0
193 1 16.470527213114753 14.795259672131149 7.48238427444e-05 0.0 0.0 0.0
194 1 20.20106360655738 14.693316721311477 5.9357506326e-05 0.0 0.0 0.0
195 1 23.07228 14.827826885245903 5.91637001049e-05 0.0 0.0 0.0
196 1 25.794697049180332 15.054535081967215 5.31806785602e-05 0.0 0.0 0.0
197 1 28.203711475409836 15.095685901639346 1.18627464042e-05 0.0 0.0 0.0
198 1 30.756375081967217 14.762036065573772 6.98926872941e-06 0.0 0.0 0.0
199 1 33.2919724590164 14.034348196721313 7.9004007427e-06 0.0 0.0 0.0
200 1 36.15632196721312 13.82309049180328 1.35954259129e-05 0.0 0.0 0.0
201 1 38.90171278688525 14.137048524590165 8.47950688582e-05 0.0 0.0 0.0
202 1 41.43524 13.603451147540985 5.75905577395e-05 0.0 0.0 0.0
203 1 43.72973901639345 14.550626885245903 7.65105527139e-05 0.0 0.0 0.0
204 1 46.47204983606557 13.621426229508197 1.21456997072e-05 0.0 0.0 0.0
205 1 50.78112131147541 14.36360524590164 8.94576789925e-05 0.0 0.0 0.0
206 1 52.234275409836066 14.889780327868854 8.48558832089e-05 0.0 0.0 0.0
207 1 55.36577704918034 14.773194754098363 3.55552425912e-05 0.0 0.0 0.0
208 1 56.89971803278689 14.788796721311478 4.64334493427e-05 0.0 0.0 0.0
209 1 59.73432786885247 15.558998688524593 1.10911927398e-05 0.0 0.0 0.0
210 1 62.38060327868853 15.614640655737707 2.70828992193e-05 0.0 0.0 0.0
211 1 67.6640655737705 15.320828852459018 6.64448865665e-05 0.0 0.0 0.0
212 1 69.18336393442624 15.13163606557377 6.37552311472e-05 0.0 0.0 0.0
213 1 71.49992786885247 15.455288524590166 5.4790583804e-05 0.0 0.0 0.0
214 1 74.00886557377049 15.14244131147541 8.25033247014e-05 0.0 0.0 0.0
215 1 76.16739016393443 14.338359344262297 7.73034476328e-05 0.0 0.0 0.0
216 1 78.68693114754099 15.202880000000002 8.88121303822e-05 0.0 0.0 0.0
217 1 81.55789508196722 14.301853770491805 7.15188945419e-05 0.0 0.0 0.0
218 1 0.42619828196721316 16.61291409836066 2.97479112055e-05 0.0 0.0 0.0
219 1 2.850686426229508 16.99367278688525 9.86549977224e-05 0.0 0.0 0.0
220 1 5.321179672131148 17.280264262295084 9.37727136045e-05 0.0 0.0 0.0
221 1 7.914287213114755 17.755594098360657 5.42610311066e-05 0.0 0.0 0.0
222 1 9.999800655737706 17.017959344262298 1.03281328386e-05 0.0 0.0 0.0
223 1 12.630272131147542 16.61352 7.16129068812e-06 0.0 0.0 0.0
224 1 15.18833836065574 16.978424262295086 3.88564568024e-05 0.0 0.0 0.0
225 1 17.60144262295082 15.845337704918036 9.32908437081e-05 0.0 0.0 0.0
226 1 21.699660327868852 16.85456786885246 6.54905398945e-05 0.0 0.0 0.0
227 1 24.417331147540988 17.257845901639346 1.76598723185e-06 0.0 0.0 0.0
228 1 26.994887213114758 17.570440655737706 8.14306821517e-05 0.0 0.0 0.0
229 1 29.48468852459017 17.290716065573772 4.54771569795e-05 0.0 0.0 0.0
230 1 32.89137049180328 16.507588196721315 7.44273756699e-06 0.0 0.0 0.0
231 1 35.49210229508197 15.837158032786887 6.91464834873e-05 0.0 0.0 0.0
232 1 37.84587868852459 17.41719803278689 3.15444953588e-05 0.0 0.0 0.0
233 1 40.559914098360665 16.280980983606558 3.3278457268e-05 0.0 0.0 0.0
234 1 43.34918229508197 16.027411147540985 5.26648148375e-08 0.0 0.0 0.0
235 1 46.13638032786886 16.92152 1.6189179282e-07 0.0 0.0 0.0
236 1 48.78260524590165 16.024785573770494 4.83124942879e-05 0.0 0.0 0.0
237 1 50.48589573770492 18.31105442622951 1.25088312038e-05 0.0 0.0 0.0
238 1 53.26077377049181 17.790332459016394 7.95299457917e-05 0.0 0.0 0.0
239 1 55.710131147540984 17.133838032786887 3.82015151766e-05 0.0 0.0 0.0
240 1 57.90299016393443 18.358314754098362 6.53038865491e-05 0.0 0.0 0.0
241 1 60.16148852459017 17.035480000000003 1.82212004586e-05 0.0 0.0 0.0
242 1 64.14276721311477 17.544891803278688 9.75701195275e-07 0.0 0.0 0.0
243 1 67.24548852459017 17.76246098360656 4.13463405005e-05 0.0 0.0 0.0
244 1 70.12907540983608 17.796593442622953 4.65001032534e-05 0.0 0.0 0.0
245 1 72.90057049180328 17.64925836065574 3.70528109833e-06 0.0 0.0 0.0
246 1 76.36784262295082 16.879258360655736 8.61051491637e-05 0.0 0.0 0.0
247 1 77.84624262295083 16.48466491803279 3.54959546027e-05 0.0 0.0 0.0
248 1 80.23955409836066 16.550001311475413 6.14030637736e-05 0.0 0.0 0.0
249 1 0.5091340983606558 18.14635016393443 7.21385608216e-05 0.0 0.0 0.0
250 1 3.6917839344262298 19.49650098360656 4.71843151683e-05 0.0 0.0 0.0
251 1 6.204483278688525 19.69932655737705 6.65352929786e-05 0.0 0.0 0.0
252 1 9.032125245901641 19.851963278688526 2.72162273898e-05 0.0 0.0 0.0
253 1 11.541113442622951 19.044801311475414 7.01260432219e-06 0.0 0.0 0.0
254 1 13.214209836065574 20.483868196721314 8.82054011488e-05 0.0 0.0 0.0
255 1 17.13908918032787 18.575782950819676 3.39103772185e-05 0.0 0.0 0.0
256 1 19.90457573770492 18.481009836065574 1.10849156577e-05 0.0 0.0 0.0
257 1 22.625881967213118 19.270499672131148 7.48857687823e-05 0.0 0.0 0.0
258 1 25.875887868852463 19.816316065573773 7.86508331934e-05 0.0 0.0 0.0
259 1 28.93129836065574 19.760017704918035 5.80086462334e-05 0.0 0.0 0.0
260 1 30.67887016393443 18.236881967213115 2.3575394319e-05 0.0 0.0 0.0
261 1 34.60243672131148 18.35887016393443 4.76270183687e-05 0.0 0.0 0.0
262 1 37.16035147540984 18.8112262295082 3.88212642154e-05 0.0 0.0 0.0
263 1 39.630107540983616 18.862222950819675 8.29268607324e-05 0.0 0.0 0.0
264 1 42.39140327868853 18.34104655737705 5.93362627244e-05 0.0 0.0 0.0
265 1 46.41428721311476 18.424711475409836 8.13130020493e-07 0.0 0.0 0.0
266 1 47.95474163934427 18.296714754098364 9.71882473085e-05 0.0 0.0 0.0
267 1 49.20708983606558 20.62867868852459 8.38828011324e-05 0.0 0.0 0.0
268 1 51.86972459016394 20.230146885245905 3.94391285952e-05 0.0 0.0 0.0
269 1 55.71164590163934 19.562998688524594 2.47605352669e-05 0.0 0.0 0.0
270 1 57.26931803278689 19.757947540983608 5.12149094041e-05 0.0 0.0 0.0
271 1 59.785324590163945 19.88341967213115 6.81992792484e-05 0.0 0.0 0.0
272 1 62.63003278688525 19.60425049180328 7.50910267501e-06 0.0 0.0 0.0
273 1 65.04455081967214 18.802036721311477 6.65798279616e-06 0.0 0.0 0.0
274 1 68.79457704918033 19.896699016393445 2.07068479808e-05 0.0 0.0 0.0
275 1 72.30527213114755 19.730530491803282 3.72031866679e-05 0.0 0.0 0.0
276 1 73.8316393442623 19.874331147540985 6.98339922938e-05 0.0 0.0 0.0
277 1 76.35925901639345 19.677059672131147 3.09817522687e-05 0.0 0.0 0.0
278 1 79.67505573770492 18.810266885245905 1.52336637428e-05 0.0 0.0 0.0
279 1 81.16102950819673 18.489643934426233 1.59395747391e-05 0.0 0.0 0.0
280 1 82.04261639344263 20.93258885245902 3.66623508827e-05 0.0 0.0 0.0
281 1 1.89806262295082 21.296887213114754 5.65164476311e-05 0.0 0.0 0.0
282 1 3.9267727868852464 20.995703606557377 4.98225161057e-05 0.0 0.0 0.0
283 1 7.3477186885245915 22.953422295081968 8.62245812616e-05 0.0 0.0 0.0
284 1 9.673068196721312 21.22246229508197 5.71362559408e-05 0.0 0.0 0.0
285 1 14.728509508196723 20.319163934426232 3.28947958713e-05 0.0 0.0 0.0
286 1 16.681078032786886 21.135262950819676 8.83834106915e-05 0.0 0.0 0.0
287 1 18.90544393442623 20.655237377049183 5.05400604373e-05 0.0 0.0 0.0
288 1 21.103200655737705 22.14555344262295 8.53102238463e-05 0.0 0.0 0.0
289 1 23.395982950819672 20.608633442622953 4.62709539e-05 0.0 0.0 0.0
290 1 26.86158885245902 21.01191147540984 6.98523259761e-05 0.0 0.0 0.0
291 1 31.598325901639345 20.793685901639346 2.55981893205e-05 0.0 0.0 0.0
292 1 33.11318098360656 20.432619016393442 9.59078452556e-05 0.0 0.0 0.0
293 1 35.24075409836066 21.96125836065574 8.05917879589e-05 0.0 0.0 0.0
294 1 38.041382950819674 21.278205245901642 4.4403368156e-05 0.0 0.0 0.0
295 1 41.59747016393443 20.68588590163935 9.48199209173e-05 0.0 0.0 0.0
296 1 43.11964655737705 20.583589508196724 3.38437410289e-05 0.0 0.0 0.0
297 1 45.558350163934435 20.963540327868856 2.25725801658e-05 0.0 0.0 0.0
298 1 48.152467540983615 21.69678229508197 2.7415815068e-05 0.0 0.0 0.0
299 1 49.0144131147541 23.76644131147541 5.53409289246e-05 0.0 0.0 0.0
300 1 52.769993442622955 22.127022950819676 6.61977744539e-05 0.0 0.0 0.0
301 1 55.57228852459017 22.25274754098361 2.64225246102e-05 0.0 0.0 0.0
302 1 58.88657049180329 22.263653770491807 9.49177908166e-05 0.0 0.0 0.0
303 1 61.68078688524591 21.785092459016397 3.57077570682e-05 0.0 0.0 0.0
304 1 64.50479344262295 21.498753442622952 1.73186928684e-05 0.0 0.0 0.0
305 1 67.29194098360657 22.039217704918034 3.29540767178e-05 0.0 0.0 0.0
306 1 69.76553442622951 22.412604590163934 9.66214566348e-05 0.0 0.0 0.0
307 1 72.25932459016394 22.35049967213115 8.00001712883e-05 0.0 0.0 0.0
308 1 75.73417049180328 22.051891147540985 6.6482847038e-05 0.0 0.0 0.0
309 1 77.25245901639344 21.878098360655738 5.5246024307e-05 0.0 0.0 0.0
310 1 80.50867540983607 21.119459016393446 6.53411408718e-05 0.0 0.0 0.0
311 1 0.8861361967213115 23.449453770491807 8.88144398984e-05 0.0 0.0 0.0
312 1 3.61817193442623 23.711657704918032 8.694713348e-05 0.0 0.0 0.0
313 1 6.402663606557378 24.14750295081967 8.36944971421e-05 0.0 0.0 0.0
314 1 9.128665573770492 23.963056393442624 5.83910062907e-05 0.0 0.0 0.0
315 1 11.513595409836068 22.9877062295082 6.74987004405e-06 0.0 0.0 0.0
316 1 14.33553180327869 22.884854426229513 5.51239016231e-05 0.0 0.0 0.0
317 1 17.778365901639347 23.388510163934427 8.24498953243e-05 0.0 0.0 0.0
318 1 20.645542950819674 23.59981836065574 6.86290279848e-05 0.0 0.0 0.0
319 1 23.094849836065578 23.36715213114754 9.50295604861e-05 0.0 0.0 0.0
320 1 25.844481967213117 23.75119278688525 9.97202776266e-05 0.0 0.0 0.0
321 1 29.19345180327869 24.046670819672133 3.90668811226e-05 0.0 0.0 0.0
322 1 31.639274754098363 23.374422950819675 3.18500904829e-05 0.0 0.0 0.0
323 1 34.30645377049181 23.187047868852463 4.73637323141e-05 0.0 0.0 0.0
324 1 36.70683409836066 23.71726229508197 8.10650078536e-05 0.0 0.0 0.0
325 1 39.12493704918033 23.60784655737705 7.73221479178e-05 0.0 0.0 0.0
326 1 41.55374426229508 23.41431147540984 2.84025728571e-05 0.0 0.0 0.0
327 1 43.98113770491804 23.17593967213115 7.72390764415e-05 0.0 0.0 0.0
328 1 46.55465442622951 23.592699016393446 9.59810009272e-05 0.0 0.0 0.0
329 1 48.61648721311476 25.239590163934427 4.74936653254e-05 0.0 0.0 0.0
330 1 50.476605245901645 24.062323278688527 7.47180191754e-05 0.0 0.0 0.0
331 1 54.22567213114755 25.398386885245905 3.7706310351e-05 0.0 0.0 0.0
332 1 56.39732459016394 23.573865573770494 4.76050588619e-05 0.0 0.0 0.0
333 1 61.13598032786886 23.989615081967212 7.56199125737e-05 0.0 0.0 0.0
334 1 63.78730491803279 23.634708196721313 2.65976971288e-05 0.0 0.0 0.0
335 1 65.3156918032787 23.84096721311476 1.6749587127e-05 0.0 0.0 0.0
336 1 68.99401967213116 24.60622098360656 6.42471999682e-05 0.0 0.0 0.0
337 1 71.51154098360657 24.70361967213115 3.59592263176e-05 0.0 0.0 0.0
338 1 73.04194754098361 24.802028196721313 8.39921791563e-06 0.0 0.0 0.0
339 1 75.46656393442623 24.833989508196723 7.13280041636e-05 0.0 0.0 0.0
340 1 78.15474754098362 24.340280655737708 2.2327567664e-05 0.0 0.0 0.0
341 1 80.86817704918033 23.74048852459017 1.06365162457e-05 0.0 0.0 0.0
342 1 82.60459016393443 25.802119344262298 5.96761295478e-05 0.0 0.0 0.0
343 1 2.423505573770492 25.799089836065576 2.26990317566e-06 0.0 0.0 0.0
344 1 4.968009704918034 26.12890229508197 4.93370628094e-05 0.0 0.0 0.0
345 1 7.7042413114754105 26.23745967213115 3.60009576279e-05 0.0 0.0 0.0
346 1 10.60176393442623 25.81090491803279 3.22425964364e-05 0.0 0.0 0.0
347 1 13.155437377049182 24.96168327868853 1.15777019938e-05 0.0 0.0 0.0
348 1 15.134463606557379 24.16416524590164 7.79857528079e-06 0.0 0.0 0.0
349 1 18.348468852459018 24.79374754098361 6.77981187969e-05 0.0 0.0 0.0
350 1 21.52384786885246 25.829738360655742 5.82089027326e-05 0.0 0.0 0.0
351 1 23.961238688524592 25.639333770491806 1.17019394165e-06 0.0 0.0 0.0
352 1 26.35182360655738 25.233177704918035 6.10788004736e-05 0.0 0.0 0.0
353 1 30.42853180327869 26.012114754098363 8.54910504554e-05 0.0 0.0 0.0
354 1 32.86970950819673 25.570260983606563 4.66445696274e-05 0.0 0.0 0.0
355 1 35.27922885245902 26.79928196721312 7.98000346361e-05 0.0 0.0 0.0
356 1 38.64415409836066 25.95758360655738 3.26167874977e-05 0.0 0.0 0.0
357 1 40.16410885245902 25.910020327868857 3.9956869402e-05 0.0 0.0 0.0
358 1 43.38174950819673 25.670992131147546 2.17417770788e-05 0.0 0.0 0.0
359 1 44.91508459016394 25.659076065573775 3.56571047726e-05 0.0 0.0 0.0
360 1 46.996508196721315 27.710356065573773 1.74764626083e-05 0.0 0.0 0.0
361 1 49.660253770491806 26.373434098360658 4.3961927261e-06 0.0 0.0 0.0
362 1 53.939383606557385 26.880573770491804 6.86987233838e-05 0.0 0.0 0.0
363 1 55.98379672131148 27.88217967213115 8.20395932196e-05 0.0 0.0 0.0
364 1 58.30036065573771 26.493806557377052 5.2449313114e-05 0.0 0.0 0.0
365 1 60.57552131147542 26.444425573770495 5.6365496767e-05 0.0 0.0 0.0
366 1 63.05921311475411 26.012417704918033 3.52466480165e-05 0.0 0.0 0.0
367 1 65.73174426229508 26.564848524590168 8.21490980894e-05 0.0 0.0 0.0
368 1 68.20281311475411 26.89698360655738 9.45854785878e-05 0.0 0.0 0.0
369 1 70.79304262295082 27.052397377049186 8.35946503824e-05 0.0 0.0 0.0
370 1 74.3512 27.30389704918033 7.51226844044e-05 0.0 0.0 0.0
371 1 77.50037377049182 26.703902950819675 7.99859571527e-05 0.0 0.0 0.0
372 1 80.15068852459018 26.074017704918035 6.67016014494e-05 0.0 0.0 0.0
373 1 1.4289634754098364 28.177859672131152 3.07573912617e-05 0.0 0.0 0.0
374 1 3.992523213114754 29.409657704918036 2.08738900699e-05 0.0 0.0 0.0
375 1 7.3213114754098365 28.04511672131148 2.13080285007e-05 0.0 0.0 0.0
376 1 8.696960655737705 27.381502950819673 1.78619953474e-05 0.0 0.0 0.0
377 1 12.575236065573772 27.447950163934426 5.9102428553e-06 0.0 0.0 0.0
378 1 15.106844590163936 26.95272655737705 8.94845117155e-05 0.0 0.0 0.0
379 1 16.702587540983608 28.72069704918033 6.02736082834e-05 0.0 0.0 0.0
380 1 19.52376655737705 27.823861639344265 3.94834981373e-05 0.0 0.0 0.0
381 1 22.374634754098363 28.08970098360656 5.99939715081e-05 0.0 0.0 0.0
382 1 25.211668196721316 27.878443278688525 3.08855674449e-05 0.0 0.0 0.0
383 1 27.498189508196724 29.05177180327869 7.19366519062e-05 0.0 0.0 0.0
384 1 32.23336131147541 28.273036721311477 3.73017120861e-05 0.0 0.0 0.0
385 1 34.80788786885247 28.237187540983612 3.21331265895e-05 0.0 0.0 0.0
386 1 36.221203934426235 28.76346360655738 9.41889551937e-05 0.0 0.0 0.0
387 1 38.61481836065574 28.896963934426232 3.49478933627e-05 0.0 0.0 0.0
388 1 41.06412524590164 28.626125901639348 8.12634474916e-05 0.0 0.0 0.0
389 1 43.4365331147541 29.830506885245907 3.08446903012e-05 0.0 0.0 0.0
390 1 46.464678032786885 29.155835409836065 7.89058681213e-05 0.0 0.0 0.0
391 1 48.46884918032787 28.15746098360656 5.379082462e-05 0.0 0.0 0.0
392 1 52.81392131147542 27.96387540983607 5.19492591075e-05 0.0 0.0 0.0
393 1 55.071914754098366 29.087822950819675 4.30504859712e-05 0.0 0.0 0.0
394 1 57.40110163934427 29.304634754098366 9.84878617682e-05 0.0 0.0 0.0
395 1 59.71665573770492 28.981285245901645 1.94503315492e-06 0.0 0.0 0.0
396 1 62.18267540983607 28.562051803278692 6.35821521808e-05 0.0 0.0 0.0
397 1 64.39219672131148 29.736945573770495 2.78495360185e-05 0.0 0.0 0.0
398 1 67.1944918032787 29.09267016393443 7.38183977558e-05 0.0 0.0 0.0
399 1 69.86399344262296 29.259798032786886 6.19432819048e-05 0.0 0.0 0.0
400 1 71.77106885245902 28.298484590163934 1.93549660947e-05 0.0 0.0 0.0
401 1 75.4640393442623 28.358216393442625 4.37652771728e-05 0.0 0.0 0.0
402 1 79.79573114754099 28.332566557377053 6.87354431216e-05 0.0 0.0 0.0
403 1 81.35441311475411 28.33807016393443 9.08330583131e-05 0.0 0.0 0.0
404 1 0.19302410491803282 30.51643803278689 8.71808575457e-05 0.0 0.0 0.0
405 1 3.1754295081967214 30.728554098360657 4.94890282212e-05 0.0 0.0 0.0
406 1 5.740716065573771 31.038977704918036 4.112982609e-05 0.0 0.0 0.0
407 1 8.30676 30.583844590163938 5.15094488646e-05 0.0 0.0 0.0
408 1 12.329139016393443 29.595619016393446 3.91941175787e-05 0.0 0.0 0.0
409 1 13.900999344262296 29.483577704918037 4.55732706891e-05 0.0 0.0 0.0
410 1 15.851800655737707 31.1760124590164 8.49006562877e-05 0.0 0.0 0.0
411 1 18.64147278688525 30.218182950819678 3.88825329657e-05 0.0 0.0 0.0
412 1 21.525918032786887 30.613432786885248 7.48630358397e-06 0.0 0.0 0.0