# input file

2232 atoms
1 atom types

0.0 82.68810555352132 xlo xhi
0.0 83.16 ylo yhi
-10.0 10.0 zlo zhi
0.0 0.0 0.0 xy xz yz

Masses

1 12.0100 #C

Atoms

1 1 1.455491868852459 0.5645034098360656 6.571284820405975e-05
2 1 3.9106608524590167 0.8974564590163936 6.633520371897884e-05
3 1 6.704857049180329 1.1723944262295085 9.983026588488817e-05
4 1 9.290946229508197 0.9510181639344263 5.180363321952638e-05
5 1 11.926719344262295 2.3692016393442623 6.334215377549502e-06
6 1 15.915420327868855 0.9118819672131149 8.825470807600079e-05
7 1 17.468497704918033 0.7305608524590165 4.0555574733808356e-05
8 1 20.029492459016396 0.3962127147540984 3.091532923862953e-05
9 1 21.53000786885246 0.689581704918033 2.1524380310318894e-06
10 1 24.62197442622951 0.851700786885246 9.930711691713558e-05
11 1 27.253253770491806 0.08889788852459017 6.062014280234938e-05
12 1 30.039643934426234 82.85856393442624 5.350146296323868e-05
13 1 31.840232131147545 1.1087394098360657 4.785093033978217e-05
14 1 36.02681049180328 0.10522845245901641 9.304299360977975e-06
15 1 37.54752262295083 83.03175081967214 7.089686340196926e-05
16 1 40.55032065573771 0.13097826229508197 4.3857696859153075e-05
17 1 43.74741114754099 0.48283847213114756 3.244622345443414e-05
18 1 46.66750360655738 0.5439330491803279 9.302926932292936e-05
19 1 50.57814426229509 0.4301012983606558 7.65114996900543e-05
20 1 52.79574426229509 82.72779016393443 3.119043403828811e-05
21 1 53.333986885245906 1.7742163278688525 4.875080878407891e-05
22 1 56.29533114754099 0.939364655737705 9.522278925893477e-05
23 1 59.65000655737706 0.8676662950819672 9.733307949383588e-05
24 1 62.39221639344263 1.3737405901639346 6.533568794889629e-05
25 1 65.30306885245902 0.7211491803278689 1.1692235461812561e-05
26 1 67.78171147540984 0.8481158688524592 3.459603942100801e-05
27 1 70.55270163934426 1.0475988852459017 9.02660861561696e-06
28 1 73.18382950819674 1.2934030819672133 4.4242402194127064e-05
29 1 75.68064918032788 0.9057623606557378 1.1533851501277504e-08
30 1 79.7528131147541 0.23885299016393444 1.4510685493908437e-05
31 1 81.32967213114755 0.27304805901639345 1.566552354973514e-05
32 1 82.54601967213117 2.6834575737704918 6.646246860528285e-05
33 1 2.5063727213114757 3.179261836065574 8.062190147005763e-05
34 1 5.097046557377049 3.1490121967213116 2.621373695491741e-05
35 1 7.940997377049181 3.419809836065574 7.78830818679948e-05
36 1 11.507940327868853 3.8766697704918034 3.707410958142179e-05
37 1 14.026017049180329 3.785572459016394 6.180579395024484e-05
38 1 15.435091803278691 4.3510150163934425 7.425377716485173e-05
39 1 17.634312786885246 3.8594217704918035 6.311311642392878e-05
40 1 19.80172393442623 2.6745154754098364 3.608746486868427e-05
41 1 22.252091147540987 2.0335624262295084 4.783520536596562e-05
42 1 27.097537049180332 2.2802653770491808 6.325840445324132e-05
43 1 28.599466229508202 2.046316655737705 8.055746586322366e-06
44 1 30.96566360655738 2.388822754098361 7.962348302607565e-05
45 1 33.48843606557377 2.7595588196721317 5.4420152129113855e-05
46 1 35.67397377049181 4.029690229508197 9.2740360064681e-05
47 1 38.99532459016393 1.8842480655737708 9.99662272637438e-05
48 1 41.382980983606565 1.4477767213114756 7.827078545100738e-05
49 1 45.08549442622951 2.5078016393442626 9.488216840954375e-05
50 1 47.55898688524591 2.915331081967213 3.358085386380174e-05
51 1 49.863584262295085 2.9884735081967215 5.25874929232103e-06
52 1 52.52359344262295 3.0795051803278692 6.891881853600194e-05
53 1 56.00096393442624 2.704906491803279 3.441640958098336e-05
54 1 57.3728262295082 2.0374048524590167 5.3114659307038137e-05
55 1 62.53460327868853 2.8793203278688524 1.7966317857256e-05
56 1 64.04329836065574 2.7481476721311475 1.6530147461496026e-05
57 1 66.0740786885246 4.279336852459017 3.095958632312984e-05
58 1 68.77942950819673 3.161705836065574 1.9482928169947125e-06
59 1 71.56607213114755 3.42820662295082 3.778385480674561e-05
60 1 74.20780327868853 3.4869285901639344 1.641499468489146e-05
61 1 76.98838688524592 3.0206771803278696 9.720017959767391e-05
62 1 79.76240655737706 3.6453819672131154 6.273455036969463e-05
63 1 0.881652524590164 5.220044590163935 5.8061330376114987e-05
64 1 4.492659672131148 5.394746229508197 4.350008033361508e-06
65 1 6.0475042622950825 5.284068196721312 2.3096380284253815e-05
66 1 8.023147540983608 7.112275409836067 5.611575215652774e-05
67 1 11.00564786885246 6.297640655737705 3.0112860436232903e-05
68 1 13.743060983606558 5.898553442622951 9.711633734495546e-05
69 1 17.233256393442623 6.525813114754099 4.6810219796228826e-05
70 1 20.38005704918033 5.046378032786886 4.6390859827922384e-05
71 1 21.86779803278689 4.6263872131147545 1.9775823885215662e-05
72 1 24.738408524590167 4.859240262295082 1.4179845892306342e-05
73 1 26.2863862295082 5.006267344262296 4.9858774597000055e-06
74 1 29.088681311475412 4.636732983606557 3.784315310209533e-05
75 1 31.84230229508197 4.875231016393443 5.688959879240233e-05
76 1 35.241410491803286 5.488509508196723 9.323394226280055e-05
77 1 37.17176262295082 4.262452393442623 3.135227665126572e-05
78 1 39.1254924590164 5.380002622950821 7.21900082182554e-05
79 1 44.19996918032787 4.615465836065574 8.354857678642514e-06
80 1 45.712754098360655 5.011599278688525 3.491065468652299e-07
81 1 48.355697049180336 5.446550819672132 2.6474328549989214e-06
82 1 50.972485245901645 5.33036918032787 2.5177165391649117e-05
83 1 53.722773770491806 5.575304918032788 5.9812538379163044e-05
84 1 56.580104918032795 6.196707540983607 7.360106060977545e-05
85 1 59.46419672131148 5.016572721311476 1.0848204883745573e-05
86 1 62.18469508196722 5.1100734426229515 5.5984523690037385e-05
87 1 64.99759344262296 5.373893114754099 7.812002449137504e-05
88 1 67.55853770491804 5.727184262295083 5.904413024435288e-05
89 1 70.29923278688526 5.4282727868852465 6.450691668694144e-05
90 1 71.89982295081968 7.020632786885247 5.681598077338041e-05
91 1 76.01894426229508 5.375155409836066 2.080829403358331e-06
92 1 78.91464918032787 4.915700196721312 4.1742592334088694e-05
93 1 81.33270163934426 5.147790819672132 8.170662383776556e-05
94 1 82.01939016393443 7.734839344262296 7.646944160030128e-05
95 1 1.5241253770491805 7.7439278688524595 4.6025175611890204e-05
96 1 3.0027172459016396 9.569509508196722 1.4643283709027166e-05
97 1 7.311213114754099 8.469899016393443 9.14733296493373e-06
98 1 9.453479344262295 7.645014426229509 9.022296138194628e-05
99 1 13.310851147540985 7.936705573770492 3.1364228124005166e-05
100 1 14.625607213114757 7.153375737704919 9.203585051474263e-05
101 1 18.12711278688525 8.107923278688526 5.355853647664993e-05
102 1 21.542277377049185 7.525550819672132 3.329613761536572e-05
103 1 22.99987475409836 8.066974426229509 4.79899055716715e-05
104 1 25.034139016393443 7.7944701639344265 8.259112119104645e-05
105 1 27.909647213114756 7.018209180327869 9.871416381718851e-05
106 1 31.217668196721313 6.7006157377049185 6.047357940600934e-05
107 1 32.640830163934424 6.165301639344262 5.05030263509092e-05
108 1 36.32143016393443 6.560198032786886 3.174654805974413e-05
109 1 40.03358754098361 7.862482622950821 4.2031668073729236e-05
110 1 41.56328721311476 7.794823606557378 8.242475422028117e-05
111 1 44.14407475409837 7.195889836065574 6.99362420888179e-05
112 1 47.0571993442623 7.564580983606558 2.535720942919784e-06
113 1 49.63425049180328 7.744079344262296 5.265976990092736e-05
114 1 52.3292 7.629361967213115 3.0013587424841983e-05
115 1 55.7520393442623 7.5036878688524595 7.271404990356855e-05
116 1 58.75731147540984 6.9878636065573785 3.777083590155519e-05
117 1 61.51971803278689 7.161555409836066 5.1063083110809497e-05
118 1 63.68935081967214 7.440674098360656 7.220084066012895e-05
119 1 66.20636721311476 8.786684590163935 6.062897623773116e-05
120 1 68.9692786885246 7.799317377049181 4.993998114692676e-05
121 1 70.94754754098362 9.169311475409836 9.446431001384002e-05
122 1 73.19392786885246 7.865714098360657 8.560450811000282e-05
123 1 77.1661180327869 7.026843278688525 8.019294428600652e-05
124 1 79.66748196721312 7.409924590163935 3.632604355942749e-05
125 1 0.4804194098360656 10.347638688524592 9.511423437923662e-06
126 1 4.526060000000001 9.687660327868853 6.32979912146031e-05
127 1 6.163332459016394 10.792269508196723 4.4010419204234646e-05
128 1 8.955983606557378 11.00216393442623 1.165428547943912e-05
129 1 11.216097704918033 10.749200000000002 3.839302390527797e-05
130 1 13.901756721311475 11.435232131147542 5.7038220918064636e-05
131 1 17.52176655737705 10.319817704918034 7.894614254310946e-05
132 1 19.05176918032787 10.412318688524591 6.09136354684988e-05
133 1 21.734903606557378 11.315465573770492 5.175102726326312e-05
134 1 24.78708262295082 10.554200655737706 2.2190275225564716e-05
135 1 26.963834754098364 9.30316524590164 2.3216385404837092e-05
136 1 29.366891147540986 10.39040524590164 1.0202755520601893e-05
137 1 31.94111475409836 9.178551475409837 3.0028205827469934e-05
138 1 34.80733245901639 9.113467540983606 5.0656401501131764e-05
139 1 37.49753573770492 9.60621704918033 3.872204325198192e-07
140 1 39.687920655737706 10.258672131147542 8.470600468778316e-05
141 1 43.59522885245902 9.634189508196723 8.176332821739002e-05
142 1 45.88932393442623 10.61105442622951 4.4805054407139115e-06
143 1 48.672028196721314 10.068520000000001 5.3290066255594184e-05
144 1 51.983836065573776 9.597986885245902 3.082188314040513e-06
145 1 53.2996524590164 8.804962622950821 5.4864628128764525e-05
146 1 56.80529836065575 8.571488524590164 9.094362916909267e-05
147 1 59.6368786885246 9.07327606557377 2.573985613813843e-05
148 1 61.79893770491804 9.842670163934427 3.3060174844089184e-05
149 1 65.87110163934427 10.282807213114756 8.991773737131517e-05
150 1 67.43382295081967 10.296995409836066 7.042166884758063e-05
151 1 70.13361967213116 10.44549180327869 9.593333607285777e-05
152 1 72.96267540983607 10.636451803278689 9.839897870128073e-05
153 1 75.42768524590164 9.471959344262295 1.3861711077054362e-05
154 1 78.35318032786887 9.558502295081968 3.535346481256265e-05
155 1 80.55361311475411 11.205544918032787 9.130745642921502e-05
156 1 82.4243344262295 12.960084590163936 2.514973988901215e-06
157 1 2.1183836065573773 12.293037377049181 1.6611300443775314e-05
158 1 4.789632262295083 13.312264918032788 8.633859195750862e-05
159 1 7.800731147540985 12.950743606557378 6.84404387173756e-05
160 1 10.656042622950821 13.847427540983608 5.6261789479870355e-05
161 1 13.478685901639347 12.915954754098362 9.679158643679796e-05
162 1 15.798986229508198 13.32110098360656 4.13783853882697e-05
163 1 18.049102950819673 12.88793180327869 4.012610675812616e-05
164 1 20.661801311475415 12.374581639344264 7.019810652768855e-05
165 1 22.980788852459018 12.190337049180329 3.081170444902337e-05
166 1 27.14616065573771 11.99508524590164 6.015977546653817e-06
167 1 28.65293704918033 11.73333573770492 1.279365061829717e-05
168 1 31.269270819672133 11.729296393442624 1.4340411448963198e-05
169 1 33.843292459016396 11.276485901639345 6.231515230516997e-05
170 1 36.20322885245902 12.856677377049182 6.483838791634148e-05
171 1 38.93008918032787 12.250775737704918 5.0312481392522716e-05
172 1 41.84260786885246 12.004022295081969 7.838945397401093e-05
173 1 44.73760590163935 12.888588196721313 3.700370862595315e-06
174 1 47.534498360655746 12.45870098360656 1.4716451392778806e-05
175 1 49.915388852459024 12.593261639344263 5.97234353259373e-05
176 1 52.421600000000005 12.26390360655738 1.7452163117515217e-05
177 1 56.69270163934427 12.190488524590165 4.51039423598334e-06
178 1 58.78508196721312 10.931374426229509 3.710607379576914e-05
179 1 59.27283278688525 13.435212459016395 6.214299752267364e-05
180 1 61.92011803278689 12.191548852459018 5.246154083739548e-05
181 1 64.5492262295082 12.542012459016394 5.202765905132441e-05
182 1 69.23940983606558 12.578720000000002 7.020938690771029e-05
183 1 72.08512786885247 13.22592393442623 2.5224978707239554e-05
184 1 75.42718032786885 11.92313442622951 2.7503295086905544e-05
185 1 76.90558032786885 11.544142950819673 8.649886899839976e-06
186 1 79.60083278688526 12.414470163934427 8.392543851103093e-05
187 1 0.845621573770492 15.077205901639346 3.93323684763219e-05
188 1 4.611835475409836 14.81601180327869 4.082498065039437e-05
189 1 6.119404590163935 14.820455081967214 2.9224692874414937e-05
190 1 10.241908852459018 15.296188852459018 3.855580165892831e-05
191 1 12.47864524590164 15.18904524590164 9.463808030303101e-05
192 1 14.957439344262296 15.525169180327872 5.849934611913642e-05
193 1 17.361253114754103 15.602371147540985 2.087253212409327e-05
194 1 21.900213770491806 15.334764590163935 1.1781266215291398e-05
195 1 20.79050491803279 14.280697704918035 2.661076266173369e-05
196 1 24.93194360655738 15.033580983606559 9.692805816767551e-05
197 1 27.57953180327869 14.80136918032787 5.46598514867791e-07
198 1 30.384603934426234 13.959822295081969 8.767070798206876e-05
199 1 32.778723278688524 14.91497573770492 3.425411700038547e-05
200 1 35.68573836065574 14.31624393442623 3.525893559497496e-05
201 1 38.41653704918033 14.57112655737705 5.358481256848169e-06
202 1 42.19377836065574 13.50241704918033 8.34615940150805e-05
203 1 43.64996196721312 13.949572459016396 2.7210763423054118e-05
204 1 45.8721062295082 14.689681311475411 5.312738926562605e-05
205 1 48.40169508196722 15.006214426229509 1.5346750682480605e-05
206 1 51.84296393442624 14.709979016393445 9.68159450895586e-06
207 1 53.37135081967214 14.485542950819674 1.3343774608616688e-05
208 1 55.884327868852466 14.414299016393443 8.319105023874758e-05
209 1 58.617449180327874 14.81485049180328 6.483858509678957e-05
210 1 60.82798032786886 14.809397377049182 8.654760461540944e-06
211 1 63.44951475409837 14.558705573770494 9.822765624779209e-05
212 1 65.94986885245903 15.125577049180329 3.8649333806449694e-05
213 1 71.47619672131148 14.611368524590164 4.371774454232134e-05
214 1 72.94853770491804 14.949007213114756 9.023533373348505e-05
215 1 76.25676065573771 14.438080655737705 9.493100393119351e-05
216 1 77.73364590163935 14.031975081967214 2.2567548063634236e-05
217 1 80.03960655737706 13.88272131147541 2.62627877726213e-05
218 1 81.8588262295082 17.183572459016396 6.365028617797776e-05
219 1 1.2947259672131148 16.556514754098362 8.552521166068761e-05
220 1 4.766754426229508 17.44668524590164 7.237438395028784e-06
221 1 7.270163278688525 17.16484 3.583170165349178e-05
222 1 8.85464655737705 15.869977704918035 1.1694738434399233e-05
223 1 13.168868196721313 17.639664918032786 8.785143547420147e-05
224 1 16.199285245901642 18.04082229508197 8.010038244021738e-05
225 1 17.723329836065574 17.935546885245905 3.952226420657018e-05
226 1 19.872816393442626 17.27264 1.794126645945813e-05
227 1 23.213808524590167 18.443292459016394 6.831954203714058e-05
228 1 26.684211147540985 17.29854229508197 4.575344314420265e-05
229 1 30.193441967213115 16.07805442622951 8.489341259519996e-05
230 1 31.7448531147541 16.053616393442624 1.1865621028070483e-05
231 1 34.17694229508197 16.589132459016394 5.0601235439530135e-05
232 1 36.76449573770492 16.669616393442624 6.710610370485249e-05
233 1 40.58046426229509 16.344651147540986 2.867524825847421e-05
234 1 42.09779344262296 16.315365901639346 1.5236415048917386e-05
235 1 44.47171606557377 16.765550819672136 5.782852760989753e-05
236 1 46.98656131147541 18.008255081967217 2.751709676018098e-05
237 1 49.371390163934436 18.586537704918033 8.926268245658808e-05
238 1 51.86619016393443 17.166304262295082 1.8244556158382887e-05
239 1 55.48544262295083 16.61968 5.498664629285186e-05
240 1 57.008780327868855 16.790796721311477 6.109451200162919e-06
241 1 60.899678688524595 17.85061967213115 1.6244097603784513e-05
242 1 63.747921311475416 16.83815803278689 1.4622895895131439e-05
243 1 65.25611147540985 16.501377704918035 2.2548638320057823e-05
244 1 67.5565180327869 16.5173331147541 9.565975160190776e-05
245 1 69.94124590163936 16.374996721311476 9.41552309341036e-05
246 1 72.54056393442625 17.26966098360656 7.981574441739747e-05
247 1 75.06666885245902 16.845933770491804 9.556268780683593e-05
248 1 78.94595409836067 16.501731147540987 3.705866511119007e-05
249 1 1.8151803278688527 20.557384262295084 9.361131617372415e-05
250 1 4.122408327868853 19.748707540983606 6.86698212516923e-07
251 1 6.668200000000001 19.529068196721315 2.7764378103001776e-05
252 1 9.38789049180328 18.744829508196723 7.48393678970804e-05
253 1 11.136977049180329 20.515375081967218 3.822286913298135e-05
254 1 13.425063606557378 21.404636721311476 5.069206636469244e-05
255 1 15.371926557377051 22.093395409836067 4.5521885125232555e-05
256 1 19.31558885245902 20.10129180327869 3.586571902107737e-05
257 1 22.2923331147541 19.65216721311476 5.529447932390374e-06
258 1 24.509832131147544 19.238487868852463 8.659212089582449e-05
259 1 28.019466885245905 19.358052459016395 3.5680164109081404e-05
260 1 30.803433442622953 18.562554098360657 2.5262313393168424e-05
261 1 32.38781573770492 18.68681442622951 5.618843307808664e-05
262 1 35.205005901639346 18.961035409836068 2.5860892292074768e-05
263 1 38.51726819672132 18.869039344262298 3.304695620583582e-05
264 1 40.03267868852459 18.93427475409836 4.5168760347531124e-05
265 1 43.27314163934427 19.117761967213116 2.5797449419082553e-05
266 1 46.17187606557378 19.327555409836066 4.1874351936623405e-05
267 1 48.77634426229509 19.989099016393443 1.999294933601894e-05
268 1 51.82327213114755 19.496702950819675 2.0052229556185896e-05
269 1 53.32237377049181 19.328363278688528 3.759389501802326e-05
270 1 55.61773114754099 19.272468852459017 2.6600503586865255e-05
271 1 57.95903606557378 18.019060327868853 1.271927625725089e-06
272 1 62.69668196721312 19.13679737704918 8.844404037710785e-05
273 1 65.01021639344262 19.408089836065574 5.868735002338434e-05
274 1 67.03493770491805 18.94250491803279 7.795104315024625e-05
275 1 69.28333770491804 18.82384918032787 6.60678693971256e-05
276 1 72.04826885245903 19.763299672131147 7.32389174249983e-05
277 1 75.16512786885248 19.662467540983606 9.387215001373163e-05
278 1 77.89925901639346 18.40769573770492 5.675902061145074e-05
279 1 81.82651147540984 19.691399344262297 1.9323687942345557e-05
280 1 1.675721967213115 22.081327868852462 5.347500416412664e-05
281 1 4.467954032786886 22.060171803278692 6.650186486784747e-05
282 1 5.995699672131147 21.87648262295082 8.681741907894969e-06
283 1 7.645822295081968 20.681493114754097 6.487966631987714e-05
284 1 9.005061639344264 22.685310819672132 2.3182397505991728e-05
285 1 12.82784655737705 22.81406491803279 2.0240318028977555e-05
286 1 16.88228786885246 21.93581049180328 9.401339978560013e-05
287 1 18.560433442622955 22.687633442622953 6.656127316038e-05
288 1 21.166769836065576 21.64896655737705 9.009335261379155e-05
289 1 23.490099672131148 22.003015081967213 1.4521983219490942e-05
290 1 25.941022295081968 21.493401311475413 4.183435799972374e-05
291 1 28.464552131147546 21.813569836065575 4.192725303773013e-05
292 1 30.664480000000005 22.141261639344265 5.001733033584589e-05
293 1 34.42122163934426 20.919915409836065 5.006227945014649e-05
294 1 35.91300196721312 21.289666885245904 5.010250666275354e-05
295 1 39.35861311475411 20.85558885245902 9.297247700977222e-05
296 1 40.79338819672132 20.255847213114755 3.0576923019352356e-05
297 1 44.445106885245906 21.316427540983607 8.258210193113715e-05
298 1 47.14566098360656 21.89622491803279 3.2384656589730245e-05
299 1 49.887971803278695 22.483848524590165 4.79505730262834e-05
300 1 52.52712786885247 22.04320655737705 1.698302508534675e-05
301 1 55.09716065573771 22.929640655737707 3.4016379066419646e-05
302 1 58.675514754098366 21.81877049180328 2.615174478413207e-06
303 1 61.23494426229509 20.904666885245902 5.3821115557727855e-05
304 1 63.986747540983615 21.684916721311478 5.5447206761067685e-05
305 1 66.7203737704918 21.709960655737707 4.635144906531363e-05
306 1 69.72766557377051 22.07526885245902 1.3982046787099168e-05
307 1 72.54864262295082 21.197468852459018 4.1143082148674306e-05
308 1 75.27620983606559 21.66416459016394 2.199932665963067e-05
309 1 77.71597377049181 21.935608524590165 5.131537689523609e-05
310 1 81.64676065573771 21.243062950819674 1.8024182487109686e-06
311 1 2.4455906885245904 24.64787672131148 9.169945257942883e-05
312 1 5.155718032786886 24.8655468852459 5.238841100165236e-05
313 1 9.530479344262295 25.381118688524595 4.133670996668825e-05
314 1 9.981775081967214 23.89241836065574 6.739434266635548e-05
315 1 12.149943606557377 25.04161180327869 9.279489771634763e-06
316 1 14.79021049180328 24.64555409836066 5.427104634094758e-05
317 1 17.11717573770492 25.947283278688527 2.4754337603703937e-06
318 1 21.033673442622955 23.82738491803279 6.663655306526263e-05
319 1 21.156822950819674 26.010499016393446 5.754740890959344e-05
320 1 24.684988196721314 24.208850491803283 4.2609265391623586e-05
321 1 27.193118032786888 23.98840327868853 1.715518553204648e-05
322 1 29.529272786885247 24.480950819672135 7.069369346432563e-05
323 1 31.575352131147547 23.342865573770496 5.893020162891616e-07
324 1 35.10493114754099 23.750990819672133 4.595640860903871e-05
325 1 37.41674885245902 23.745184262295083 6.2095273295492474e-06
326 1 40.01838950819673 24.764260327868858 7.044348072168142e-05
327 1 42.72570950819673 23.411736393442627 6.395779986820497e-05
328 1 45.57339672131148 23.798402622950825 6.594026031013716e-05
329 1 48.46622360655738 24.319124590163934 6.771448305100733e-05
330 1 51.389547540983614 24.523111475409838 6.029115548340841e-05
331 1 56.50840655737705 22.24845573770492 4.593974349948693e-06
332 1 57.79897704918033 23.066473442622954 2.3486076817150892e-05
333 1 61.07236065573771 23.34069442622951 7.902343759492245e-05
334 1 62.65325901639345 23.330091147540987 8.432228569468386e-05
335 1 65.35356065573771 24.647573770491803 7.762048382982521e-05
336 1 69.83975737704918 23.59805114754099 5.862754536012579e-05
337 1 71.39137049180329 23.686310819672133 4.463934151036437e-05
338 1 75.24995409836066 23.18634098360656 9.803038990594676e-05
339 1 76.78339016393443 23.14125180327869 2.0592702868951174e-05
340 1 79.12368524590164 22.507428196721314 9.914380295768265e-05
341 1 82.660131147541 23.718524590163938 2.2303758671775376e-05
342 1 0.5702342295081967 26.36762754098361 9.34510792819445e-05
343 1 3.2377616393442623 26.899508196721314 4.3035869278054165e-05
344 1 5.936624262295083 27.131669508196723 1.2738239420815046e-05
345 1 8.341346885245901 27.55650754098361 5.206964285219442e-05
346 1 11.981401967213115 27.174739016393442 6.905068173749316e-05
347 1 13.547556721311476 27.12147016393443 7.907067916963885e-05
348 1 16.38302491803279 27.31000655737705 4.270864551511752e-05
349 1 18.771489180327873 27.2011462295082 5.7349619036013716e-05
350 1 21.325465573770494 28.324235409836067 8.083975510849575e-05
351 1 22.67193049180328 26.163438688524593 5.8377651033959815e-05
352 1 26.173335081967213 26.445990819672136 7.686005762276189e-05
353 1 28.458392131147544 26.632709508196726 5.9330017251570136e-05
354 1 31.037563934426235 26.266694426229513 4.393643039899887e-06
355 1 33.62754098360656 26.097092459016395 6.452038247096093e-05
356 1 36.345363278688524 26.27022885245902 7.956423077996306e-05
357 1 39.21137901639345 26.095476721311478 8.195294628502666e-05
358 1 41.69996852459017 26.02741377049181 9.850423576812684e-05
359 1 44.109386885245904 25.723049180327873 2.4197758283877714e-06
360 1 46.850081967213114 26.069422950819675 9.132451291543496e-05
361 1 49.60011803278689 26.480577704918037 2.017559109082847e-05
362 1 53.48748196721312 26.191714098360656 3.218329924688872e-05
363 1 54.98102950819673 25.822619016393446 6.169158755545842e-05
364 1 57.53944918032787 25.81711540983607 9.699480482047855e-05
365 1 60.24278032786886 25.83211147540984 5.3731087809943633e-05
366 1 64.78451803278689 26.08426754098361 7.447007274851943e-05
367 1 67.34748196721313 25.954655081967218 1.0470673298255086e-05
368 1 69.83066885245901 26.962824918032787 3.217561402576981e-05
369 1 72.69153442622952 26.237257704918036 5.755262604665966e-05
370 1 75.2600524590164 25.283619016393445 1.0134074546740092e-05
371 1 78.1789836065574 25.209295081967216 4.2365987574687126e-05
372 1 80.96158688524591 25.41323147540984 1.187015885268633e-05
373 1 1.2855667540983609 28.763968524590165 9.704943425196537e-05
374 1 4.017471213114755 29.15427016393443 6.484704822842677e-05
375 1 6.2858255737704924 29.646514754098362 3.8516661864420253e-05
376 1 9.88377049180328 30.94258885245902 9.766062915244167e-06
377 1 12.3346931147541 29.49801836065574 6.908027687529188e-05
378 1 15.13325180327869 29.41107147540984 8.741387122742894e-05
379 1 18.006083934426233 29.697713442622952 5.0348068135208494e-05
380 1 21.01736459016394 29.79839409836066 1.8240668567019348e-05
381 1 23.51862754098361 28.948819016393447 9.915419798737345e-05
382 1 24.999653114754103 28.61501770491804 2.2530286326874285e-05
383 1 27.281276721311478 29.047480000000004 7.094606520268633e-05
384 1 29.888774426229514 28.741701639344264 6.551188089801205e-05
385 1 32.44633573770492 28.48747540983607 9.799198645280745e-05
386 1 34.885089836065575 29.211628852459018 1.7559565648342147e-05
387 1 37.61144524590164 28.31948918032787 3.1171791346126035e-05
388 1 40.388494426229514 28.484900327868857 3.25474815176676e-05
389 1 43.43456393442623 28.282832131147543 4.8564701085382157e-05
390 1 46.0069193442623 29.069393442622953 5.2613477181184356e-05
391 1 48.58593967213115 29.174466885245906 8.753267776706762e-05
392 1 51.01338360655738 29.652472786885248 7.028481598687606e-05
393 1 53.582406557377055 28.4670262295082 4.978713361366808e-05
394 1 56.46144918032787 28.31060262295082 8.429304674332215e-05
395 1 59.67070819672132 27.80785573770492 4.3854666018667304e-05
396 1 62.38363278688526 27.851531147540985 2.7978524102605254e-05
397 1 66.34774426229508 28.307724590163936 8.747843069580051e-05
398 1 69.17225573770493 28.345593442622956 1.575825374432144e-05
399 1 71.52163934426231 28.505349508196723 1.7759456160306753e-05
400 1 74.28657049180329 28.86368983606558 8.84847280681885e-05
401 1 76.58243278688525 27.175900327868856 6.670473039126428e-05
402 1 79.14236721311475 27.362720000000003 5.522310581614476e-06
403 1 81.4700393442623 28.23183540983607 7.855158847003838e-05
404 1 82.38545573770493 30.852713442622953 9.776406488662169e-05
405 1 2.4979910819672138 31.110272131147543 6.081950760007641e-05
406 1 4.210284262295082 33.11762426229509 6.041064419514136e-05
407 1 7.494649836065574 30.568293114754102 8.653423182234687e-06
408 1 11.673502950819673 32.139648524590164 8.500234828546808e-05
409 1 13.917106229508198 31.68431344262295 1.1493956337543954e-05
410 1 16.338339672131152 31.691180327868857 9.484170416969359e-05
411 1 20.28841442622951 31.506380327868857 5.611338176642683e-05
412 1 21.79069704918033 31.921372459016396 5.4674452114289e-05
413 1 24.77496459016394 31.896681967213116 5.316105591768774e-05
414 1 26.259070163934428 31.376919344262298 9.287041976895723e-05
415 1 28.95018229508197 31.162733114754104 9.638815962453799e-05
416 1 31.638062950819673 31.78711475409836 5.5258067509055975e-05
417 1 34.31301770491804 30.611615081967216 2.7191276893764672e-05
418 1 36.36858950819673 32.105465573770495 9.984888608462841e-05
419 1 39.02572065573771 30.560365901639347 1.473720545858358e-05
420 1 41.38757573770492 29.64949377049181 4.696205545748066e-05
421 1 45.179914098360655 30.382129836065577 4.109683429782287e-05
422 1 47.97594819672132 30.575008524590167 6.840053955508538e-05
423 1 50.43313180327869 31.0511462295082 2.1739362444189106e-05
424 1 52.74373770491803 31.05685180327869 4.99051059175426e-05
425 1 55.35567868852459 30.49563540983607 8.52387825523672e-05
426 1 57.580852459016405 29.45833180327869 9.441014932313114e-05
427 1 61.93930491803279 29.32659868852459 1.9656151969390925e-05
428 1 64.61739016393443 29.941639344262295 4.082908830565302e-06
429 1 67.53278688524591 30.41681770491804 3.579205510926814e-05
430 1 70.21390163934427 30.918807213114757 7.823275736592965e-05
431 1 72.70062295081969 30.78091409836066 9.814386301883452e-05
432 1 75.2757049180328 30.08937836065574 4.92605437370344e-05
433 1 78.08355409836065 30.764403278688526 5.781777750341015e-05
434 1 78.64603278688524 29.344927213114758 5.047779092130137e-05
435 1 1.3003255081967215 33.13044918032787 4.376428013519847e-05
436 1 5.710067540983607 32.84067672131148 4.44708572787655e-05
437 1 7.749936393442624 33.343019672131156 2.7153411599164515e-06
438 1 10.178592131147541 33.93453114754099 8.575708017762409e-05
439 1 12.67157442622951 34.39920721311476 2.7573425183337163e-06
440 1 14.880893770491806 34.16411737704919 4.543794195276351e-05
441 1 17.313538360655738 34.11796786885246 9.853368359667071e-05
442 1 19.675292459016397 33.78780196721312 6.44598930909939e-05
443 1 22.072693770491806 33.411385573770495 1.9437123635335917e-05
444 1 25.654430819672132 34.641466885245904 2.51873761239796e-05
445 1 28.235874754098365 33.62355213114755 8.041435087944309e-05
446 1 31.771967213114756 33.30055606557377 1.739690901189138e-05
447 1 33.27995540983607 33.11666491803279 9.138023265250338e-05
448 1 35.72416262295082 33.51024852459017 4.5860952224399975e-05
449 1 38.12121049180328 32.819924590163936 6.93604196355466e-05
450 1 40.98015737704919 32.37292065573771 3.3288608185680126e-05
451 1 44.12796786885246 32.58892459016394 7.094745375913962e-05
452 1 45.482561967213115 31.872799344262297 8.600320969795366e-05
453 1 48.44501704918033 34.267524590163944 6.474519046684923e-05
454 1 51.366826229508206 33.52120524590164 7.141138828813468e-05
455 1 54.1928524590164 32.984275409836066 6.686104418723615e-06
456 1 56.333200000000005 31.683505573770496 6.1765346260663e-05
457 1 60.29478688524591 31.396510163934426 1.494811456513192e-05
458 1 62.95721967213115 31.814380327868857 2.5163484543130167e-05
459 1 65.77163278688525 32.0831986885246 2.1532418517347107e-06
460 1 68.54060327868854 32.87061836065574 3.2076245036474996e-06
461 1 72.28709508196722 34.478984262295086 6.399162381719272e-05