# input file

2232 atoms
1 atom types

0.0 82.68810555352132 xlo xhi
0.0 83.16 ylo yhi
-10.0 10.0 zlo zhi
0.0 0.0 0.0 xy xz yz

Masses

1 12.0100 #C

Atoms

1 1 1.7547315409836068 1.124629180327869 3.906154417455694e-05
2 1 3.298048852459017 1.4799652459016395 4.1910947973021984e-05
3 1 6.19701049180328 1.7085113442622952 9.154611021682611e-05
4 1 8.891960000000001 2.5558445901639346 9.330282108888598e-05
5 1 11.809174426229509 1.8509032786885249 3.4305609099484315e-05
6 1 14.664031475409837 1.8652379016393443 9.491054371145146e-05
7 1 17.18761180327869 1.577621442622951 5.6763278951594786e-05
8 1 19.75476655737705 1.7301420327868855 6.179919321895555e-05
9 1 23.521556065573773 2.502232393442623 3.381913940000169e-05
10 1 25.92860131147541 0.7806992131147541 4.013282912011718e-06
11 1 28.965733770491806 1.2166151475409839 5.3182011510745665e-05
12 1 30.522648524590167 1.1292340327868855 8.156330222487646e-05
13 1 33.0138131147541 0.8859039344262296 5.417542419432777e-05
14 1 35.68286032786885 0.4985843409836066 3.5587883965094634e-05
15 1 39.75477180327869 0.03211889639344263 3.800667210593545e-05
16 1 41.349403934426235 0.03117086229508197 6.841211150683017e-05
17 1 44.125190819672135 83.1332393442623 4.261219929172573e-05
18 1 46.78530098360656 0.2511401704918033 1.1727321129940904e-06
19 1 49.2001724590164 83.02569180327869 5.627323002375805e-05
20 1 52.1984262295082 83.15495081967214 5.7794721028816666e-06
21 1 55.17794754098362 0.18098281967213115 5.227946483399444e-05
22 1 57.606603278688524 82.52784262295083 4.760062394758502e-06
23 1 59.94437377049181 82.06432786885247 5.247532857344266e-05
24 1 62.63154754098362 82.26932459016395 5.4658433296557255e-05
25 1 64.99506885245901 0.21983373770491807 1.2377829660299633e-05
26 1 67.47825573770493 0.8229760000000002 6.436694354477534e-05
27 1 70.60420327868853 0.9134068196721312 2.6151160969569387e-05
28 1 72.7763606557377 2.2201195409836068 1.7365577695180403e-05
29 1 75.57461639344262 1.2703586229508197 2.541179531546102e-05
30 1 78.05830819672133 1.4469385573770492 2.7774792947353868e-05
31 1 80.58542295081968 1.227662754098361 2.5935201918330487e-05
32 1 81.4195475409836 3.4754417049180333 2.3955998695150606e-05
33 1 1.3076821639344263 3.675611409836066 8.940483602409354e-05
34 1 4.943092 3.790369180327869 9.99601658449346e-05
35 1 7.991337704918034 3.787834491803279 1.955513955057954e-05
36 1 10.665484590163937 4.057955540983607 5.4031429390279855e-05
37 1 13.539780983606558 3.969756459016394 3.983453530961947e-05
38 1 16.411704262295085 4.130062885245902 7.525390169143765e-05
39 1 18.94316131147541 3.9826217704918037 8.013291924421925e-05
40 1 20.958440655737707 2.6983375081967216 7.470905432730849e-05
41 1 25.435094426229508 3.424237967213115 6.522499026182177e-05
42 1 27.867284590163937 3.7379334426229516 8.787590941157222e-05
43 1 30.10780786885246 3.743088655737705 5.2738697807052764e-05
44 1 32.425886557377055 3.4250003934426236 3.453759349723444e-05
45 1 34.75941573770492 2.890963737704918 5.8357023384282484e-05
46 1 37.13308590163935 2.7366153442622956 4.210743794466388e-06
47 1 39.7308386885246 3.72874393442623 8.728442452929505e-05
48 1 43.51797639344262 2.0990856393442625 9.710220795424632e-05
49 1 45.060500983606566 2.309969704918033 8.752403679467981e-05
50 1 47.95767016393443 2.4809652459016394 7.747321630964708e-05
51 1 50.4004131147541 1.634025836065574 3.616972003262826e-05
52 1 53.05880655737705 1.2673341639344264 2.7367418007817847e-05
53 1 57.425337704918036 1.885353836065574 3.8534523072846587e-05
54 1 58.91787540983607 1.5808428196721314 3.336445580647416e-05
55 1 61.245547540983615 1.1928991475409838 9.724296333107375e-05
56 1 62.74161967213115 3.162296590163935 3.87428220943465e-05
57 1 65.63732459016394 2.7898438032786887 2.6208178296560015e-05
58 1 68.22957377049181 2.1502035409836067 2.68130062385866e-05
59 1 71.88568524590166 3.488392852459017 7.21672766206153e-05
60 1 74.52943606557378 3.7019428852459018 5.3818483166979325e-05
61 1 76.5728393442623 5.039071868852459 1.942940619638167e-06
62 1 79.07773770491805 3.734479803278689 9.732226301934415e-05
63 1 0.5220095081967213 5.744553442622951 1.380478925969686e-06
64 1 2.9816823606557383 6.1622721311475415 5.305506432167756e-05
65 1 6.584333114754099 5.559450491803279 7.925259111651829e-06
66 1 9.163757377049182 6.167977704918033 5.022639049541397e-05
67 1 11.946764590163935 6.06608524590164 1.937969522233525e-05
68 1 14.767135737704919 6.1583337704918035 1.3714606192122026e-05
69 1 18.130091803278688 6.549190819672132 5.7616343130523397e-05
70 1 21.226249180327873 5.670885901639345 7.270443132897749e-05
71 1 24.16764918032787 5.49512393442623 9.247550736858475e-05
72 1 26.73111803278689 5.97944131147541 6.432707935364257e-06
73 1 29.366184262295086 6.200797377049181 2.7714282140710825e-05
74 1 31.206509508196724 7.523430163934427 9.691764522017952e-05
75 1 35.5256793442623 6.544040655737705 7.465394164193206e-05
76 1 35.088319344262295 5.028736196721312 1.636838197435553e-06
77 1 39.56143868852459 5.254833442622951 9.171714068267081e-05
78 1 41.08725049180328 5.25528786885246 7.86612804309108e-06
79 1 43.59406754098361 4.748890426229509 1.523698513796935e-05
80 1 46.3987862295082 4.483348983606558 8.03002492060713e-05
81 1 51.96767868852459 4.460466098360656 4.2361656653263174e-05
82 1 50.90937049180328 3.3694998032786887 4.709887222143893e-05
83 1 55.014354098360656 4.449676000000001 6.820250297218301e-05
84 1 57.55106229508197 4.6962375737704924 9.157308787071809e-05
85 1 61.23140983606558 3.4948860983606562 2.9421387995676764e-05
86 1 61.654026229508204 5.706937049180328 6.618001427103826e-05
87 1 64.46086557377049 4.973902098360656 3.880891126441847e-05
88 1 67.25861639344262 4.720958360655738 8.505156829121593e-05
89 1 69.92458360655738 5.114163278688525 4.5181545544296397e-05
90 1 72.17954754098362 4.994679475409837 8.400192906950489e-06
91 1 75.7417442622951 6.329097049180329 6.522664048112142e-05
92 1 78.28552131147542 6.436998032786886 9.493026814807338e-05
93 1 80.86009836065575 5.999537049180328 9.893400814914885e-05
94 1 82.5485442622951 8.287876065573771 6.322483725848008e-05
95 1 2.6143393442622953 7.703029508196722 1.2283155598526674e-05
96 1 5.202725901639345 7.75892393442623 8.579337636338095e-05
97 1 7.704039344262295 8.935736393442623 1.0489840259351258e-05
98 1 10.579699016393443 8.262731147540984 8.048293669994427e-05
99 1 13.338975081967215 8.203655737704919 4.992325593073422e-05
100 1 15.593686557377051 7.4467331147541 3.425600997304381e-05
101 1 19.018798032786886 7.857534426229509 5.233895072651774e-05
102 1 22.789273442622953 7.5233291803278695 3.183959735183458e-05
103 1 25.55051868852459 8.078183606557378 9.957953430202982e-06
104 1 28.302624918032787 8.350384918032788 6.708826832096983e-05
105 1 30.280641311475414 9.898918032786886 6.691598718651616e-05
106 1 32.852239344262294 9.182439344262296 4.061341686393678e-05
107 1 34.614049836065576 10.731729836065576 6.664477399809399e-05
108 1 37.386857704918036 8.347759344262297 8.083047184591127e-05
109 1 39.9125586885246 7.4684445901639345 7.715208155834428e-05
110 1 42.65052721311476 7.339236065573772 6.1825344838397e-05
111 1 45.26711344262296 6.767971803278689 4.43118119262485e-05
112 1 47.66522163934427 6.668300983606557 1.3419767229990532e-05
113 1 49.27257770491804 5.48512655737705 7.733668518317569e-05
114 1 53.15120655737705 6.1543954098360665 3.9712794266787915e-05
115 1 56.284222950819675 7.001748852459017 5.105671545836532e-06
116 1 59.47227540983607 6.823714754098361 3.5540937244049876e-05
117 1 60.98551475409837 7.069104918032788 5.3069904216248856e-05
118 1 63.51060983606558 7.293793442622951 4.127145974897699e-05
119 1 66.23464262295083 6.936008524590164 8.564681120383898e-05
120 1 68.4264918032787 8.388506229508199 2.7038144588239267e-05
121 1 71.13891147540984 7.666120000000001 4.037323607539167e-06
122 1 73.82457049180329 7.9425121311475415 4.2150351678574894e-05
123 1 76.06640655737706 7.819312131147542 1.5731123152211525e-05
124 1 79.76644590163936 8.48923737704918 7.024172004046273e-05
125 1 0.9871854426229509 10.171624262295083 8.471784710238095e-05
126 1 4.059263278688525 10.099017049180329 3.301533988437868e-05
127 1 6.883194098360657 10.215097704918035 9.159987678500796e-05
128 1 9.50568786885246 10.466092459016394 6.916295450889763e-05
129 1 12.250523278688526 10.373187540983608 9.625805607928556e-05
130 1 15.01742360655738 10.236556721311477 4.1804119836508794e-05
131 1 17.786899016393445 10.51057573770492 1.1546035144177513e-06
132 1 20.83554360655738 10.118506885245901 5.3618768564062036e-05
133 1 23.91892655737705 9.969404590163935 7.427453640171057e-05
134 1 26.666135081967216 10.521835409836067 5.879681517139296e-05
135 1 29.60556590163935 11.275324590163935 7.193563225207358e-05
136 1 32.33742491803279 11.654820983606559 4.502808152376203e-06
137 1 36.09371213114755 11.102592131147542 3.460570997734009e-05
138 1 38.137468852459016 10.523905573770493 2.8222725920625492e-05
139 1 39.53245639344262 9.95456 8.760170608544012e-05
140 1 42.1140518032787 9.498871475409837 2.592884220801706e-06
141 1 44.793954754098365 9.14189442622951 2.7536751646910574e-05
142 1 47.27931278688526 8.9867331147541 9.568839119227732e-05
143 1 49.71276524590164 8.406279344262297 8.048859901679779e-05
144 1 52.20196065573771 8.05430098360656 3.487996343995161e-05
145 1 55.033540983606564 9.503314754098362 5.8113346938215174e-05
146 1 57.19055081967213 10.786361967213116 7.730433464020548e-05
147 1 59.71615081967214 9.570923278688525 3.683551987105682e-07
148 1 62.255888524590176 9.554412459016394 3.3920085536289545e-05
149 1 64.86833442622952 9.310183606557379 1.616616751425304e-06
150 1 67.57419016393443 9.66549442622951 5.183002621736515e-05
151 1 69.95235409836066 10.188589508196722 8.570467636744148e-05
152 1 72.53601967213115 10.085636721311475 4.6008458420211185e-05
153 1 75.17017704918034 10.461952131147541 7.80420519313868e-06
154 1 77.96893770491805 10.576669508196721 4.983149526979094e-05
155 1 80.83737704918033 10.49012655737705 9.347404889634043e-05
156 1 82.2824524590164 12.410481311475412 6.743652207714386e-05
157 1 1.7215988196721315 11.522078032786887 4.823420055043327e-07
158 1 5.3620780327868856 12.255219016393443 4.33544187073515e-05
159 1 8.022036721311476 12.59608918032787 2.3049348884263645e-05
160 1 10.850032131147543 12.588010491803281 2.4909111982480348e-05
161 1 13.621779672131149 12.472232786885247 4.2699681149072454e-05
162 1 16.421752131147542 12.537771147540985 7.468095774674305e-05
163 1 18.521605245901643 11.886073442622953 5.489499383893485e-05
164 1 23.045165901639344 11.67516918032787 2.422755691540579e-05
165 1 24.40834360655738 12.353324590163936 8.395801195712794e-05
166 1 28.212042622950822 12.855314098360656 5.342414860387134e-05
167 1 31.115624262295086 13.707009836065575 4.287760039161062e-05
168 1 34.50216 13.486663606557379 2.15734415701635e-06
169 1 36.757931803278694 12.495358032786886 5.919972344354018e-05
170 1 40.01818754098361 12.5595331147541 4.180125870991069e-05
171 1 40.48851868852459 11.131574426229509 7.502279989855164e-05
172 1 43.91029770491804 11.499104262295083 9.455841418448933e-05
173 1 46.47634163934427 11.41872131147541 7.954310804228047e-05
174 1 49.66045573770492 10.754905573770493 2.586435944753971e-05
175 1 51.18859016393443 10.580052459016395 1.5324296391484582e-06
176 1 54.089344262295086 10.725216393442624 9.609364724719391e-05
177 1 56.51900983606558 12.153780983606557 5.4070563444036507e-05
178 1 59.0052262295082 12.18680262295082 3.445406625711503e-05
179 1 61.507600000000004 11.9065731147541 1.366596964941136e-06
180 1 63.89232786885247 11.72212655737705 9.694719938060378e-05
181 1 66.40278032786885 12.693336393442623 8.918011286002365e-05
182 1 69.06571803278689 13.196083278688526 3.081434886923617e-05
183 1 71.61706885245903 12.463497704918034 1.6006867094584267e-05
184 1 73.92100983606558 13.831068196721313 6.0103486524042174e-05
185 1 76.65261639344264 12.739839344262297 2.9627639595924793e-05
186 1 79.4907606557377 12.624516065573772 6.10426352599179e-05
187 1 1.2607752786885247 14.432930491803281 7.189134513620891e-05
188 1 3.6357784262295088 14.28206098360656 5.487130806250613e-05
189 1 6.331217704918033 14.630908852459019 6.870795027796328e-06
190 1 9.303670163934427 14.66044655737705 2.534331062720656e-05
191 1 12.128030163934428 14.685137049180328 1.5273447787570605e-05
192 1 14.907099016393445 14.632120655737706 8.935819557650811e-05
193 1 17.675716065573774 14.900232131147543 3.459757849227866e-05
194 1 20.99110885245902 14.528864918032788 2.556342415247679e-05
195 1 22.498491147540985 14.204808524590165 5.412535136668623e-05
196 1 24.71200131147541 15.263116721311476 3.8968443915582675e-05
197 1 28.661015737704922 14.771478032786886 3.902419651922136e-05
198 1 30.989697704918036 15.85164918032787 1.8649521260647907e-05
199 1 33.46218032786885 15.858011147540985 5.581348818930016e-05
200 1 36.27108983606558 15.295936393442625 1.868195688733887e-05
201 1 40.319775081967215 15.206565901639346 5.2378158715512384e-05
202 1 42.81179803278689 13.937555409836067 1.790973975747916e-05
203 1 45.549362622950824 13.75300786885246 5.8414727363845166e-05
204 1 47.0659849180328 13.958660983606558 5.8468115150239065e-05
205 1 49.87433901639345 13.409007213114755 1.973572840841844e-05
206 1 52.51500983606558 12.708837377049182 4.5133233053523524e-05
207 1 54.37462295081968 14.57572131147541 5.4376283242976134e-05
208 1 58.51242622950821 14.39172918032787 8.801738717524987e-06
209 1 60.0716131147541 14.39602098360656 1.61937138957191e-05
210 1 62.78857704918033 14.363857704918034 4.3091423595753476e-05
211 1 65.52573770491804 13.97093049180328 1.4961951759983017e-05
212 1 68.22401967213115 14.456510163934427 8.433136584916879e-05
213 1 70.63348852459016 15.137745573770493 7.884028605263229e-05
214 1 73.31409836065573 15.262712786885247 2.7516972533647766e-05
215 1 75.8260655737705 15.231559344262296 6.0404811233647796e-05
216 1 78.46274754098361 14.780061639344265 7.259494068045245e-05
217 1 81.2892786885246 14.632272131147543 9.2494531830924e-05
218 1 0.30036715409836073 16.80150098360656 9.341239294889504e-07
219 1 2.813246754098361 16.856739016393444 1.2409612972864948e-05
220 1 5.4106511475409835 16.557474098360657 1.796672953796974e-06
221 1 10.492499672131148 17.800329836065576 8.747491227967704e-05
222 1 9.797883934426231 16.459671475409838 3.9833580099731526e-05
223 1 13.511909508196723 16.817607868852463 2.39520108894286e-05
224 1 16.147430163934427 17.72004786885246 1.3211569484436092e-05
225 1 19.006074098360656 17.481777049180327 9.33628119496032e-05
226 1 21.13728262295082 17.47506163934426 3.221681629309612e-05
227 1 24.706699672131148 16.81730491803279 8.72397232446588e-05
228 1 26.226906885245906 16.710009836065574 9.715158697908352e-05
229 1 28.705751475409837 17.335552786885245 5.260034802251027e-05
230 1 30.787730491803284 19.24126491803279 3.942596927003527e-05
231 1 32.785186229508206 18.044306229508198 5.7777205045451475e-06
232 1 37.92863475409836 17.71964393442623 1.2514478912768135e-05
233 1 39.525942950819676 17.667031475409836 4.755625357448635e-06
234 1 42.94620721311476 16.28128393442623 5.994018913250608e-05
235 1 44.466767868852465 16.036701639344262 5.052321806147895e-05
236 1 47.33349049180328 16.631848524590165 1.3094437478959509e-05
237 1 50.94420983606558 15.191266885245904 7.539903130231184e-05
238 1 53.31782950819672 15.707091147540986 5.680358492171728e-05
239 1 55.24914098360656 17.675918032786885 6.036910276370194e-05
240 1 58.10849180327869 16.739951475409836 4.804760650449402e-05
241 1 61.04660983606558 16.68749049180328 9.33176109134203e-05
242 1 64.8420786885246 16.351921967213116 9.601474093072315e-05
243 1 66.41085901639345 16.33435081967213 4.710843157372745e-05
244 1 68.83244590163936 17.83976393442623 9.978619030244227e-05
245 1 71.7645049180328 17.541761311475412 2.2334687159783563e-05
246 1 74.85056393442623 17.643148852459017 2.5610687448841752e-05
247 1 77.6003475409836 17.23966885245902 1.121942846658528e-05
248 1 80.23904918032787 16.78185967213115 4.598298383007048e-05
249 1 1.374144524590164 19.27539737704918 6.332597152408797e-05
250 1 4.677343540983607 19.00173180327869 9.569385208742063e-05
251 1 7.700201967213116 19.268833442622952 3.385822288347457e-05
252 1 9.631866885245902 20.029088524590165 5.125987363081167e-05
253 1 12.14181442622951 19.021221639344265 2.6863241426320274e-05
254 1 15.973788852459018 19.22036131147541 9.839175634354559e-05
255 1 17.75009049180328 21.08992131147541 9.28748608562309e-05
256 1 20.13163737704918 20.209596721311478 8.430238794368592e-05
257 1 22.672283934426233 19.791272131147544 4.297041066388346e-05
258 1 24.74593180327869 19.665900983606562 1.8439830595963337e-05
259 1 27.228411803278693 19.356891147540985 7.960742594122043e-05
260 1 29.87963540983607 20.431407213114756 5.8394952341095866e-05
261 1 32.171306885245905 20.972780327868854 3.3532600867004085e-05
262 1 34.5099862295082 20.076500327868853 6.431681352439131e-05
263 1 37.00110032786886 20.12365967213115 9.308642078472297e-05
264 1 41.75621639344263 19.536843934426233 9.717712568261997e-05
265 1 43.953619672131154 18.57553049180328 1.1666386500150505e-06
266 1 45.524722622950826 18.35195278688525 6.93032896740367e-05
267 1 48.25915672131148 17.873441967213115 1.644334166253295e-05
268 1 51.27190163934427 17.815830819672133 8.282649833200681e-05
269 1 54.040872131147545 18.630314098360657 3.935117251542382e-05
270 1 56.78358688524591 19.01839409836066 7.30979422091325e-05
271 1 59.37684590163935 18.84111737704918 2.2648124191523844e-06
272 1 61.844380327868855 19.056515409836067 4.046515801833599e-05
273 1 64.44167868852459 19.069895737704922 5.311063581230449e-05
274 1 68.13313442622952 19.18653180327869 9.000923293172069e-05
275 1 70.43707540983608 19.626466885245904 3.926400203197863e-05
276 1 72.48956721311477 18.921399344262298 6.126555750929851e-05
277 1 76.34259672131148 19.59778754098361 3.9285117131897064e-05
278 1 79.92246557377051 18.995773770491805 2.8865642320295584e-05
279 1 81.45287213114754 18.975274098360657 6.289328233330162e-05
280 1 0.17581599344262297 21.43695147540984 7.174170850600986e-05
281 1 2.178069967213115 20.59909049180328 6.32189864855404e-05
282 1 5.903501639344263 20.97333573770492 3.2311394177779355e-05
283 1 7.781897704918034 20.806460327868855 8.238627850712775e-05
284 1 11.100824918032787 21.663003278688528 8.097654672648469e-05
285 1 13.191589508196722 20.09482885245902 2.390474958759016e-05
286 1 16.34449967213115 21.64467475409836 2.302162122405913e-05
287 1 17.970386229508197 22.59033573770492 5.3041693629911235e-05
288 1 21.388731803278688 22.299200000000003 3.075730879498866e-05
289 1 23.867576393442626 22.416492459016393 6.174630248905304e-05
290 1 26.90859672131148 21.74182098360656 5.93535862141713e-05
291 1 28.429914754098363 21.87072655737705 5.9250107448434255e-05
292 1 30.5860662295082 23.974215081967216 2.01524737343609e-05
293 1 33.245520000000006 22.907575737704917 9.171454564107748e-05
294 1 35.76920131147541 22.485817704918034 8.227050369380595e-06
295 1 37.88198032786885 21.375957377049183 7.880508585721395e-05
296 1 41.437815081967216 21.983070819672133 8.369773080079722e-05
297 1 43.90923737704918 21.362072131147542 8.332900136951987e-05
298 1 48.02255213114755 20.02015147540984 8.109895064852241e-05
299 1 49.568510163934434 19.88059213114754 7.877696211518611e-05
300 1 52.04745573770492 20.26730885245902 9.669576739725317e-05
301 1 55.896950819672135 20.839683934426233 3.648949096121412e-06
302 1 57.38898360655738 21.085225573770494 4.01263633350779e-05
303 1 60.28165901639345 21.387822950819675 3.110765066909322e-05
304 1 63.06830163934427 21.38257180327869 6.452954027782849e-05
305 1 65.50604590163934 20.21722098360656 9.10842954688411e-05
306 1 68.01346885245903 21.388125901639345 1.8525116704996805e-05
307 1 71.69785573770493 21.86683868852459 8.141655555948632e-05
308 1 74.71272131147542 21.714605901639345 4.186115201093291e-05
309 1 77.38070819672132 21.84957049180328 8.451869809049633e-05
310 1 80.02445901639345 21.609582950819675 3.165019483019245e-05
311 1 2.041651213114754 23.590527868852462 4.030167369766885e-05
312 1 4.531841311475411 22.964480000000002 2.538567835496397e-06
313 1 7.123131147540985 23.615824262295085 9.567626981665579e-06
314 1 9.63156393442623 24.203195409836066 4.9022615025850546e-05
315 1 12.983462295081967 22.94074885245902 6.228353665315174e-05
316 1 14.48680524590164 22.967862950819676 2.8353060355497653e-05
317 1 16.34712524590164 24.628083934426233 7.865986993968289e-06
318 1 18.371998032786887 24.051265573770493 1.2117314182278771e-05
319 1 21.552931147540985 23.83046491803279 4.294982641086184e-05
320 1 24.819548852459018 24.61818754098361 7.964683244011717e-06
321 1 27.06446491803279 24.75012262295082 6.0476023323487654e-05
322 1 29.69513836065574 25.226108852459017 5.8982314962575036e-05
323 1 32.390340327868856 25.570614426229508 3.329389833155008e-05
324 1 34.9828924590164 25.000259016393446 6.29820716705901e-05
325 1 37.54792655737705 24.288779016393445 3.673636594902655e-05
326 1 40.36052196721312 24.237984262295083 8.250568102066266e-05
327 1 43.188163934426235 23.946949508196724 4.9010901460305755e-05
328 1 44.883325245901645 22.56842229508197 3.1956039577955256e-05
329 1 48.346659016393446 22.79629180327869 4.292167231581305e-05
330 1 50.943200000000004 22.531058360655738 1.1233769016880968e-05
331 1 53.287029508196724 22.907272786885247 5.717173924705933e-05
332 1 56.21807868852459 23.63102229508197 1.5220655363949266e-05
333 1 59.40512131147542 23.68595737704918 8.698612775570616e-05
334 1 62.2432655737705 23.465005245901644 4.7211802652356695e-05
335 1 64.60123278688525 23.807137704918034 9.425462489973905e-05
336 1 66.56182950819672 23.047185573770495 2.8662729478015748e-05
337 1 69.32221639344263 23.84127016393443 7.928544704422536e-06
338 1 72.83796065573772 23.607341639344266 2.1978531057963648e-05
339 1 76.73289836065575 23.933468196721314 7.492140051303251e-05
340 1 78.9217180327869 23.983859016393446 7.161754787831544e-05
341 1 81.55991475409837 23.62516524590164 8.393737274547718e-05
342 1 82.37889180327869 26.223422950819675 1.843286872377319e-05
343 1 1.4040104262295083 25.018739016393447 9.505673201796883e-06
344 1 5.1556675409836075 26.581005901639347 3.583407278922729e-05
345 1 8.0596531147541 26.2771462295082 1.8688418901147353e-05
346 1 11.756713442622953 26.305775081967216 1.2677976532387027e-05
347 1 13.277880000000001 26.54662098360656 1.3805861658554731e-05
348 1 13.490955409836067 25.057668196721316 8.243271293284262e-05
349 1 17.577358032786886 26.921169180327873 1.2790622943620322e-06
350 1 20.40868590163935 26.300019016393446 2.1867919539670457e-05
351 1 22.959329836065578 27.759585573770494 1.3051161671938928e-05
352 1 25.882704262295086 27.241741639344266 9.053183013123398e-05
353 1 28.630316721311477 28.092831475409838 8.462025253382034e-05
354 1 31.45987737704918 28.132921967213115 1.1801568093394234e-05
355 1 35.03025377049181 27.15721836065574 3.392597580996992e-06
356 1 36.5783324590164 26.91071737704918 5.9466415896798455e-05
357 1 39.153515409836075 26.365254426229512 6.223991516083428e-05
358 1 42.09774295081968 26.15283540983607 1.93852557127287e-05
359 1 45.496952131147545 25.455392131147544 1.552779652474766e-05
360 1 47.037810491803285 25.293616393442623 4.099385059809239e-05
361 1 49.57477114754099 24.962945573770494 8.23279496039311e-05
362 1 52.340813114754106 25.201216393442625 3.820517761009633e-05
363 1 55.7020524590164 25.11477442622951 2.3286369084423953e-05
364 1 58.489200000000004 24.88867213114754 8.260522229580126e-05
365 1 60.87847213114755 25.57288655737705 3.9308861632171526e-05
366 1 63.56312131147542 26.09350754098361 4.56159479392081e-05
367 1 66.29169836065574 25.99525049180328 7.4025540375168e-05
368 1 68.93342950819672 25.364759344262296 4.644565391113781e-05
369 1 71.3827868852459 25.975356721311478 3.0430370660764406e-05
370 1 73.80639344262296 26.006611147540987 4.457759969108883e-05
371 1 75.50847213114754 24.802735081967217 2.846165409298618e-05
372 1 79.95932459016393 25.989494426229513 9.369453267425062e-05
373 1 1.091592393442623 28.14367672131148 5.920160235366232e-05
374 1 4.312373639344263 27.870061639344268 6.626650708562832e-05
375 1 6.84648655737705 28.451070819672136 7.30345302079608e-05
376 1 9.249845901639345 28.85470229508197 8.71070494451238e-05
377 1 11.695719344262296 28.61516918032787 6.0754216374505926e-05
378 1 13.729024262295082 29.8584793442623 7.827054052639261e-05
379 1 16.539751475409837 28.93856918032787 2.26980361274421e-05
380 1 19.29130229508197 28.765836721311477 6.0208497041606404e-05
381 1 22.096879344262298 29.052781639344264 2.1599695999801826e-05
382 1 24.655702950819673 29.632175081967215 8.494410795077896e-05
383 1 28.056123934426232 29.55891147540984 3.492188472574492e-05
384 1 30.766069508196725 29.484284590163938 8.133524678228546e-05
385 1 32.47693377049181 31.23402754098361 9.816749535842896e-05
386 1 35.44650819672132 29.88650229508197 8.29425163778758e-05
387 1 39.23854360655738 28.466622295081972 2.5130907105493274e-05
388 1 40.75738754098361 28.163873442622954 6.382353162181165e-07
389 1 43.20967344262296 29.463280000000005 9.557985528305873e-05
390 1 45.816918688524595 28.125752131147543 9.841857143584155e-05
391 1 49.293582295081976 27.27779278688525 9.900308766453049e-06
392 1 50.832118032786894 27.215182950819674 6.032831444931615e-05
393 1 53.24461639344263 26.476285901639347 6.337660274872773e-05
394 1 57.185501639344274 27.076582950819677 4.284450485093605e-06
395 1 59.57477377049181 27.554487868852462 5.53746950219014e-07
396 1 62.001409836065584 27.946253770491808 2.566703835297809e-05
397 1 64.13771803278689 27.522274098360658 8.156896996489806e-05
398 1 67.67062950819673 27.9379731147541 9.871353074409013e-05
399 1 70.03364590163935 28.041582295081973 8.57072361888138e-05
400 1 71.90891147540984 27.423916065573774 1.8287118385153623e-06
401 1 76.04015081967214 28.697470819672134 5.852767941203274e-05
402 1 78.76569836065575 27.95842229508197 2.0906174590855654e-05
403 1 81.01662295081968 28.521153442622953 4.962157011294445e-05
404 1 82.40262295081968 30.476751475409838 4.743106586934367e-05
405 1 1.8296967213114754 29.5118531147541 1.975955833869365e-05
406 1 4.803936590163936 31.53268655737705 8.233620942296659e-05
407 1 7.7743239344262305 31.08578360655738 1.8730951893016147e-05
408 1 10.378741639344263 31.186514754098365 2.713357126661672e-05
409 1 12.832491803278689 31.091943606557383 8.871266757899934e-05
410 1 15.468971803278691 31.249276065573774 4.6101382354994106e-05
411 1 17.745293770491806 31.071645901639346 6.013605538541407e-05
412 1 20.281800000000004 31.073312131147542 5.524789563365435e-05
413 1 23.25677704918033 31.642960655737706 1.9007776712028237e-05
414 1 25.510731147540987 30.939205901639347 9.852657862612408e-05
415 1 29.171033442622953 31.705570491803282 4.07081611085117e-05
416 1 31.750457704918034 32.540351475409835 2.3927053188763005e-05
417 1 33.73614885245902 32.033817704918036 1.8556570044931543e-05
418 1 36.64897049180328 30.86826491803279 8.434742280851742e-05
419 1 40.037727868852464 31.301939016393447 5.410381106805087e-05
420 1 42.71162229508197 30.911081967213118 5.8814185950072576e-05
421 1 45.087665573770494 30.67422491803279 3.460700890555047e-05
422 1 47.456337049180334 30.23878360655738 2.031735797757939e-05
423 1 49.85409180327869 29.936337704918035 1.2709313886308582e-06
424 1 52.36353442622951 29.287921967213116 2.4190636767537967e-05
425 1 56.51648524590165 29.05419540983607 1.2681635094971079e-05
426 1 57.990845901639354 29.67973836065574 8.872465584008694e-05
427 1 60.86837377049181 30.100638032786886 1.0974841885117227e-05
428 1 63.35711475409837 31.323902950819676 9.872010307844464e-05
429 1 66.20636721311476 30.344008524590166 1.3698685173630677e-05
430 1 68.96978360655739 30.478114754098364 7.762842499167111e-05
431 1 71.7645049180328 30.337848524590164 6.473927526116029e-05
432 1 75.75992131147542 30.171377049180332 5.110006265603755e-05
433 1 77.26811147540985 30.32956786885246 8.173954219666746e-05
434 1 79.74220983606558 30.784902950819678 5.7343100163935546e-05
435 1 1.0387880655737705 32.51293442622951 1.701514359764289e-06
436 1 3.845354754098361 32.73706754098361 4.003299834941808e-05
437 1 6.461991475409836 33.14453639344263 4.086309843906042e-05
438 1 9.11149836065574 33.506007213114756 1.8224139983435695e-05
439 1 11.89233442622951 33.573767213114756 1.9611295726094734e-05
440 1 14.483169836065576 33.35165377049181 2.185196996132409e-05
441 1 15.909664262295083 35.05549967213115 6.491391089885676e-05
442 1 19.427882622950822 33.380181639344265 7.462005379805655e-05
443 1 22.764128524590166 34.183405245901646 5.788605093600904e-05
444 1 25.954705573770493 35.94390295081968 4.756772451885911e-05
445 1 28.00235016393443 33.74362163934426 4.6080106861179776e-05
446 1 30.735219016393444 34.184465573770495 4.196403384664711e-05
447 1 33.5907324590164 34.73068590163935 6.91797649412056e-05
448 1 36.24675278688525 33.920241967213116 9.553366282538917e-05
449 1 38.7374124590164 33.86131803278689 4.866209275026192e-05
450 1 41.4108524590164 33.32908393442623 6.981497472807883e-05
451 1 44.32857180327869 33.20401573770492 6.13750084493212e-05
452 1 46.8956255737705 32.805080000000004 6.513692358057666e-05
453 1 49.4408668852459 33.60643540983607 2.2215595560270476e-05
454 1 51.88133770491804 31.9535862295082 6.655601172477557e-05
455 1 54.050970491803284 31.493403934426233 2.1570050058725843e-05
456 1 56.79318032786886 32.27718819672132 5.940464151957331e-05
457 1 59.73331803278689 32.01346950819673 4.053618005065119e-05
458 1 62.4512918032787 32.58609704918033 8.36869229120039e-05
459 1 65.16825573770492 32.77604721311476 4.985728467290954e-05
460 1 67.76555409836067 32.659966557377054 3.058114941699537e-05
461 1 70.46383606557379 32.62896459016394 3.4547387068693415e-05