# input file

2232 atoms
1 atom types

0.0 82.68810555352132 xlo xhi
0.0 83.16 ylo yhi
-10.0 10.0 zlo zhi
0.0 0.0 0.0 xy xz yz

Masses

1 12.0100 #C

Atoms

1 1 1.615232786885246 0.8668584262295084 9.55350406311465e-06
2 1 4.239059540983607 0.7831632131147541 5.691217058502936e-05
3 1 6.8010944262295085 0.7112578360655738 4.794380644697998e-05
4 1 9.297964590163936 0.8601480655737707 1.1004397885633232e-05
5 1 11.836339016393444 1.3924124590163935 3.842563598449379e-05
6 1 14.363403278688526 0.8544929836065575 7.510996732937697e-05
7 1 17.04406360655738 0.5218630819672132 8.083215802602335e-05
8 1 19.806470163934428 0.5866188196721313 2.2845688763632556e-05
9 1 22.533986885245902 0.7990782295081967 9.539284634691799e-05
10 1 25.283720000000002 0.6386304262295083 9.444554892756496e-05
11 1 27.50647016393443 1.9780113442622953 4.165488707859032e-05
12 1 30.309169180327874 1.0491792786885248 9.997476129968608e-05
13 1 33.02254819672131 1.4446916721311478 2.3214229906242625e-05
14 1 35.734462950819676 0.9399806557377051 8.74455495771695e-05
15 1 38.42350491803279 0.8058390819672132 6.551874754315845e-08
16 1 40.999596721311484 0.8921548196721312 9.476590139575366e-05
17 1 43.65677836065574 0.8018098360655739 2.331993929949896e-05
18 1 46.46018426229509 0.598141049180328 8.085977334229159e-05
19 1 49.13731016393444 0.4100489836065574 8.41375712746377e-05
20 1 51.72380327868853 0.23271470163934427 7.071546092783087e-05
21 1 54.414511475409846 0.5718954098360656 7.674238323357604e-05
22 1 57.03705573770492 0.767884393442623 9.177978559326919e-05
23 1 59.64899672131148 0.741552918032787 5.4400358010267374e-05
24 1 62.468963934426235 0.7657990819672132 3.261583239735962e-05
25 1 65.2424786885246 0.7729335737704919 6.958048706016407e-05
26 1 67.78423606557378 0.627441442622951 3.4820721841798407e-06
27 1 70.50473442622952 0.5416407213114754 9.732246038353079e-05
28 1 73.51000655737705 0.9010666229508197 7.305117087044818e-05
29 1 76.21687213114755 0.8207947540983607 8.689306582758852e-05
30 1 78.89394754098362 0.9054543606557377 6.853092384448053e-05
31 1 81.6124262295082 0.9237879344262296 6.9008465560741585e-06
32 1 0.25907041311475415 3.1878555409836067 8.27182509313592e-06
33 1 2.91107462295082 3.17941331147541 5.825901321985838e-05
34 1 5.492902295081968 3.1554044590163937 5.977327980755753e-05
35 1 8.050615081967214 3.221649704918033 3.956395964225367e-05
36 1 10.66301049180328 3.433634491803279 7.330417121718059e-05
37 1 13.4342531147541 3.4304686557377053 4.465696257592122e-06
38 1 16.042861639344263 2.876831081967213 6.274623276748757e-05
39 1 18.356951475409836 3.753308196721312 1.1992633727293933e-05
40 1 21.22816786885246 3.039091540983607 3.8909871842017034e-05
41 1 23.99138229508197 3.0729109508196726 9.711350614332121e-05
42 1 26.73207737704918 3.330732196721312 4.119687057921406e-05
43 1 29.209710163934428 3.5233735737704923 5.450503332181484e-05
44 1 31.768533770491807 3.4845302295081972 8.305675631414967e-06
45 1 34.436672131147546 3.411519081967213 7.45590502791198e-05
46 1 37.015641967213114 3.16664393442623 8.819105933464361e-05
47 1 39.66524983606558 3.2911668196721315 4.212614179087933e-05
48 1 42.62952262295082 3.1824074754098364 7.532331927067568e-05
49 1 45.36006885245902 2.8439104262295083 6.230043168408356e-05
50 1 48.14403540983607 2.7556204590163937 7.011582669196361e-05
51 1 50.96036721311476 2.582322491803279 5.068141924336678e-05
52 1 53.90555409836066 3.273595672131148 2.8875380648761986e-05
53 1 55.46474098360657 2.9992383606557382 8.8797082057969e-06
54 1 58.34125901639345 3.1234986885245903 7.414010608986648e-05
55 1 61.0764 2.8970480000000003 1.324731222607256e-05
56 1 63.8600131147541 2.977259278688525 3.782318842207357e-05
57 1 66.57697704918033 3.1205600655737706 4.101404675263034e-05
58 1 69.91145573770493 2.6086388196721315 4.767465564201753e-05
59 1 71.24898360655739 1.8745940327868855 5.308050038956799e-05
60 1 74.81320000000001 3.1060184262295087 9.89229477577322e-05
61 1 77.48573114754099 3.157525114754099 9.980907495326685e-05
62 1 80.21935737704919 3.179044721311476 7.152914770570311e-05
63 1 1.5960913442622953 5.515320655737705 7.852530933864901e-05
64 1 4.198438885245902 5.559652459016394 2.7493021557344467e-05
65 1 6.7819580327868865 5.590704918032787 2.6635820553670423e-06
66 1 9.427678032786886 5.658767868852459 7.34317625330773e-05
67 1 12.17529049180328 5.630946885245902 3.741588424580511e-06
68 1 14.969557377049183 5.445490491803279 3.226631807526914e-05
69 1 17.719795409836067 5.147285901639345 8.342850017409371e-05
70 1 19.940172459016395 6.57236655737705 6.382278227543432e-05
71 1 22.68364459016394 5.367278688524591 4.576895400556544e-05
72 1 25.340220327868852 5.529155409836066 1.616818673591365e-05
73 1 27.920300983606563 5.868914754098361 6.556769319287841e-05
74 1 30.539664262295087 5.888808524590165 8.552657415861033e-05
75 1 33.189474098360655 5.7606603278688535 1.268112859353654e-05
76 1 35.85291672131148 5.649325901639345 5.020331111692869e-05
77 1 38.39866295081968 5.523146885245903 3.818363881749489e-05
78 1 40.4228793442623 4.652547016393443 6.499622555258788e-05
79 1 44.10817508196722 5.214288524590164 9.109357985928251e-05
80 1 46.71557180327869 4.989024393442624 5.40016326792573e-05
81 1 49.434454426229514 4.849702360655738 7.65323427663816e-05
82 1 52.03028852459017 5.589240655737705 3.239031126605366e-05
83 1 54.306963934426236 5.767224262295083 7.450743296940701e-05
84 1 57.10017049180328 5.23216262295082 4.7645852720718853e-05
85 1 60.62752786885246 5.035719213114755 6.610088265231014e-05
86 1 62.17964590163935 5.092199344262296 5.097056722291064e-05
87 1 64.86025573770492 5.297297049180329 2.3153559968548368e-05
88 1 67.6095344262295 5.513856393442623 5.7702744492531945e-05
89 1 70.30832131147542 5.320573770491803 1.279012698426707e-05
90 1 73.16413770491803 5.208784918032788 1.0031819704885626e-05
91 1 75.94522622950821 5.4175180327868855 6.271106504722787e-05
92 1 78.77226229508197 5.414993442622952 1.4055136291961624e-05
93 1 81.58314098360657 5.440087868852459 9.612911679838847e-05
94 1 0.2854099672131148 7.76240786885246 9.178444401488919e-05
95 1 2.9085752786885246 7.9175186885245905 8.764328003931296e-05
96 1 5.491438032786886 7.967657049180328 3.719283620059904e-05
97 1 8.14124786885246 7.955438032786886 8.214664500904568e-06
98 1 10.85164786885246 7.883436721311477 8.638865724883406e-06
99 1 13.556089836065574 7.734031475409837 4.3780354353005934e-05
100 1 16.266994754098363 7.54680786885246 6.7111699081937265e-06
101 1 18.98097967213115 7.772607213114755 8.903702701197276e-05
102 1 21.36712131147541 7.826179016393444 6.439900160731826e-05
103 1 23.88509704918033 7.807295081967214 3.0299716606866978e-05
104 1 26.82690098360656 8.08464655737705 3.6762230054812295e-05
105 1 29.34240262295082 8.237788196721313 4.3248631580594244e-05
106 1 31.96848131147541 8.149377049180329 3.9443647278081376e-05
107 1 34.71180196721312 8.00416262295082 3.848663694385316e-05
108 1 37.41760721311476 7.960487213114755 9.865823083908433e-05
109 1 40.04373639344263 7.646175737704919 4.4320459206378905e-05
110 1 42.6165462295082 7.460012459016394 3.918753502849131e-05
111 1 45.42934360655738 7.429464918032788 6.855671580073716e-05
112 1 48.12479803278689 7.1496898360655745 3.390167878262784e-05
113 1 50.27549639344263 8.60632786885246 4.960076397096037e-06
114 1 53.195639344262304 8.189669508196722 7.349652167418542e-06
115 1 55.873724590163945 7.589624918032787 7.096322618087514e-05
116 1 58.368019672131155 8.617688524590164 9.973875494404682e-05
117 1 60.87443278688525 7.552412459016395 7.309560409454116e-05
118 1 63.48536393442623 7.526611147540984 7.075389347048498e-05
119 1 66.1624393442623 7.621788196721313 1.7575212950098273e-05
120 1 69.03188852459017 7.672986885245902 2.511682129660581e-05
121 1 71.83216393442623 7.488388852459017 6.371246338853414e-05
122 1 74.56982950819673 7.568317377049182 3.159133605716982e-05
123 1 77.36202622950822 7.5840708196721325 1.6871006397881307e-06
124 1 80.23400000000001 7.597400655737705 9.786350806870024e-05
125 1 1.5462710819672132 10.200152131147542 8.969993348362103e-05
126 1 4.200928131147541 10.348900983606558 7.190920250525229e-05
127 1 6.854767213114755 10.302145573770494 9.675163040767903e-05
128 1 9.589150819672131 10.195506885245901 4.3891869678615585e-05
129 1 12.21144262295082 10.089827540983608 4.5579112269218816e-05
130 1 14.805307540983607 9.907703606557378 5.479563129689219e-05
131 1 17.482837377049183 9.912954754098362 9.700208376138497e-05
132 1 20.09710098360656 10.258419672131149 1.5040262366123847e-05
133 1 22.43138754098361 10.165716721311478 7.558699403381928e-05
134 1 24.460451147540986 9.23772786885246 5.9724330552919386e-05
135 1 27.772662950819676 10.582072131147541 5.5193513263250727e-05
136 1 30.796869508196725 10.54511213114754 8.351290247844104e-05
137 1 33.539230819672134 10.299469508196722 1.9760746104119045e-06
138 1 36.158139672131156 10.262257049180329 4.583766474004739e-05
139 1 38.88101114754099 10.173441967213117 9.972552344559093e-06
140 1 41.442763278688524 10.010504918032789 5.464441585766518e-05
141 1 44.06995278688525 9.628281967213114 5.031887651891981e-05
142 1 46.77944393442623 9.573902295081968 7.88551176035249e-05
143 1 49.41592393442624 9.879933114754099 4.7466255021737684e-05
144 1 51.99494426229509 10.323604590163937 5.346507355158411e-05
145 1 54.6472786885246 10.11315475409836 4.432707861610233e-05
146 1 58.446281967213125 10.12623213114754 8.985375824475478e-05
147 1 59.96103606557378 10.204292459016395 4.530094305554424e-05
148 1 62.39019672131148 9.937190819672132 9.799825156754073e-05
149 1 64.81127868852461 9.891798688524592 8.991558093328525e-05
150 1 67.45805901639345 9.73946491803279 1.5287232558137133e-06
151 1 70.17350819672131 9.754965901639345 2.4213955236893203e-05
152 1 73.27673442622952 9.826664262295083 4.006818358101154e-05
153 1 76.31735081967214 9.767639344262296 5.516567307359458e-05
154 1 79.04289836065574 9.664989508196722 7.235882898214736e-05
155 1 81.68059016393444 9.913308196721314 4.377252986596305e-05
156 1 82.60055081967215 12.428860327868854 2.903481916051871e-05
157 1 2.5760716065573774 12.597805901639346 9.341948806486131e-05
158 1 5.775151475409836 12.667131147540983 1.1864308842424598e-05
159 1 8.47848262295082 12.485562622950821 9.373193120396313e-05
160 1 11.036245901639345 12.495004590163935 4.619820170242317e-06
161 1 13.524986885245903 12.364988196721313 8.934261263171551e-05
162 1 16.070935081967214 12.187358032786886 3.532471383483673e-05
163 1 18.948816393442627 12.36357442622951 9.255720052215972e-05
164 1 21.488402622950822 12.708130491803281 3.729784923687939e-05
165 1 23.93372065573771 12.205585573770493 9.430249827941829e-05
166 1 26.09507278688525 13.584466229508198 5.532331698548716e-05
167 1 28.40663803278689 11.988066885245903 2.9741021897700828e-05
168 1 32.25320459016394 12.61653836065574 6.787057263276556e-05
169 1 34.76118295081968 12.628706885245903 7.971564558085356e-05
170 1 37.32308655737705 12.482836065573771 2.950178458579712e-05
171 1 40.00950295081967 12.560744918032787 7.004316227583213e-05
172 1 43.680610491803286 11.943230163934428 2.825539051159186e-05
173 1 45.21944918032788 11.844013770491804 5.0145601251748234e-05
174 1 47.728235409836074 12.021088524590166 3.8968278107624634e-05
175 1 50.4075324590164 12.376399344262296 4.809111992832082e-05
176 1 53.195134426229515 12.485411147540985 6.585623671627444e-05
177 1 55.54148852459017 12.60497573770492 1.7184831221933362e-05
178 1 58.12666885245902 12.43052655737705 8.640932674469809e-05
179 1 60.998137704918044 12.50212393442623 2.807966337085064e-05
180 1 63.809016393442626 12.43168786885246 7.74743193053829e-05
181 1 66.37097049180329 12.105662295081968 2.2866601314118775e-05
182 1 68.88697704918033 11.967920655737705 7.35367699329539e-05
183 1 70.90059016393442 11.099259672131147 6.701259158737502e-05
184 1 74.23102950819673 11.022158688524591 2.8134831126297266e-05
185 1 77.73869508196722 11.914853770491804 6.159191634254994e-05
186 1 80.26076065573771 12.076730491803279 1.8006877504754603e-05
187 1 1.077585967213115 14.80288393442623 3.519844028506929e-05
188 1 3.4894531803278688 13.834350163934428 8.677673445743623e-05
189 1 7.263649836065574 14.814547540983607 2.500043675224535e-05
190 1 9.83797442622951 14.887205245901642 1.540613416742942e-05
191 1 12.43052655737705 14.882812459016394 7.114876676037357e-05
192 1 14.835956065573772 14.66741442622951 2.4616948308688424e-05
193 1 17.555848524590164 14.28206098360656 7.591404668836126e-05
194 1 20.108815081967215 14.927901639344265 6.490445420722274e-05
195 1 22.79447409836066 14.931688524590166 1.2749565128374252e-05
196 1 25.481950819672136 15.009849836065575 9.621194826371637e-05
197 1 27.946304262295083 14.825453770491805 4.672982000586894e-05
198 1 30.649786885245906 14.618285901639345 6.236193498932095e-05
199 1 33.279248524590166 15.035954098360657 1.970308721693176e-05
200 1 35.92648327868852 14.943251147540986 7.814582425539714e-05
201 1 38.54655344262296 14.795411147540985 2.5568167088805208e-05
202 1 40.60949704918033 14.002790819672134 5.9456507419441474e-05
203 1 44.07161901639345 14.777638032786886 8.606573687442827e-05
204 1 46.50133508196722 14.387184918032789 9.92377542760925e-05
205 1 49.03875016393444 14.437070819672133 8.440087690034967e-05
206 1 51.765206557377056 14.562088524590164 9.361206401329703e-05
207 1 54.3968393442623 15.046708852459018 4.3029991820543816e-05
208 1 56.93253770491804 14.811871475409838 4.5667740538177886e-05
209 1 59.56114098360656 14.498872786885247 5.761440636508519e-05
210 1 61.713606557377055 13.860403934426232 7.056565559522654e-05
211 1 65.29398032786887 14.605259016393443 5.8258239635914055e-05
212 1 67.91551475409837 14.407078688524592 2.4265398652495752e-05
213 1 70.70367213114754 13.992591475409837 7.69623346360237e-05
214 1 73.5004131147541 13.82460524590164 8.446551328265553e-05
215 1 76.30068852459017 14.123769180327871 1.0956301512253742e-05
216 1 78.98988196721312 14.357748196721314 6.788463337099372e-05
217 1 81.06307540983607 16.022866885245904 5.399885660973142e-05
218 1 0.41807516065573774 17.24774754098361 4.6576100303943505e-05
219 1 3.1120673442622953 16.51319278688525 1.5793988182760233e-06
220 1 5.784290491803279 16.887488524590164 6.557520715432228e-05
221 1 8.429000655737706 17.22734885245902 8.599580041886698e-05
222 1 11.166868196721312 17.265571147540985 8.551346791470678e-05
223 1 13.910239344262296 17.279860327868857 2.6268046173796523e-05
224 1 17.343480000000003 16.2147862295082 4.202427999844619e-05
225 1 18.237386885245904 18.22632918032787 3.656268407383433e-05
226 1 21.269520655737704 17.284152131147543 3.5503989096475075e-05
227 1 24.12109573770492 17.3181331147541 2.6665145481718347e-05
228 1 26.871788196721315 17.367160655737706 4.550158423902209e-05
229 1 29.547247868852462 16.94777573770492 2.639673592054308e-05
230 1 31.868760000000005 18.273488524590167 1.1740521444352059e-05
231 1 34.666258360655746 17.33550229508197 8.673391797328849e-05
232 1 37.43871278688525 17.200032786885245 6.683304551418926e-05
233 1 40.171228196721316 16.95933836065574 1.6119671408024107e-05
234 1 42.87814426229509 17.223259016393442 5.7418527149892e-05
235 1 45.410459672131154 17.034116721311477 5.210118803923547e-05
236 1 47.98771278688525 16.790544262295082 8.184092384601915e-05
237 1 50.68013770491804 16.668455081967213 2.3478376113804334e-05
238 1 53.054262295081976 18.121205245901642 6.699675902558005e-05
239 1 56.72451147540984 16.954137704918036 9.789803519133167e-07
240 1 58.25996721311476 16.90505967213115 1.878878834239115e-05
241 1 60.917855737704926 16.710009836065574 9.352038655652117e-05
242 1 63.65653114754099 16.815436721311478 4.8408109319399685e-05
243 1 66.73501639344262 16.825939016393445 5.355213787019464e-06
244 1 69.48227540983606 16.34172262295082 5.2047124977267926e-05
245 1 72.18358688524592 16.106481311475413 8.996706846177404e-05
246 1 74.87782950819673 16.167374426229507 9.000022194387655e-05
247 1 77.63316721311476 16.549041967213117 8.3103269757284e-05
248 1 80.3844655737705 17.435274098360658 4.719087808679351e-05
249 1 2.163831278688525 18.954925901639346 4.144418530629875e-05
250 1 4.161786885245902 20.270186885245902 2.4280326459885673e-05
251 1 6.996851147540984 19.402838688524593 1.692561837616554e-05
252 1 9.728508196721311 19.517404590163938 5.552512292317311e-05
253 1 12.385942295081968 19.557949508196725 4.3484229970454645e-05
254 1 15.015555409836068 19.591779016393446 3.468224238107095e-05
255 1 17.58144786885246 19.62045836065574 6.848461368055496e-05
256 1 20.113965245901642 19.43808196721312 3.528591903957729e-05
257 1 22.822446557377052 19.531390819672133 3.1253137646272046e-05
258 1 25.798382950819676 19.620963278688524 4.70898719342143e-05
259 1 28.536805901639347 19.446716065573774 5.90775160227457e-05
260 1 31.148645901639348 19.640352131147544 1.7386610174042737e-05
261 1 33.60618295081967 19.771378360655742 3.885144361030992e-05
262 1 36.26316262295082 19.483625573770492 4.58862835649667e-05
263 1 38.9530124590164 19.34704524590164 8.828469154525594e-05
264 1 41.66002950819672 19.376734426229508 5.097281114045672e-05
265 1 44.4420268852459 19.559009836065577 6.181844816358338e-05
266 1 46.97323147540984 19.260552786885246 1.6761047437415867e-05
267 1 49.5688131147541 18.973860327868852 2.268002709835234e-05
268 1 52.22821639344262 19.402384262295083 5.1785562411730814e-05
269 1 54.577600000000004 19.99238098360656 8.577129929608506e-05
270 1 56.989088524590166 19.53275409836066 8.877746302739442e-06
271 1 59.76310819672131 19.105492459016396 9.896947413760677e-05
272 1 62.33213114754099 18.981080655737706 5.8846602598100066e-05
273 1 64.36240655737706 18.200729836065577 3.3749825019176814e-05
274 1 68.07052459016394 18.7195331147541 5.5964284197800745e-05
275 1 70.77587540983608 18.469447213114755 2.9408541242581454e-05
276 1 73.43881311475411 18.41961180327869 3.8057226820937465e-05
277 1 75.976531147541 18.551193442622953 8.172299907418627e-05
278 1 78.59453114754099 19.05444524590164 2.4696412557692594e-05
279 1 81.0388393442623 18.85783016393443 3.5677720448321915e-05
280 1 0.5105175737704919 21.29597836065574 8.157254675217114e-05
281 1 3.195540393442623 21.4870393442623 1.4561364115807773e-05
282 1 5.738393442622952 21.78529442622951 9.707312271331114e-05
283 1 8.41607475409836 21.737024262295087 9.119111498843121e-05
284 1 10.929607213114755 21.887540327868855 7.023757692314755e-05
285 1 13.571439344262297 21.941314098360657 8.92328279841873e-06
286 1 16.24119344262295 22.010639344262298 6.010079072722902e-05
287 1 18.85040786885246 21.86502098360656 5.848034044966957e-05
288 1 21.47456786885246 21.689662950819674 8.759919776990566e-05
289 1 23.533421639344265 20.914361311475414 6.242434413321624e-05
290 1 27.163226885245905 21.761310819672133 3.2997407450157926e-05
291 1 29.733209180327872 21.926772459016394 9.37170310261632e-05
292 1 32.165954754098365 22.13939344262295 4.1629375157989815e-05
293 1 34.95229442622951 21.906020327868855 6.784770584478346e-05
294 1 37.62598688524591 21.70763803278689 2.438008665655429e-05
295 1 40.25186360655738 21.65366229508197 2.4233275135688548e-05
296 1 42.92540459016394 21.712283278688528 8.79855945898934e-05
297 1 46.632260327868856 21.65623737704918 6.474285836074129e-05
298 1 49.00108327868853 21.300270163934428 8.753456470055261e-05
299 1 50.53068196721312 21.40100131147541 6.83390081741954e-05
300 1 53.08859672131148 22.09374885245902 9.225277799070463e-05
301 1 55.96561967213115 22.160398032786887 8.978946709663656e-05
302 1 58.63916065573771 21.439779016393445 2.3061803998264386e-05
303 1 61.365213114754106 21.391811803278692 2.075673663531291e-05
304 1 63.89081311475411 21.187370491803282 7.629385983434767e-05
305 1 66.46387540983608 20.9480393442623 1.7186263928518042e-05
306 1 69.2535475409836 20.800653770491806 1.1231794478054802e-05
307 1 72.03463606557378 20.725673442622956 2.653840942758523e-06
308 1 74.62284590163935 20.8800268852459 7.326585230060016e-05
309 1 77.06917377049182 21.060939016393444 9.786733739401225e-05
310 1 79.35897704918034 20.388186229508197 4.379894111166849e-05
311 1 1.4383953442622952 23.677323278688526 1.623404433313992e-05
312 1 4.088972655737706 23.965429508196724 8.813113704376497e-05
313 1 6.830480655737706 24.002793442622952 9.28818301102041e-05
314 1 9.387284590163935 24.254747540983608 6.524478491078833e-06
315 1 12.032903606557378 24.262725245901642 6.995781088758926e-05
316 1 14.821565901639344 24.303017704918034 8.310408431214244e-05
317 1 18.513728524590167 23.981637377049182 2.152816424345602e-05
318 1 20.058828196721315 24.03899606557377 3.651484555864759e-05
319 1 22.791293114754097 23.868030819672132 1.2501938336463315e-05
320 1 25.510983606557378 23.90857573770492 4.8387058779684424e-05
321 1 28.11676459016394 24.201781639344265 5.939490833070108e-05
322 1 30.695330491803283 24.536592786885247 4.857859023366844e-05
323 1 33.635821639344265 24.180322622950822 1.3743788025902326e-05
324 1 36.34304065573771 24.09266885245902 8.40767585804604e-05
325 1 38.846070819672136 24.025413770491806 3.77254763383556e-05
326 1 41.43508852459017 23.984565901639346 8.627885402500415e-05
327 1 43.91292327868853 24.231672786885248 7.880380717138919e-05
328 1 46.29755016393443 24.180524590163937 6.618699157987772e-05
329 1 48.762358032786885 23.82248721311476 1.3225214397544184e-05
330 1 51.527390163934434 24.037077377049183 7.870054793291805e-05
331 1 54.270609836065574 24.17219344262295 6.841569374013306e-05
332 1 58.29884590163935 23.72180655737705 8.32380499141193e-05
333 1 59.830767213114754 23.628598688524594 9.644527336149546e-05
334 1 62.489665573770495 23.742356721311477 9.424090457955223e-05
335 1 65.45706885245903 23.490655081967216 5.8362794055787494e-05
336 1 68.03366557377049 23.038955409836067 3.341606129874977e-05
337 1 70.63045901639344 22.913735737704922 5.887293145859196e-06
338 1 73.24139016393444 23.145695081967215 5.974137968088983e-05
339 1 75.79779016393444 23.426681967213117 4.202013822442162e-05
340 1 78.6399737704918 23.166497704918037 3.106857901618112e-05
341 1 81.45287213114754 23.315448524590163 3.776253424198305e-05
342 1 0.10957882622950821 25.861598688524595 1.4105475152820824e-05
343 1 2.8071574426229513 26.13243672131148 9.106568916021161e-05
344 1 5.577223606557378 26.183736393442626 4.535761293727912e-05
345 1 7.7777573770491815 27.664257049180332 2.0044471410666232e-07
346 1 10.528500327868853 26.630235409836068 9.29080853657613e-05
347 1 13.286312131147543 26.49385704918033 9.920077603790279e-05
348 1 15.953693114754099 26.68249442622951 4.955889132509341e-05
349 1 18.54781049180328 26.49607868852459 6.603903807709143e-05
350 1 21.350105573770495 26.2340262295082 5.2543412611432876e-05
351 1 24.055405901639347 26.184039344262295 4.327180403523105e-05
352 1 26.772470819672137 26.425087213114757 6.210946053684477e-05
353 1 29.367699016393445 26.71677836065574 4.306846424647446e-05
354 1 31.40726491803279 25.917089180327874 5.379300768340961e-05
355 1 34.83434557377049 27.573977704918033 5.3485558258613965e-05
356 1 37.51515737704918 26.485475409836067 7.10757151258068e-07
357 1 40.21490360655738 26.357074754098363 2.7481197060982953e-06
358 1 42.781755409836066 26.5057731147541 8.124389390825094e-05
359 1 45.327804590163936 26.66280262295082 4.9772845562338366e-05
360 1 47.900715409836074 26.401659016393445 4.316510536259307e-05
361 1 50.450652459016396 26.16162098360656 1.7080511385197616e-06
362 1 53.096170491803285 26.32597180327869 7.660490595197717e-05
363 1 55.73184262295082 26.33687803278689 4.849699695436659e-05
364 1 58.44173770491804 27.22280721311476 2.3114910135586345e-05
365 1 61.16324590163935 26.002369836065576 3.383152227898788e-05
366 1 63.34651147540984 25.034492459016395 7.330915291558003e-05
367 1 67.16571147540984 25.54592393442623 2.6390096859547397e-05
368 1 69.71504262295083 25.253879344262298 8.578882779140537e-05
369 1 72.35929836065574 26.245083934426233 8.211319663227845e-06
370 1 74.96366557377051 26.491786885245904 8.073374563165207e-05
371 1 77.69981639344263 25.367738360655743 1.746431756365311e-05
372 1 80.042131147541 26.61428 2.9223811261034785e-05
373 1 1.501808 28.308431475409837 1.6291190411161838e-05
374 1 4.11049731147541 28.415726557377052 4.7913662938942464e-05
375 1 6.872691803278689 28.932005245901642 1.594870934547733e-05
376 1 9.589605245901641 29.160228196721317 5.738324402993895e-05
377 1 12.186398688524593 28.7681593442623 1.3132617042717676e-05
378 1 14.746737049180329 28.858489180327872 2.6976863567863097e-05
379 1 17.427296393442624 28.91100065573771 9.70430352287737e-05
380 1 20.091294426229513 28.56472786885246 2.609580415533677e-05
381 1 22.70944590163935 28.509136393442624 9.838044433985852e-05
382 1 25.29957442622951 28.568464262295084 4.822215844863212e-05
383 1 28.001744262295084 28.953110819672133 2.1945357298132694e-05
384 1 31.16566163934427 28.886461639344265 8.925986263029155e-05
385 1 34.00471475409836 28.87005180327869 8.2651522960829e-05
386 1 36.65432262295082 29.025112131147544 6.399877039869127e-05
387 1 39.141700327868854 28.65106885245902 1.4097563782659762e-05
388 1 41.69284918032787 28.772198688524593 8.46474760412126e-06
389 1 44.1465993442623 28.954827540983608 1.3154599928679356e-05
390 1 46.77323344262295 28.87969573770492 8.545659125406282e-05
391 1 49.41748918032787 28.658137704918037 1.9496454446316025e-05
392 1 52.063108196721316 28.546601311475413 9.316197821174232e-05
393 1 54.81844590163935 28.60289967213115 6.759969047618708e-06
394 1 57.7192 28.580430819672134 9.098213003975585e-05
395 1 60.41495737704919 28.450717377049184 3.8771422507126276e-05
396 1 63.11929836065575 27.907779016393448 4.5653421679771455e-05
397 1 65.8812 27.769280000000002 4.896413201430704e-05
398 1 68.65875409836066 27.77432918032787 6.559151502979003e-05
399 1 71.58980327868854 27.60078885245902 5.9696820760014314e-05
400 1 74.22194098360656 27.835828196721312 5.5916953032894584e-05
401 1 76.71371147540984 27.888794098360655 7.499779722713815e-05
402 1 79.43017049180328 28.02805049180328 4.2753997042423675e-05
403 1 81.7083606557377 28.341756065573772 8.061643050122575e-05
404 1 0.09571933114754098 30.766019016393443 8.359212460034341e-05
405 1 2.6634880655737705 30.73340131147541 5.075680189586307e-05
406 1 5.193536393442623 30.827013114754102 3.295735628609301e-05
407 1 7.345648524590165 30.394601311475412 7.558908717837412e-05
408 1 10.964900983606558 31.25215409836066 2.220206939434858e-05
409 1 13.470506229508198 31.18131409836066 6.608271432039615e-05
410 1 16.113651147540985 31.156017704918035 7.305416513911261e-05
411 1 18.837078032786888 31.012721967213118 3.435155209253782e-05
412 1 21.466539672131148 30.892904918032787 9.479459674304403e-05
413 1 24.043489836065575 30.912041311475413 4.331611825838756e-05
414 1 26.62680196721312 30.982477377049186 6.67975591304147e-05
415 1 28.864043278688527 30.24691278688525 4.4682776494397796e-05
416 1 32.55539803278689 31.047460327868855 6.92681169990244e-05
417 1 35.24524786885246 31.222818360655744 4.154146495127439e-05
418 1 38.75983081967214 31.038220327868856 7.8543585207687e-05
419 1 40.28786426229508 31.063920655737707 9.215005894419806e-05
420 1 42.76852655737706 31.308957377049186 4.741593741886627e-05
421 1 45.45554885245902 31.245741639344267 7.928745669295896e-05
422 1 48.18973049180329 31.078007868852463 6.070534978391242e-05
423 1 50.88614426229509 30.922796065573774 6.779319079356695e-05
424 1 53.57937704918033 30.811007213114756 8.954205146395956e-05
425 1 56.32663606557377 30.699672786885248 1.217615103522186e-05
426 1 59.13650491803279 30.76930098360656 3.9001773301320684e-05
427 1 61.931226229508205 30.403235409836068 4.78630227102056e-06
428 1 64.67697049180329 30.12139016393443 7.740147023082783e-05
429 1 67.39595409836068 30.059234754098362 1.0509116051998348e-05
430 1 70.0624262295082 29.777389508196723 8.440805971671716e-05
431 1 72.66729836065575 30.02782885245902 1.782956922753042e-05
432 1 75.11312131147542 30.232017704918036 1.2062485580557514e-05
433 1 77.75788196721312 30.161884590163936 9.377158294273473e-05
434 1 80.2304655737705 30.7140124590164 5.3885132043473374e-05
435 1 1.339497049180328 33.143829508196724 1.703714481589459e-05
436 1 3.9577141639344267 33.192251147540986 6.631573881674337e-05
437 1 6.615587540983607 33.2040662295082 2.603205507011396e-05
438 1 9.339317377049182 33.39623803278689 7.865807405536406e-05
439 1 12.047293770491803 33.60911147540984 7.956115516118085e-05
440 1 14.678825573770494 33.46960262295082 6.116433546276442e-05
441 1 17.48213049180328 33.31918754098361 5.533402985858125e-05
442 1 20.192278032786888 33.28111672131148 6.420328389853758e-05
443 1 22.806592131147543 33.28520655737705 7.465225695240769e-05
444 1 25.43857836065574 33.31151278688525 7.665581772972648e-05
445 1 28.127670819672133 33.12444065573771 8.463376100844376e-05
446 1 30.880837377049183 33.20780262295082 7.390156082987279e-05
447 1 34.37633442622951 33.31681442622951 1.104910398342447e-05
448 1 35.89184590163935 33.53337377049181 2.768593892453083e-05
449 1 38.5327186885246 33.77628983606557 6.0457834305894235e-05
450 1 41.35415016393443 33.63450885245902 7.732122159943046e-05
451 1 44.08217180327869 33.56922295081967 6.0720959098780194e-05
452 1 46.8925455737705 33.39861114754099 8.353527245389971e-05
453 1 49.635361311475414 33.27682491803279 9.915417195217454e-05
454 1 52.34030819672132 33.15392786885246 3.9700251978437095e-05
455 1 55.01990819672132 33.00124065573771 4.118787657094836e-06
456 1 57.76817704918034 32.90904262295083 3.304593621493808e-05
457 1 60.574006557377054 32.7520131147541 3.662701406169427e-05
458 1 63.29702950819673 32.510106885245904 2.9358813949717223e-05
459 1 66.04529836065575 32.417252459016396 6.433118014263068e-05
460 1 69.58224918032788 32.05754885245902 1.1439200173772601e-05
461 1 71.12376393442624 32.22245508196722 7.024614457969117e-05