# input file

2232 atoms
1 atom types

0.0 82.68810555352132 xlo xhi
0.0 83.16 ylo yhi
-10.0 10.0 zlo zhi
0.0 0.0 0.0 xy xz yz

Masses

1 12.0100 #C

Atoms

1 1 1.737513836065574 0.5208986885245902 6.803781494517802e-06
2 1 4.548675278688525 0.5896129836065575 3.9949973955365483e-07
3 1 6.5319226229508205 2.204204524590164 9.243490567681091e-05
4 1 10.548697049180328 0.8849950819672132 2.0022023489978536e-05
5 1 12.040881311475411 1.268965049180328 4.879304290462461e-07
6 1 15.608783606557378 2.0882702950819674 3.287488129409794e-05
7 1 18.470659016393444 1.6131272786885247 4.348847779088099e-05
8 1 21.156015081967215 2.3658186885245907 3.204830747847564e-05
9 1 23.94735344262295 1.7263904918032789 1.853693402987683e-05
10 1 26.34450229508197 1.68684531147541 1.4245869259994871e-05
11 1 28.615825573770493 1.0529863606557377 8.020193440028513e-05
12 1 31.183737704918034 0.5424384918032787 5.912862581393991e-05
13 1 34.37290098360656 83.10395409836066 9.544969772491273e-05
14 1 36.49244590163935 1.2762712131147542 1.6657244586432576e-05
15 1 39.17446950819673 0.6538789508196722 5.743972228202963e-05
16 1 41.71471213114754 0.7281523934426231 5.100912594341116e-05
17 1 45.45524590163935 0.2952841442622951 7.565022286279737e-05
18 1 47.00004262295083 0.04883855016393443 4.214876414416939e-05
19 1 49.48489573770492 1.36252131147541 7.613084153083463e-05
20 1 52.41958032786886 0.7287835409836066 3.4791801280358606e-05
21 1 55.329422950819676 1.022873049180328 4.0451248214914886e-05
22 1 57.83785573770493 0.8400624262295082 5.696810945774953e-05
23 1 60.422026229508205 1.5648621639344265 3.8480238435376184e-05
24 1 63.58230819672132 82.97721967213116 2.9958698754755866e-05
25 1 65.08191475409836 0.06202110163934427 3.354837245205227e-05
26 1 68.32803278688525 1.3324534426229508 7.473792178192623e-05
27 1 71.01015737704918 83.14535737704918 4.5757915451981645e-05
28 1 73.50344262295081 83.15798032786886 1.610768672630375e-05
29 1 76.1916262295082 0.13219309508196722 3.422439919450854e-05
30 1 78.77832131147541 0.2739675147540984 9.279519180827978e-06
31 1 81.57304262295082 0.25685230819672134 7.813715241329187e-05
32 1 0.21475527213114756 2.5443375081967217 1.742795385419611e-05
33 1 3.0919413114754097 2.7792253770491806 4.5847567641809144e-05
34 1 5.7862091803278695 3.5536080655737705 9.963913139370486e-05
35 1 8.10469180327869 3.9845960000000002 9.318369807576814e-05
36 1 10.506031475409838 3.104210819672131 9.807355072484897e-05
37 1 13.015878032786885 2.4608291147540986 6.116757177267012e-05
38 1 17.01816131147541 3.9435461639344265 5.7053167867565616e-05
39 1 21.214080655737707 3.8830216393442627 5.1345891820725914e-06
40 1 22.731359344262298 4.061772721311476 4.843601424945421e-05
41 1 25.41434229508197 4.2058510819672135 6.311921140276235e-05
42 1 28.72998754098361 3.5145021639344267 2.7415131491444158e-05
43 1 30.21333573770492 3.0699773770491805 6.68910164018348e-05
44 1 32.18372786885246 1.7206394754098362 9.127399969389821e-05
45 1 35.818178360655736 2.629103147540984 1.342935940189155e-05
46 1 38.10626491803279 3.103488786885246 5.424064572896995e-05
47 1 40.12154426229509 4.3800680000000005 6.713857636911564e-05
48 1 42.782664262295086 3.167461901639345 2.827549560235765e-05
49 1 45.573346229508196 2.7124398688524596 7.810411395493919e-05
50 1 48.62931213114755 2.6523091803278693 1.380459850697845e-05
51 1 51.282000000000004 2.9734118032786885 8.230435842960653e-05
52 1 54.01310163934427 2.9951788196721316 4.642567340912213e-05
53 1 56.8608393442623 3.3854855081967217 6.133317253893822e-05
54 1 60.57905573770492 3.0751830819672135 7.205193573619574e-05
55 1 62.08674098360656 3.245401049180328 4.263464881079293e-06
56 1 64.37149508196723 2.4612784918032786 7.722747883087908e-05
57 1 66.0276262295082 1.2698284590163935 8.028627762944374e-05
58 1 70.02304262295083 2.3757655737704924 3.106884036350962e-05
59 1 72.37141639344263 2.429488852459017 3.602995897490781e-05
60 1 75.05859016393444 2.2745295081967214 5.507622540758203e-05
61 1 77.49229508196721 3.510058885245902 6.0146834282040475e-05
62 1 80.23904918032787 2.5205609180327873 6.695276060544547e-05
63 1 1.4724419672131148 4.731465704918033 7.955282270546251e-05
64 1 4.086109770491804 5.335064918032788 6.283675723305913e-05
65 1 6.9943265573770494 6.259064918032788 2.0468188277025746e-05
66 1 10.760055737704919 5.265537704918033 1.9071238627994925e-05
67 1 12.259258360655737 5.047690819672131 8.588382299204995e-05
68 1 14.433788852459019 4.65937855737705 1.6960711470857326e-05
69 1 17.764430163934428 6.069367213114755 1.8465670053448802e-05
70 1 20.319820327868854 6.070982950819673 2.7942879039723925e-06
71 1 23.90014360655738 6.418164590163935 7.078791634804411e-05
72 1 26.584893770491806 6.6535068852459025 1.0134017462027966e-05
73 1 29.093478032786887 6.273354098360657 6.458716577653967e-06
74 1 32.64360721311476 4.513588524590164 5.010458375338268e-05
75 1 34.18163803278689 4.265693967213116 2.7266888521762103e-05
76 1 36.275583606557376 6.308092459016394 1.8284788656096175e-05
77 1 39.24374426229509 5.670330491803279 5.77546436363255e-05
78 1 41.88673770491803 5.765860983606558 3.546421911661122e-05
79 1 44.481208524590166 5.04027862295082 3.871562413459761e-06
80 1 47.29521770491804 4.590381508196722 8.680873340413905e-05
81 1 49.959619672131154 5.102348196721312 3.976042623069386e-05
82 1 52.479160655737715 5.238423606557378 8.978014229695712e-05
83 1 55.15724590163935 5.319513442622951 1.4915832115563866e-05
84 1 58.57301639344263 5.789541639344263 9.632774489030094e-06
85 1 60.86433442622952 5.337690491803279 2.8444496407948997e-06
86 1 64.71736393442625 4.690592590163934 8.935508465725086e-05
87 1 66.2169704918033 4.329641836065574 7.875492189877379e-05
88 1 68.63855737704918 4.385612000000001 8.721455361308418e-05
89 1 70.94653770491804 5.891181639344263 9.813948982016123e-05
90 1 73.70591475409837 4.6174299672131145 7.461992223063688e-05
91 1 76.62080655737705 4.767224000000001 8.050753129768345e-05
92 1 79.06360000000001 5.012745442622951 3.633729892524139e-05
93 1 81.57708196721312 4.877720262295083 8.120911887173395e-05
94 1 0.8592745573770493 7.024066229508198 7.225894106724159e-05
95 1 2.3773409180327874 7.237141639344263 8.517775681995247e-05
96 1 4.584948590163934 6.794530491803279 4.065284637968436e-06
97 1 9.120435409836066 8.105651147540984 5.087957489953964e-05
98 1 10.623626885245901 7.881013114754099 7.746663771834912e-05
99 1 13.331249836065574 7.492226229508197 1.7910134381059573e-05
100 1 15.973637377049181 8.009211803278689 1.6460600178834472e-05
101 1 19.838885901639348 8.145943606557378 2.4556018009396763e-05
102 1 21.140615081967216 7.342921967213115 5.5585215837519045e-05
103 1 24.558304262295085 8.680853770491803 3.577054104125655e-05
104 1 28.059607868852463 8.895898360655739 4.6705454485901136e-06
105 1 31.397873442622956 7.858847213114755 6.761272317752112e-05
106 1 32.84042426229509 7.362714754098362 9.1886965177452e-05
107 1 35.45948459016394 7.645468852459017 8.911868280902664e-05
108 1 37.904398688524594 7.9331711475409845 1.8544771207184042e-05
109 1 40.290944262295085 8.01956262295082 6.114710114668452e-05
110 1 44.41642754098361 7.22265049180328 5.314074085665316e-05
111 1 45.889020983606564 6.862139016393443 7.994484856895803e-05
112 1 48.398110163934426 7.067792131147542 7.6648681965273e-05
113 1 51.21333114754099 7.603964590163935 6.924679952186292e-05
114 1 53.771245901639354 7.555593442622952 4.824894303352272e-05
115 1 56.11154098360656 7.993104918032788 3.530836601391563e-06
116 1 57.60609836065574 6.950348196721312 2.305738771354393e-05
117 1 62.07512786885247 7.340144918032788 5.370561107615294e-05
118 1 64.75674754098362 7.214874754098361 4.034453902576522e-05
119 1 67.54995409836066 6.946308852459017 4.461107057914713e-05
120 1 70.07403934426229 7.185539016393443 4.547174475613243e-05
121 1 73.56453770491804 6.618819016393443 9.216274808003752e-05
122 1 75.08383606557378 6.7113704918032795 6.5884849605905e-05
123 1 77.49027540983607 7.300003934426231 5.730738350120272e-05
124 1 79.95579016393444 7.305558032786886 8.206970844294082e-05
125 1 1.1726620327868855 10.598986885245901 4.859646147775441e-05
126 1 4.443793704918033 9.402634098360657 9.394495555919567e-05
127 1 5.908348852459016 8.960174426229509 6.78087546398095e-05
128 1 9.160879344262296 10.573539016393443 4.586205381146793e-05
129 1 11.764590163934427 9.932091147540985 1.4364051360984244e-05
130 1 14.30816524590164 10.04276918032787 1.3070852536045442e-05
131 1 16.819021639344264 10.47780655737705 8.414634133199048e-05
132 1 19.41637049180328 10.512948852459019 2.9695704828507343e-05
133 1 22.219574426229514 10.118304918032788 4.8476423982835184e-05
134 1 24.912958688524593 10.16167737704918 5.117001403578412e-05
135 1 28.98567803278689 10.863816393442622 9.061409532203611e-05
136 1 31.676285245901642 10.724560000000002 1.5925217968946292e-05
137 1 34.044249836065575 9.941432131147542 7.556395387264539e-05
138 1 36.645537049180334 10.227468196721313 4.1700715575081994e-05
139 1 39.14119540983607 10.474474098360657 5.000942979267548e-05
140 1 41.37136786885247 9.085394098360657 7.765592466482477e-05
141 1 44.60127803278689 10.234587540983608 2.382433152699135e-05
142 1 47.73121442622951 9.173552786885246 1.7724806354652122e-05
143 1 49.05672524590164 8.437685245901639 4.811842870349894e-05
144 1 52.480170491803285 9.929920000000001 9.722455319902546e-06
145 1 55.142603278688526 10.173290491803279 2.00227705993969e-05
146 1 58.01659672131149 9.940018360655738 6.371239855259973e-05
147 1 60.632577049180334 9.415660983606559 9.920824268853946e-05
148 1 63.343986885245904 9.509777704918033 2.061595741813671e-05
149 1 66.21798032786886 9.294985573770493 3.43597318633462e-05
150 1 68.73449180327869 9.618436065573771 4.0661993655013674e-05
151 1 71.80388852459018 9.512403278688526 1.5575902557668552e-05
152 1 73.31056393442624 9.330632786885248 7.776954834294412e-05
153 1 76.0032918032787 9.422275409836066 9.812376392602186e-06
154 1 78.45012459016395 9.736889836065574 1.2800861963937216e-05
155 1 81.0696393442623 9.834793442622953 7.720746323685065e-05
156 1 0.7224872131147542 12.054615081967215 1.4581310758021849e-05
157 1 2.217731278688525 12.30964918032787 5.205538947221966e-06
158 1 4.911034754098361 12.374935081967214 7.725161722068233e-05
159 1 8.564571147540985 12.695507540983607 5.92987549472545e-05
160 1 10.09825967213115 12.424568524590164 9.676512702664109e-06
161 1 12.638704262295082 12.337217704918034 7.219649887695929e-05
162 1 15.350164590163935 12.639411147540985 9.502671102893622e-05
163 1 18.09515147540984 12.815274098360657 3.354775377096028e-05
164 1 20.90855475409836 12.463396721311478 1.2768276759197451e-06
165 1 23.671314754098365 12.37089573770492 7.172468070508137e-05
166 1 25.393287213114757 13.882519344262295 9.197458175224873e-05
167 1 30.762282622950824 13.019462950819673 2.0518797699718962e-05
168 1 33.77391672131148 12.683591475409838 7.857320675415838e-05
169 1 35.28417704918033 12.420731147540984 1.9879052336096213e-06
170 1 37.809676065573775 12.77392131147541 3.825252000757411e-05
171 1 40.33881049180329 11.442906885245902 1.3983409068101083e-05
172 1 42.06058098360656 13.627889180327871 2.7645022679572674e-05
173 1 46.342588852459016 12.46253836065574 2.2281127749621468e-05
174 1 47.84785049180328 12.10636918032787 4.360038038867963e-05
175 1 50.723560655737714 11.93005180327869 3.313577207203198e-05
176 1 53.60967213114755 12.314799344262298 9.095281750334843e-05
177 1 56.502347540983614 12.12792918032787 2.8848203173355214e-05
178 1 60.31902295081967 11.756460983606559 8.235039380843165e-05
179 1 61.87720000000001 11.708594754098362 4.8356325485161416e-05
180 1 64.51741639344263 11.41064262295082 7.626863656994606e-05
181 1 67.1132 11.89268786885246 6.169601946808197e-05
182 1 69.55649836065575 12.44012 5.882799096288368e-05
183 1 72.71173114754099 11.392718032786886 4.196056735286367e-05
184 1 74.24870163934426 11.564188196721313 8.504859899230805e-05
185 1 76.78137049180329 12.02129049180328 1.8533218486911973e-05
186 1 79.4756131147541 12.09516 8.318664475192172e-06
187 1 82.67426885245902 14.37895475409836 8.203051106652848e-05
188 1 2.854054229508197 14.417580983606559 6.498654200656938e-05
189 1 5.561874098360656 14.921691147540987 7.585149531331867e-05
190 1 8.272728524590164 15.303661639344265 4.5862729539135285e-06
191 1 11.648459016393444 14.775921311475411 6.858739569574458e-05
192 1 14.001023606557379 15.793684590163934 5.117113033594707e-05
193 1 16.816749508196725 14.954409836065576 4.412746571791449e-06
194 1 19.484433442622954 14.771680000000002 1.2339338767594078e-06
195 1 22.114753442622952 14.630353442622953 4.2355904354813926e-05
196 1 24.532149508196724 15.162082622950821 5.581828176934109e-05
197 1 26.637556721311476 15.961418360655738 7.121522625150272e-05
198 1 28.321811803278692 14.534217049180329 7.986421597583896e-05
199 1 31.962927213114757 13.964770491803279 2.9181073371168544e-05
200 1 36.333144262295086 15.029188196721313 8.042614647745243e-05
201 1 39.00118163934427 15.007426229508198 1.0621219187664155e-05
202 1 41.50012196721312 15.056857704918034 3.3877935265254444e-05
203 1 43.89176721311476 15.17021180327869 8.903799097353822e-05
204 1 46.31698950819673 14.612883278688525 9.729877826855444e-05
205 1 49.11282163934427 14.153306885245902 9.023624874430507e-05
206 1 51.91163278688525 14.201425573770493 6.471480589170088e-05
207 1 55.63186885245903 14.216674098360658 8.241522561373791e-05
208 1 57.16530491803279 14.207636065573773 4.085606742568161e-05
209 1 59.87116065573771 14.477110819672133 2.716737287813711e-05
210 1 64.82390163934427 14.8818531147541 2.3210547309467356e-05
211 1 64.46187540983607 13.380428852459017 1.0823394338547343e-05
212 1 67.73172459016395 14.582234754098362 1.8331587086398083e-05
213 1 71.81752131147542 14.487512131147541 7.619993008214226e-05
214 1 73.29188196721313 14.042881311475412 6.917246425142743e-05
215 1 75.67055081967213 15.490077377049182 4.862901847549657e-05
216 1 78.47688524590166 14.309881967213117 2.49929520292695e-05
217 1 80.04263606557379 14.499125245901642 1.0957100798100061e-05
218 1 82.44150163934427 16.420792786885247 6.438742366620126e-05
219 1 1.2908431475409838 16.457550819672132 6.426742791048653e-05
220 1 3.8272080000000006 16.783828852459017 5.962435314124837e-05
221 1 6.026095737704918 16.385095081967215 8.84189643707009e-05
222 1 9.407834754098362 16.35984918032787 9.512069335948838e-05
223 1 13.13968393442623 17.06158426229508 8.781773708697266e-05
224 1 15.748746885245904 17.298643278688527 5.1760574828659315e-05
225 1 18.51897967213115 17.124951475409837 8.115668594776615e-05
226 1 21.08270098360656 16.977212459016396 2.7526744634989754e-05
227 1 23.308480655737707 18.588405901639348 6.107544841886554e-05
228 1 26.149099016393446 18.51211278688525 9.08432331202151e-05
229 1 28.889137704918035 17.35423475409836 2.456154232188269e-05
230 1 31.553287213114757 16.56166491803279 1.9161844212617718e-05
231 1 33.912617704918034 15.774497704918035 8.223612024804404e-05
232 1 37.592106885245904 17.300612459016396 5.2509458359346655e-05
233 1 40.17829704918033 17.4498662295082 6.232047731635281e-05
234 1 42.66188786885246 17.556000000000004 2.875238215134174e-05
235 1 45.36905639344263 17.254765901639345 5.6362497735225275e-05
236 1 47.9797855737705 16.555706885245904 2.53049334136364e-05
237 1 50.299278032786894 16.346064918032788 7.78340918873147e-05
238 1 52.67001967213115 16.48506885245902 9.087247474855594e-05
239 1 55.013344262295085 16.922176393442623 4.308678535117219e-05
240 1 57.973173770491805 16.495520655737707 9.609812444832884e-05
241 1 60.64822950819673 16.8862262295082 2.68288724235891e-05
242 1 62.47603278688525 16.183127868852463 5.8461767433259595e-05
243 1 66.23868196721313 16.749696393442623 8.947722012478161e-05
244 1 68.46234098360657 15.952683278688527 4.363204486510203e-05
245 1 72.16288524590163 17.204072131147544 4.90257352660365e-05
246 1 74.9212524590164 16.914552131147545 6.100499796362895e-05
247 1 77.23377704918033 17.632192131147544 4.270064093302608e-05
248 1 79.5452918032787 17.289049836065576 4.562413446922824e-05
249 1 0.7113689180327869 19.072369836065576 2.5419819577961014e-05
250 1 3.21807993442623 18.807439344262296 5.74131794466395e-05
251 1 5.762932459016394 20.255998688524596 8.440956300486943e-05
252 1 8.58825180327869 19.270802622950825 1.0853118342094316e-05
253 1 11.3521731147541 19.077318032786888 7.652277083850765e-05
254 1 14.155124590163936 19.456309508196725 3.952413213144401e-06
255 1 17.081528524590166 19.365676721311477 4.687107848901351e-05
256 1 20.029492459016396 19.425711475409837 1.1084050553016145e-05
257 1 22.760695081967217 20.058727213114757 2.90812924415357e-05
258 1 25.923097704918035 20.01055803278689 9.877262249470449e-05
259 1 28.602142295081972 19.480192131147543 6.924879549356346e-05
260 1 31.25477967213115 18.8228393442623 4.238168774149781e-05
261 1 33.38139344262295 20.076702295081972 2.2908737314803397e-05
262 1 36.082906885245905 19.24692 3.31208918599507e-05
263 1 38.957455737704926 19.73472131147541 7.260501880108955e-05
264 1 41.603933114754106 19.910887213114755 9.899101783692611e-05
265 1 44.11226491803279 19.602988196721313 7.491688659092771e-05
266 1 47.032003934426236 19.098575081967216 1.5011498541065949e-05
267 1 49.896605901639354 18.842531147540985 2.8044587414217716e-05
268 1 51.41378360655738 18.870705573770493 5.874626029155697e-05
269 1 53.6308786885246 19.12149836065574 6.24420365732298e-05
270 1 55.6752918032787 18.31115540983607 5.591043112449893e-05
271 1 59.0052262295082 19.91957180327869 2.7693663637908906e-05
272 1 61.92567213114754 19.162194754098362 5.27331502342606e-05
273 1 64.9733573770492 19.054142295081967 8.718651313026952e-05
274 1 67.85845901639345 18.804914754098363 9.280421165941261e-05
275 1 70.47797377049181 19.228238032786887 3.0286763075002235e-05
276 1 73.16615737704919 19.275144918032787 2.6394334117139753e-05
277 1 75.83464918032789 19.71709967213115 3.542392232952857e-05
278 1 78.58039344262296 19.89644655737705 8.878175042611787e-05
279 1 81.14588196721313 19.652116721311476 7.517867178482417e-05
280 1 0.7295813114754098 21.56277704918033 9.116546943430215e-05
281 1 2.2578318688524592 21.333190819672133 1.4802156095812747e-05
282 1 5.046999081967214 21.633465573770494 9.626305382182583e-05
283 1 7.520754098360657 21.772772459016398 9.657331906083457e-05
284 1 10.046354098360656 21.480222950819677 5.895970932219499e-05
285 1 12.728478688524591 21.435285245901643 5.1395326350752e-05
286 1 15.544608524590165 21.408928524590163 2.3284681728307e-05
287 1 18.390730491803282 21.34450098360656 9.474790771588598e-05
288 1 21.06846229508197 21.93323540983607 9.032493248942529e-05
289 1 23.498481311475413 21.43260918032787 4.985184143584254e-05
290 1 27.3551462295082 21.88804524590164 6.621941601926962e-05
291 1 30.069535081967217 21.337634098360656 8.47122139690325e-05
292 1 32.678295081967214 21.48234360655738 2.62030108618615e-06
293 1 35.20823737704918 21.82195147540984 1.374994995612866e-06
294 1 37.600791475409835 21.540964590163938 5.674570713546515e-05
295 1 40.5121993442623 22.157368524590165 7.872045709738303e-05
296 1 43.433301639344265 22.10324131147541 1.4822792666439534e-05
297 1 45.806416393442625 21.22241180327869 3.0585302513133703e-05
298 1 47.913691803278695 22.588316065573775 4.122524254578506e-05
299 1 50.58066885245902 21.700771147540987 8.349775260816342e-05
300 1 53.028006557377054 21.431750819672132 6.207081797068708e-05
301 1 55.59299016393443 22.359588196721315 6.59699135112779e-05
302 1 58.39780983606558 21.308045901639346 6.94287710689926e-05
303 1 60.969357377049185 21.145159344262296 7.450803069287268e-05
304 1 63.47678032786886 21.70688065573771 8.737811264796622e-05
305 1 66.85215737704918 22.17877704918033 4.7360070921595335e-06
306 1 69.42017049180329 21.274620327868853 6.347450983480275e-05
307 1 71.5221442622951 22.77331803278689 2.6924271429304016e-05
308 1 74.10025573770493 21.739649836065574 9.665371660760058e-05
309 1 78.1436393442623 21.707688524590164 4.977044637707203e-05
310 1 79.65485901639346 22.053102950819675 9.691119139171318e-05
311 1 0.7051382295081967 24.06217180327869 6.499753433089987e-05
312 1 3.553749442622951 23.719736393442627 3.223392937715063e-05
313 1 6.143438688524591 24.165478032786886 9.667410790204063e-05
314 1 8.851162622950822 24.07605704918033 6.651246848369368e-05
315 1 11.537780983606558 23.76341180327869 4.679614599403022e-05
316 1 14.45176393442623 23.536451147540987 2.568416774533493e-05
317 1 17.296169180327873 23.405475409836065 1.3843704570808191e-06
318 1 19.863929836065573 24.728259672131152 4.631269925669668e-06
319 1 21.927176393442625 23.222796065573775 7.843569820023851e-05
320 1 25.96808590163935 23.942253770491806 2.5715458346250677e-05
321 1 28.794415081967216 23.738266885245903 5.314573490512975e-06
322 1 30.78868983606558 24.897154754098363 9.421360873341358e-05
323 1 33.557458360655744 24.015012459016393 3.741137777330982e-05
324 1 37.32611606557377 23.981233442622955 2.7154527611425186e-05
325 1 38.80653573770493 23.683483278688527 5.526692275866119e-05
326 1 41.26664786885246 23.547357377049185 2.403412693342494e-05
327 1 44.95911344262296 23.95820918032787 3.8032768181109304e-05
328 1 47.3545455737705 23.991180327868854 9.901761877233454e-05
329 1 49.42985967213115 25.490029508196724 2.3062466742298738e-05
330 1 52.12218360655738 24.080803278688528 4.590701386401911e-05
331 1 55.5596655737705 23.90059803278689 8.140581568586608e-05
332 1 58.08829508196722 23.299291147540988 4.115248457446117e-05
333 1 60.51493114754099 24.741640000000004 9.9811328110102e-05
334 1 63.11626885245902 23.260664918032788 1.2022954184948654e-05
335 1 65.93775081967215 23.40224393442623 3.8393257044772555e-05
336 1 68.46335081967213 23.947201967213118 8.916424780358612e-06
337 1 70.93492459016394 24.19920655737705 4.9725928449920037e-05
338 1 73.33328524590165 24.376230819672134 4.201157487662227e-05
339 1 75.55038032786885 23.991432786885248 8.247219256709624e-05
340 1 78.0396262295082 25.252364590163936 8.125303408942463e-05
341 1 80.81011147540984 24.387641967213117 8.023403588219693e-05
342 1 82.09664262295082 26.533442622950822 2.354650781551775e-05
343 1 2.683376786885246 25.909515409836068 7.142943187500091e-05
344 1 4.1782169180327875 26.232965901639346 1.0149304231524881e-05
345 1 7.355191475409836 26.461794754098364 3.2045930976004535e-05
346 1 10.64947868852459 26.209941639344265 4.0991052938882113e-05
347 1 13.483331147540985 25.61560262295082 8.623178737596935e-05
348 1 16.413370491803278 25.512447868852462 6.45507498945466e-05
349 1 19.345278032786887 26.158742950819672 3.561593938047449e-05
350 1 21.842047213114757 26.152633442622953 7.239182146898861e-05
351 1 24.37719016393443 25.753192786885247 8.776528775443286e-05
352 1 27.096173770491806 26.009792131147545 7.970206430385998e-05
353 1 29.762393442622955 26.042460327868852 7.860763915488801e-05
354 1 32.07052524590164 26.44679868852459 8.080141824141675e-05
355 1 34.28221770491804 26.284114098360657 7.767391964583946e-05
356 1 36.1677331147541 25.60116196721312 3.39526980058816e-05
357 1 40.23156590163935 26.009236721311478 5.706904538579798e-05
358 1 42.80664786885246 26.204387540983607 8.239460732444074e-05
359 1 46.65765770491804 26.378281311475412 3.927073239280809e-06
360 1 48.21987409836066 26.441295081967215 8.989450819930545e-05
361 1 51.7172393442623 26.22054491803279 3.0889796382472956e-05
362 1 52.989127868852464 25.396165245901642 4.0836121404913e-06
363 1 56.8648786885246 25.840846557377052 1.6851400751973546e-05
364 1 59.61213770491804 26.00817639344263 5.0199791898160705e-06
365 1 62.20337704918033 26.000552131147543 4.570105326472822e-05
366 1 64.70272131147541 25.45205967213115 8.409628241591843e-05
367 1 66.80570491803279 27.14833180327869 4.71218703272599e-05
368 1 69.56659672131148 26.52238491803279 2.6617010814369924e-05
369 1 72.126531147541 26.751314754098363 5.7748028334956096e-05
370 1 75.65944262295082 26.312995409836066 5.410705318746989e-05
371 1 77.177731147541 26.507287868852462 9.367548937306112e-05
372 1 79.50590819672132 26.777318032786887 7.981130160876792e-05
373 1 0.6399785573770492 30.149160655737706 6.685176521349165e-05
374 1 2.898699081967213 28.486314098360662 2.816208648444317e-05
375 1 5.436250491803279 28.83501049180328 8.582884789656715e-05
376 1 8.560582295081968 27.392005245901643 7.003459191614834e-05
377 1 12.459155409836066 27.882028196721315 7.306715485330673e-05
378 1 15.23792131147541 27.518487213114756 1.2508527532692005e-05
379 1 17.882328524590164 27.73585442622951 9.383201378351734e-05
380 1 20.580459016393444 28.6049193442623 1.6963500245009946e-05
381 1 23.646725245901642 28.304745573770496 4.643098951100442e-05
382 1 25.167790819672135 28.065616393442625 9.277317137707501e-05
383 1 28.741449180327873 28.295960000000004 7.560248471822329e-06
384 1 30.24691278688525 28.62567147540984 9.709705913603275e-05
385 1 33.943771147540986 28.72453442622951 9.581738811305472e-05
386 1 35.44817442622951 28.50141114754099 4.2623108945734624e-05
387 1 39.44838754098361 28.013761311475413 9.553813716342953e-05
388 1 40.97773377049181 28.387148196721313 7.597137219150848e-05
389 1 43.58068721311476 28.84344262295082 3.818953386090932e-05
390 1 46.09962229508197 28.85046098360656 5.847563475713368e-05
391 1 48.97836196721312 28.993403278688525 3.912099786463038e-05
392 1 51.72329836065574 28.705852459016395 2.6191866375029417e-05
393 1 54.53064262295082 27.93378229508197 8.044495026293436e-05
394 1 57.53894426229508 28.0666262295082 2.798216480475714e-05
395 1 60.38213770491804 28.301059672131153 4.4912752843437614e-05
396 1 64.2836393442623 27.969580983606562 4.664459302998074e-05
397 1 65.80344262295083 28.30610885245902 8.572233340741882e-05
398 1 68.30430163934426 28.942810491803282 9.639545314832294e-05
399 1 70.78799344262296 29.026626885245904 2.468829670437821e-05
400 1 73.31662295081969 29.016579016393447 8.819585243366601e-06
401 1 75.80384918032787 28.96174491803279 6.397208970969307e-05
402 1 78.3981180327869 29.1323062295082 7.911442141912701e-05
403 1 80.92169836065574 28.953615737704922 9.246987163945168e-05
404 1 82.53238688524591 31.459826885245906 7.31904802732375e-07
405 1 2.4885844590163937 31.321176393442627 2.2471831878274286e-05
406 1 5.6646249180327874 30.40581049180328 4.2210261563739415e-05
407 1 8.267578360655738 30.191321311475413 8.677629965224442e-05
408 1 10.16521180327869 29.213800000000003 6.9659297232098296e-06
409 1 14.009708196721313 29.76411016393443 7.042978652058346e-05
410 1 16.755300983606556 29.854490491803283 2.8181092362870766e-05
411 1 18.361394754098363 31.5209724590164 7.975216872310605e-05
412 1 20.99454229508197 31.37181967213115 9.134999916603713e-05
413 1 23.59481967213115 31.189544262295087 1.8731781534116378e-05
414 1 25.932337704918034 30.843019016393445 7.487697320273346e-06
415 1 28.426026885245903 32.01493377049181 2.319259043041089e-06
416 1 31.17379081967213 31.12774229508197 3.4803037110219335e-05
417 1 33.81471409836065 31.122642622950824 1.2608857588710077e-05
418 1 36.626299672131154 30.70770098360656 7.618241683678029e-05
419 1 39.227435409836076 31.63594229508197 6.4574224330480214e-06
420 1 42.13308721311476 31.028121967213117 6.80580994716214e-05
421 1 45.20717967213115 31.25669836065574 6.412928379680573e-05
422 1 47.914701639344266 30.967531803278693 6.012792606048669e-05
423 1 50.53169180327869 31.03801836065574 3.7422881865985416e-05
424 1 53.21684590163935 30.422018360655738 8.104029443173501e-05
425 1 55.916642622950825 30.084985573770496 9.10348601762933e-05
426 1 58.635626229508205 30.34648262295082 2.3403595289168788e-05
427 1 61.18293770491804 30.58404655737705 8.554410371769616e-06
428 1 63.96049180327869 30.4536262295082 7.074776979459585e-06
429 1 66.87538360655739 30.978387540983608 2.371689817092464e-05
430 1 69.45652459016394 31.42049377049181 4.859929124810404e-05
431 1 72.90814426229508 31.15389704918033 4.379981964173428e-05
432 1 74.42946229508198 31.36146885245902 2.9003621071397924e-05
433 1 77.07725245901639 31.386967213114758 3.210345712936125e-05
434 1 79.79371147540984 31.44154885245902 2.3172524157982844e-05
435 1 1.5084830163934426 33.623855081967214 6.362835708643537e-05
436 1 3.683432590163935 32.26956393442623 1.736367842815978e-06
437 1 7.356453770491804 32.58841967213115 9.949051976444834e-05
438 1 9.962386229508198 32.28829639344263 3.729054039630664e-05
439 1 13.295905573770492 31.706024918032792 3.383403360385181e-05
440 1 14.6816531147541 31.111029508196726 7.684762048923863e-05
441 1 17.271377704918034 33.95326360655738 9.493684549914182e-05
442 1 19.60243278688525 34.730837377049184 5.575324923495337e-05
443 1 22.391448524590164 33.62506688524591 8.350737859565946e-05
444 1 25.374756721311478 33.534434098360656 3.581253961115834e-05
445 1 28.07935016393443 33.49934229508197 9.216808131910155e-05
446 1 30.50760196721312 33.440115409836075 4.8979835183687115e-05
447 1 33.22173836065574 34.259294426229516 4.771248303969629e-05
448 1 35.74572262295082 32.980791475409845 1.6682195169166327e-05
449 1 38.37311409836066 32.90187278688525 1.0463099284068068e-05
450 1 40.88972655737705 33.23925901639345 1.0060699870306334e-06
451 1 43.02522688524591 32.324044590163936 5.813810947206213e-05
452 1 46.936877377049186 33.29358819672131 9.015488212056555e-05
453 1 49.271618360655744 33.345089836065576 5.11413829952613e-05
454 1 51.846498360655744 32.943780983606565 8.704362336824769e-05
455 1 54.537206557377054 32.51364131147541 2.5290695973004597e-06
456 1 57.05573770491804 32.463502950819674 1.1681078046996919e-05
457 1 59.63586885245902 32.85042163934427 2.2315003756594034e-05
458 1 62.61084590163935 32.65537180327869 1.5354925576470437e-05
459 1 65.45403934426231 32.679607868852464 9.631318141926435e-05
460 1 68.1649442622951 33.58129049180328 3.874848636456076e-05
461 1 70.5476524590164 33.986032786885254 6.8678017297693e-05