# input file

2232 atoms
1 atom types

0.0 82.68810555352132 xlo xhi
0.0 83.16 ylo yhi
-10.0 10.0 zlo zhi
0.0 0.0 0.0 xy xz yz

Masses

1 12.0100 #C

Atoms

1 1 1.0033024262295083 0.4586094754098361 5.1192309643068626e-05
2 1 3.5167591475409843 0.6611194754098362 5.216701681847184e-05
3 1 6.266386229508197 0.7087584918032788 4.001759205195269e-05
4 1 9.43989704918033 0.53276931147541 2.0417693148405824e-05
5 1 12.318990163934428 0.6736363934426229 5.737659993322642e-06
6 1 15.718906229508198 0.39286460327868855 5.335291689662154e-05
7 1 17.2657731147541 0.3659863016393443 9.854370208643209e-05
8 1 20.035198032786887 0.734277049180328 3.1482366920992713e-06
9 1 22.9630662295082 0.9396221639344263 1.1165328974057587e-05
10 1 25.723352131147543 0.6882638688524592 8.665187142510034e-05
11 1 28.20633704918033 1.879688655737705 4.704013085319858e-05
12 1 31.003179016393446 1.173025573770492 5.097661935075755e-05
13 1 33.677679344262295 1.1073963278688526 9.554716438027951e-05
14 1 37.21296393442623 0.3444879016393443 6.674228592275762e-05
15 1 38.746046557377056 0.3079540524590164 3.498005624899442e-05
16 1 41.46104131147541 0.7222852459016394 4.959056307214621e-05
17 1 44.26101377049181 0.6217964590163935 2.2689183886603026e-05
18 1 46.84972852459017 0.2107694491803279 6.651303510388069e-05
19 1 49.03102491803279 1.756221049180328 7.628581469008915e-05
20 1 51.8212524590164 0.875144131147541 8.62087376710417e-05
21 1 54.634655737704925 1.5018281967213116 9.795698746966404e-05
22 1 57.50713442622952 0.9405259672131149 3.0722187679712566e-05
23 1 60.987534426229516 0.45922749508196725 6.1003564359111295e-05
24 1 62.52147540983607 0.43994417049180334 3.1047635544153e-05
25 1 65.19653114754098 0.6534548196721313 6.514698757877354e-05
26 1 67.80190819672131 1.0008081311475412 5.10376074866078e-05
27 1 70.36992131147542 0.9811062295081968 9.837565498187242e-05
28 1 72.61074754098361 2.3177302950819674 1.6124761972107792e-05
29 1 75.56249836065574 1.5769801967213117 6.627460691236067e-05
30 1 79.70737049180329 0.5912691147540984 8.060907868772032e-05
31 1 81.25746885245901 0.44311909508196723 7.28381309223799e-05
32 1 0.15168798032786887 3.001712459016394 4.132711240144448e-05
33 1 2.7648352131147544 2.8501461639344265 1.0087427781767512e-05
34 1 5.506585573770493 2.690122491803279 5.0098447622179544e-05
35 1 9.011979016393445 3.13430393442623 1.1948893238714875e-05
36 1 10.503153442622953 2.7119248524590165 1.2317053144353841e-05
37 1 13.179168524590166 3.1704762622950824 5.2173438822349175e-05
38 1 15.858314098360657 3.0322852459016394 4.072126613530165e-05
39 1 18.628496393442624 2.7903133770491806 7.853045782382352e-06
40 1 21.39433639344262 2.9092872131147542 3.609761270419213e-05
41 1 24.217131147540986 3.1362226229508203 8.203007081438521e-05
42 1 27.549842622950823 3.2739945573770495 5.278948179491955e-05
43 1 30.078674098360658 3.5978540327868855 6.188852662037159e-06
44 1 32.47269245901639 3.4985619016393446 9.547609063003793e-05
45 1 35.11533245901639 3.442011081967214 3.731033101811055e-05
46 1 37.62366426229508 2.7645272131147545 8.59901631369854e-05
47 1 40.18677967213115 3.681847147540984 8.202375304866457e-05
48 1 43.008413114754106 2.892013967213115 2.2280823200805747e-05
49 1 45.66155540983607 2.8161904262295083 2.2035981055905464e-05
50 1 48.25228983606558 3.0804493770491805 2.820578648043004e-06
51 1 50.82151475409837 3.2600790163934428 6.678498073269e-05
52 1 54.69019672131148 3.0125379016393445 5.3493271835596436e-05
53 1 56.19586229508197 3.127331016393443 8.752166244556321e-05
54 1 58.15191475409837 2.398885770491803 1.9467762503922838e-05
55 1 61.822163934426236 3.110163803278689 1.6369401681908413e-05
56 1 64.18013114754099 2.770091409836066 3.7638860713748295e-05
57 1 66.12305573770493 4.470766426229509 9.504180439968074e-05
58 1 68.95463606557378 3.427509836065574 9.52937661324096e-06
59 1 71.73420983606557 3.5891997377049183 8.865219302444136e-05
60 1 74.26889836065575 3.7216649836065576 5.5303995282545564e-05
61 1 76.56627540983607 2.756231409836066 6.991499132857412e-05
62 1 80.24460327868853 3.4266817704918036 6.039026783735902e-06
63 1 2.46793331147541 5.0397131147540986 3.990966786314382e-05
64 1 4.02783718032787 5.00969068852459 3.584591501822141e-05
65 1 6.75752 5.270283934426231 7.737176764742784e-05
66 1 9.07140786885246 5.487499672131148 1.8681188510903593e-05
67 1 11.845175081967213 5.178287868852459 9.149251376960722e-05
68 1 14.684480655737707 5.350868852459017 1.686990796009176e-05
69 1 17.45794491803279 5.124716065573771 6.216525889368691e-05
70 1 20.063321967213117 5.082605901639345 6.68729194632584e-05
71 1 22.754636065573774 5.172178360655739 2.1546558134060802e-05
72 1 25.024091147540986 4.478668393442623 1.4656056268169182e-05
73 1 28.480305573770494 6.847395409836067 2.5369290605874062e-05
74 1 31.29360786885246 6.0872413114754105 4.750868845214186e-05
75 1 34.03056655737706 5.78923868852459 4.905175088996598e-05
76 1 36.8206931147541 5.416255737704919 6.864515977995082e-05
77 1 39.51185573770493 5.0546334426229516 7.885717839972194e-05
78 1 42.04432262295082 5.244028196721311 1.418396942225375e-06
79 1 44.365834754098366 5.208734426229509 9.41320073730155e-05
80 1 46.878155409836076 5.33920524590164 8.031664314155384e-05
81 1 49.22971016393443 5.487146229508197 4.1357624264049786e-05
82 1 51.68391475409837 5.453367213114754 6.906354844739515e-06
83 1 54.49024918032787 5.409742295081968 9.363359158591948e-05
84 1 57.71516065573771 5.396866885245902 7.314680413308843e-05
85 1 61.44852459016394 5.338750819672131 3.675149156698543e-06
86 1 62.98196065573771 5.419537704918033 1.7068116352547893e-05
87 1 65.30609836065575 5.816403278688526 6.645433344594792e-05
88 1 67.70900327868853 5.849576393442624 4.942528585838837e-05
89 1 70.29317377049182 5.749451147540984 7.066251538755583e-05
90 1 73.01468196721312 6.022763278688525 2.026344155027804e-06
91 1 75.7336655737705 5.587978360655738 9.850781240461538e-05
92 1 78.56979016393444 5.705523278688525 9.669116087123258e-05
93 1 81.83963934426231 5.597672786885246 5.8034995121918035e-05
94 1 0.24143160655737705 8.013150163934426 7.668519763224117e-05
95 1 2.5101192131147543 7.940997377049181 1.1039261742459194e-05
96 1 5.147689836065575 7.480057704918033 9.1798250823153e-05
97 1 7.825977049180328 7.863845901639345 9.948034630580821e-05
98 1 10.550312786885247 7.486874098360656 3.0358164267749945e-05
99 1 13.340590819672132 7.364229508196723 6.955517993049522e-05
100 1 16.221097704918034 7.417144918032788 9.494844124201661e-05
101 1 18.966892459016396 7.467030819672132 8.473210354195423e-05
102 1 21.350004590163937 7.411893770491804 7.110337950257218e-06
103 1 24.147906885245906 7.359786229508197 6.634945079041577e-06
104 1 27.591245901639347 8.12120262295082 4.6442834368991074e-05
105 1 30.128812459016395 8.581132459016395 8.757657152335058e-05
106 1 33.16998426229508 8.151851147540984 8.310502752179337e-05
107 1 35.92724065573771 7.717621639344263 9.444737383126774e-05
108 1 38.927817049180334 7.338529180327869 5.328382467256531e-05
109 1 40.444792786885245 7.465364590163935 7.655237587699305e-05
110 1 42.917325901639344 7.748270163934427 7.0814494393298236e-06
111 1 45.55633049180329 7.69580918032787 3.4439040627306485e-05
112 1 48.294803934426234 7.920144262295083 8.885124066130857e-06
113 1 50.594301639344266 7.8718740983606565 1.2671365711441519e-05
114 1 53.35064918032788 7.461375737704919 2.292306680746583e-05
115 1 55.49200655737706 6.57080131147541 9.37295981290601e-05
116 1 58.83759344262295 7.730547540983607 7.363089637833406e-05
117 1 60.99359344262296 9.399958032786888 4.4848513012819e-05
118 1 63.62219672131148 8.193001967213116 5.306647639603424e-05
119 1 66.7627868852459 8.289693770491803 3.9543094684021234e-05
120 1 68.77539016393445 9.382184918032788 4.712486018365592e-05
121 1 71.45448524590165 8.109740983606558 1.678206069640942e-05
122 1 74.71019672131149 7.996588852459017 6.575008856936137e-05
123 1 77.16561311475411 7.731102950819673 7.812552531839238e-05
124 1 79.3453442622951 7.033710163934427 6.715855192592011e-05
125 1 1.197246491803279 10.552988852459018 1.4883320543469126e-05
126 1 4.086882295081968 10.048727213114756 7.001384741943567e-05
127 1 6.692284590163935 9.905179016393443 7.387667456022485e-06
128 1 9.311849836065575 9.872359344262295 1.938110055679766e-05
129 1 11.978372459016395 9.575568524590166 5.111696061737733e-05
130 1 14.691347540983607 9.444592786885247 9.243641697642116e-05
131 1 17.64562295081967 9.664080655737706 5.3291175148024477e-05
132 1 20.50184327868853 9.961628852459016 3.721352252011639e-05
133 1 22.81128786885246 9.529469508196723 2.791128576919836e-05
134 1 24.826516721311478 8.767346229508199 4.952557415422621e-05
135 1 28.56210229508197 10.653669508196721 2.0653074031510787e-05
136 1 30.657865573770493 10.029792786885247 5.5089973449004985e-05
137 1 34.90892196721312 10.031711475409836 5.7133336516357304e-05
138 1 37.077847868852466 10.292400655737707 4.24879931695036e-05
139 1 39.29681114754099 10.182681967213117 7.047006531737829e-05
140 1 41.76525442622951 10.007778360655738 5.4219575108289086e-05
141 1 43.543323278688526 9.151285901639346 9.62654334766251e-05
142 1 46.91344918032787 9.939160000000001 9.911176260718598e-05
143 1 48.769982295081974 9.401927213114755 7.478099758006569e-05
144 1 52.698800000000006 9.581627540983607 2.4170293796216526e-05
145 1 54.646268852459016 10.766670163934426 3.8061469182226416e-05
146 1 57.404636065573776 9.850900327868853 8.1367719098002e-06
147 1 60.14230163934427 10.686438688524591 8.345069752693574e-05
148 1 62.71031475409836 10.859625573770494 1.332560771444612e-05
149 1 64.61739016393443 9.372339016393443 8.171275394046367e-05
150 1 68.38508852459016 10.862604590163935 5.746482185825549e-05
151 1 70.61430163934428 10.50976786885246 5.360602257773817e-05
152 1 72.43049180327868 9.282918032786887 6.589444912460688e-05
153 1 75.94017704918033 10.269527868852458 8.47104718538039e-05
154 1 78.2749180327869 9.886143606557377 6.712191426331094e-05
155 1 80.96663606557378 9.69048786885246 2.050883246885985e-05
156 1 81.55032131147541 11.096331147540985 2.9873920663695888e-05
157 1 1.997344655737705 11.849466885245903 6.924420778501205e-05
158 1 5.332035409836066 12.289502950819674 9.68469407964153e-05
159 1 8.258590819672133 12.201495737704919 7.655525103088895e-05
160 1 10.870380327868853 11.966304918032789 2.3761790011390827e-05
161 1 13.121304918032788 11.70753442622951 4.281169222618284e-05
162 1 16.705364590163935 11.30486229508197 5.4953982161613825e-05
163 1 18.19936655737705 11.10996393442623 7.22563291626034e-05
164 1 21.595243278688525 12.22108655737705 4.1689606171475936e-05
165 1 24.116652459016397 11.746211147540984 2.3074697801690514e-05
166 1 26.215748196721314 10.568843278688526 1.0439146512873588e-05
167 1 29.04384459016394 12.088596065573773 1.5727045635099524e-05
168 1 32.907881311475414 9.670442622950821 6.732642634825031e-05
169 1 35.23641180327869 12.56836918032787 7.546817488076595e-05
170 1 37.98230754098361 12.77129573770492 5.502664947986902e-06
171 1 41.06922491803279 12.447340327868854 4.22135659751559e-05
172 1 43.68772983606558 12.104299016393444 4.093153150460712e-05
173 1 46.059986229508205 12.061380983606558 1.9060709392878574e-05
174 1 48.24926032786885 13.68449049180328 3.297512764033135e-05
175 1 51.786918032786886 11.844518688524593 3.49805809895012e-05
176 1 53.56776393442623 12.98073573770492 9.113412147480438e-06
177 1 56.313508196721315 12.316516065573772 4.8910697011253305e-05
178 1 58.61088524590164 12.374935081967214 8.329404373081405e-05
179 1 60.74315409836066 12.104198032786886 2.6174224695524828e-05
180 1 64.97588196721313 12.181097049180329 7.36416976494636e-06
181 1 66.21495081967213 11.265024262295084 6.298107856419156e-05
182 1 69.71655737704918 13.189872786885248 1.3926654467029221e-05
183 1 72.25730491803279 12.28117180327869 2.503167320872751e-05
184 1 74.30323278688525 13.520998032786887 6.906421637266225e-05
185 1 77.08482622950821 12.593110163934426 1.0084719142731357e-05
186 1 80.25571147540985 11.881781639344263 6.85060566471264e-05
187 1 0.9065399344262296 14.623486557377051 6.410760615078403e-05
188 1 3.829470032786886 14.470041967213117 2.1584048017995706e-05
189 1 6.142832786885247 13.567248524590166 8.558584730872885e-05
190 1 9.73476918032787 14.362342950819674 3.7396819710418066e-05
191 1 12.179632786885247 14.381529836065576 3.482483253971276e-05
192 1 14.493268196721314 14.056968524590165 2.8796108639281727e-05
193 1 16.957924590163937 15.193942950819673 2.692557070884959e-05
194 1 19.453330491803282 13.911905573770493 3.941401344132966e-05
195 1 21.92243016393443 13.757350163934428 3.244262130910202e-05
196 1 25.64064655737705 13.508425573770493 4.101983108369578e-05
197 1 28.08662098360656 14.500236065573771 7.120825487103366e-06
198 1 31.827356721311478 13.913521311475412 4.44208318815255e-05
199 1 33.35236065573771 13.987340327868855 9.234539780662455e-05
200 1 35.47256196721312 14.065956065573772 4.153976394600601e-05
201 1 38.932664262295084 13.951188196721313 5.507322841225524e-05
202 1 42.453508196721316 14.564865573770494 3.089191735045887e-05
203 1 44.973705573770495 14.634392786885247 5.9670123089017274e-05
204 1 47.54984786885247 15.067965901639347 5.121892625161117e-06
205 1 49.757349508196725 14.038236065573772 5.876626281779776e-05
206 1 52.392314754098365 13.941140327868855 2.5319825807523567e-06
207 1 54.826524590163935 14.66241573770492 7.46810738217105e-05
208 1 57.33243278688525 14.870542950819674 6.561378018239286e-05
209 1 59.81360000000001 14.863979016393445 8.230119691744623e-05
210 1 62.35232786885246 15.24756524590164 2.299935186206217e-05
211 1 64.88449180327869 15.099977704918034 3.3698010858888016e-05
212 1 67.83371803278689 14.99308655737705 1.43694306734947e-05
213 1 71.79681967213115 14.862464262295084 6.400550608225306e-05
214 1 73.33934426229509 14.731135081967215 9.049056854127784e-05
215 1 75.63217704918033 15.047870163934428 8.587034254199629e-05
216 1 78.36529836065574 14.938959344262296 8.84191124378293e-06
217 1 80.78234098360657 14.64812655737705 8.39264350035111e-05
218 1 82.37384262295083 16.800137704918036 1.090350814130059e-06
219 1 1.71795331147541 15.962579672131149 5.957931105159699e-05
220 1 5.581969836065574 16.323192131147543 8.72599701411909e-05
221 1 8.17088655737705 16.482746229508198 6.43676621459485e-05
222 1 10.706080000000002 16.785949508196722 6.528705337801705e-05
223 1 14.420711475409838 16.372371147540985 1.4547186896886044e-05
224 1 15.956116721311478 16.339702950819674 6.216499770624875e-05
225 1 18.593808524590166 16.603421639344266 7.416192755131285e-05
226 1 21.008225573770492 16.3071862295082 5.210044927924503e-05
227 1 23.505853114754103 16.151419016393444 1.4720543599537062e-05
228 1 26.118248524590165 16.254977704918034 2.4166672467781115e-05
229 1 28.913020327868853 16.515212459016396 2.018165302878098e-05
230 1 31.870173770491807 16.675422950819677 6.358549863346326e-05
231 1 34.75017573770492 16.647299016393447 6.058563272605168e-05
232 1 37.64916262295082 16.572924590163936 3.760152187105832e-05
233 1 40.523913442622955 16.659720000000004 3.058049638777081e-05
234 1 43.21684327868853 16.944190819672134 7.32188618820701e-05
235 1 45.95178229508197 17.219371147540983 4.5948914031399825e-05
236 1 48.580638032786894 17.74504131147541 3.4610904559165224e-05
237 1 50.82201967213115 16.83911737704918 9.127260495505173e-05
238 1 53.59856393442624 16.593727213114754 7.32616449792646e-05
239 1 55.65610491803279 18.261572459016396 3.399026450792786e-06
240 1 58.53413770491804 17.30182426229508 3.1579899352450446e-05
241 1 60.920885245901644 18.56002950819672 3.4730210743738833e-05
242 1 63.640878688524595 17.62956655737705 7.632974534911917e-05
243 1 66.17051803278689 17.099958032786887 1.2360739823631717e-05
244 1 68.7501442622951 17.259815081967215 6.151544040231899e-05
245 1 71.24241967213116 17.455369836065575 1.7956885179733063e-05
246 1 74.32645901639346 17.429063606557378 6.139486511696631e-05
247 1 77.0924 17.159790819672136 5.058687242872707e-05
248 1 79.73211147540985 17.239517377049182 3.888497360293045e-05
249 1 1.4081558032786885 18.947604590163937 5.552048475340542e-05
250 1 4.902774295081968 18.51130491803279 7.523106244654118e-05
251 1 6.441693770491804 18.676564590163935 1.5256513594195643e-05
252 1 9.009000000000002 18.973506885245904 9.879931584647183e-06
253 1 11.603016393442624 19.143815737704923 1.9283383208210117e-05
254 1 14.187843278688526 18.903272786885246 9.119590185471964e-05
255 1 17.08450754098361 18.72650098360656 4.07067773227096e-05
256 1 19.741234754098365 18.91897573770492 8.368273848028458e-05
257 1 22.26420918032787 18.71928065573771 6.402049423116174e-06
258 1 24.82793049180328 18.636928524590168 7.020943544605996e-06
259 1 28.1737193442623 18.344782950819674 9.947131204658622e-06
260 1 29.618390819672133 17.859001311475414 3.475747025513835e-05
261 1 33.24531803278689 18.833240655737704 3.0292777863322908e-05
262 1 37.0334655737705 18.546901639344266 1.298466196386705e-06
263 1 38.59987278688525 18.64601704918033 1.1063869793915904e-05
264 1 41.33491278688525 19.031118032786885 7.303473395560482e-05
265 1 44.09413836065574 19.2708531147541 1.9277883756640458e-05
266 1 46.85376786885246 19.78440524590164 5.1111394893010936e-05
267 1 51.14314754098361 19.30513704918033 5.35389846045205e-05
268 1 52.639724590163944 18.81799213114754 4.027069190450005e-05
269 1 54.64879344262296 20.37541180327869 6.647154470482115e-05
270 1 57.544498360655744 19.741184262295082 6.173360121787128e-05
271 1 60.25994754098362 19.959460327868854 4.958473860296209e-06
272 1 62.58257049180328 20.192429508196724 3.2586618108411236e-06
273 1 65.76456393442623 19.579408524590168 5.859458358772915e-05
274 1 67.29598032786886 19.50452918032787 5.328155978675518e-05
275 1 69.87308196721311 19.73472131147541 8.763409158138491e-05
276 1 72.15228196721313 18.7102931147541 5.6636141528821504e-05
277 1 76.02853770491804 19.39748655737705 6.176448753506603e-06
278 1 78.66420983606558 20.298512786885247 3.7888147333934685e-05
279 1 81.42863606557377 19.26888393442623 3.5582712380049555e-05
280 1 82.66568524590166 21.4114531147541 1.7099604873978237e-05
281 1 2.6170709508196723 21.432407213114754 2.6959400884457185e-05
282 1 5.043732262295083 21.206102950819673 1.6215921720471106e-05
283 1 7.819009180327869 21.205900983606558 4.0882149284288306e-05
284 1 10.410904918032788 21.380855081967216 9.559885003832676e-05
285 1 13.104844590163935 21.32066885245902 6.252052023464537e-05
286 1 15.997721967213117 20.759300983606558 1.0657034631397933e-05
287 1 18.159175081967213 22.276024262295085 4.65524288473731e-06
288 1 20.923399344262297 21.269520655737704 8.398986060195718e-05
289 1 23.515648524590166 21.119004590163936 3.6449774608763765e-05
290 1 25.930873442622953 21.181614426229512 7.176822639972463e-05
291 1 28.469096393442626 20.97636524590164 4.23462711547252e-05
292 1 31.238571803278692 20.914209836065577 3.1053416052239334e-05
293 1 34.05217704918033 21.197468852459018 4.327176750951397e-05
294 1 36.80519213114754 21.10845180327869 6.573142929490813e-05
295 1 39.68140721311476 21.105472786885247 3.3476582448779924e-05
296 1 42.47693639344263 21.37176655737705 5.2422612157093585e-05
297 1 45.22480131147542 21.666184262295083 2.540217606463806e-05
298 1 47.60831737704918 21.14046360655738 2.4905538522994687e-05
299 1 51.07700327868853 22.08794229508197 9.518352992770437e-05
300 1 53.752563934426234 21.620539672131148 5.726923808348733e-05
301 1 56.23120655737706 21.966509508196722 3.086141270624151e-05
302 1 58.8320393442623 22.127022950819676 8.127573011338653e-05
303 1 61.15314754098361 22.606947540983608 5.108325176496422e-05
304 1 63.47274098360656 22.65961049180328 2.228692589795458e-05
305 1 65.96703606557378 22.437093114754102 6.703721401183404e-05
306 1 68.71934426229508 21.968377704918037 8.435561718287821e-06
307 1 71.61201967213115 21.56010098360656 2.1013003466170232e-05
308 1 74.58548196721311 21.620640655737706 3.725881735832244e-05
309 1 78.5556524590164 21.814731147540986 3.339319058747692e-06
310 1 80.07596065573772 21.677443934426233 7.453581264921936e-05
311 1 1.2889295081967216 23.730945573770494 2.8295338787195867e-05
312 1 4.188118360655738 23.767047213114758 4.0839115391544735e-05
313 1 6.818817049180328 23.392145573770495 6.862512815866466e-05
314 1 9.452469508196723 23.634607213114755 2.1606648141836984e-05
315 1 11.865472786885247 23.619914098360656 3.201607710946638e-05
316 1 14.652569836065576 22.958673442622953 2.6323409631134265e-05
317 1 17.250625573770492 23.528120000000005 8.209730970370465e-05
318 1 19.793493770491803 23.777499016393445 4.046565494289668e-05
319 1 22.41704786885246 23.58138885245902 2.532582321122009e-05
320 1 25.0228793442623 23.625316721311478 6.746357822319688e-05
321 1 27.671376393442625 23.38997442622951 7.598642444566494e-05
322 1 29.877464262295085 24.576380327868854 5.698778593311071e-05
323 1 32.559891803278695 23.23052131147541 2.168876646235881e-05
324 1 35.514874098360664 23.367455081967215 9.544482776616315e-05
325 1 38.290560000000006 23.278589508196724 3.7996461344581224e-05
326 1 41.08497836065575 23.44672721311476 5.02572873944186e-05
327 1 43.87515540983607 23.73493442622951 7.704883314848003e-05
328 1 46.73258754098361 23.86888918032787 7.172998805255727e-05
329 1 49.5351855737705 24.4175331147541 7.845415832344883e-06
330 1 52.86239344262295 24.052174426229513 9.814609363488657e-05
331 1 54.38421639344263 24.075552131147543 6.624960835789384e-06
332 1 56.98605901639345 24.26923868852459 1.1967199657509476e-05
333 1 59.562150819672134 24.86489049180328 9.819528736398629e-05
334 1 62.618419672131154 25.144615081967213 5.33934758436015e-05
335 1 65.07686557377049 26.004793442622955 2.7648319000191537e-05
336 1 67.65750163934428 24.406879344262297 4.556080143574657e-05
337 1 70.29771803278689 23.837584262295085 7.445631627550655e-05
338 1 73.00609836065574 23.589215081967215 1.639928211102757e-05
339 1 75.6720655737705 24.13387016393443 5.691194641957059e-05
340 1 78.12192786885247 24.15613704918033 6.465585081518886e-05
341 1 81.09841967213116 23.85737704918033 9.606798138991989e-05
342 1 82.59600655737705 25.895832131147543 2.7500434200504897e-05
343 1 2.6482900327868855 25.824941639344264 8.795117411793327e-05
344 1 6.565095737704919 25.61413836065574 3.120208989548985e-05
345 1 8.114790163934428 25.839129836065577 8.498373226602947e-05
346 1 10.829078032786885 26.164448524590167 7.181529478473837e-07
347 1 14.481352131147542 24.851560655737707 1.8299950928985554e-05
348 1 15.153852459016395 26.90849573770492 1.8744125138195157e-05
349 1 18.136403278688526 26.000047213114758 8.330669418855015e-05
350 1 21.081640655737708 26.012670163934427 1.9129654980592125e-05
351 1 23.675758032786888 25.993887213114757 6.956035249025833e-05
352 1 26.463763934426233 25.883714098360656 1.3207047052879905e-05
353 1 29.36073114754099 26.075229508196724 7.226655932968346e-05
354 1 32.20690360655738 25.540117377049185 6.766942289927966e-05
355 1 34.34720065573771 26.57444196721312 6.56253280444416e-05
356 1 36.95823278688525 25.550468196721315 7.861788300882378e-05
357 1 39.749924590163936 25.5725331147541 1.1525396408372525e-05
358 1 42.44467213114755 25.798080000000002 4.5720622998106475e-05
359 1 45.23873704918033 25.954806557377054 1.7462469202656552e-05
360 1 47.86925901639344 26.299413114754103 5.8113438235348025e-05
361 1 50.623081967213125 27.068554754098365 8.076977176057034e-05
362 1 53.10828852459017 26.68703868852459 7.597195642360834e-05
363 1 55.667718032786894 26.477346229508196 7.901000191878469e-05
364 1 58.011547540983614 27.816489836065575 9.975896228012729e-05
365 1 60.3296262295082 26.208022950819675 5.216635824208367e-05
366 1 64.5224655737705 27.45360524590164 5.088818290583682e-05
367 1 67.09653770491803 26.891177049180328 7.776977432508198e-05
368 1 69.71100327868852 26.28749704918033 7.991343535081712e-05
369 1 72.04574426229509 25.904415737704923 6.366393490034454e-05
370 1 74.25880000000001 27.29314229508197 3.322302500539911e-05
371 1 76.88134426229509 26.638465573770496 5.399539944365442e-05
372 1 79.7452393442623 26.017769836065575 7.971851710139118e-05
373 1 1.493416262295082 28.072281311475415 5.245396470539935e-05
374 1 4.004838163934426 28.138829508196725 8.770158485536755e-05
375 1 6.510867540983607 29.364619016393448 3.424006147774663e-05
376 1 9.276606557377049 28.417544262295085 5.4248813144186194e-05
377 1 12.921710819672132 28.2128 3.691428754552447e-05
378 1 14.478625573770493 28.287275409836067 5.580287466411346e-05
379 1 16.910866229508198 28.09818360655738 5.409305749838799e-05
380 1 19.726895081967214 28.017851147540984 2.6751482343049184e-05
381 1 22.27965967213115 28.43587278688525 2.4277498233354325e-05
382 1 24.85115672131148 28.17684983606558 8.147556673958228e-05
383 1 27.584227540983612 28.127973770491806 4.468474530478395e-06
384 1 30.49417114754099 27.172062950819672 3.723300254990008e-05
385 1 33.405175081967215 27.779731803278693 2.664316725073721e-05
386 1 35.68013377049181 28.15200786885246 5.1944524227102465e-05
387 1 38.16175540983607 27.716011147540986 6.816618621863045e-05
388 1 40.85160524590164 27.965491147540988 6.797559270016404e-05
389 1 44.119889180327874 28.029767213114756 4.968126380078123e-05
390 1 47.096885901639354 28.302069508196723 7.149212341246268e-05
391 1 48.50136590163935 27.70591278688525 3.784935705056042e-05
392 1 52.06159344262295 29.248841311475413 4.4811603418281415e-05
393 1 54.764419672131154 28.951899016393444 9.615943551861745e-05
394 1 57.415239344262304 29.22278754098361 6.536895294014979e-05
395 1 59.89691147540984 28.989262950819676 9.642740712814102e-05
396 1 62.11400655737705 28.056628852459017 8.153868988841303e-05
397 1 66.05640655737706 29.418140327868855 3.7359683229484455e-05
398 1 68.71782950819673 28.798908852459018 4.02436261563504e-05
399 1 71.32876065573771 28.591488524590165 1.0382461099881779e-05
400 1 73.6044262295082 28.66641836065574 3.9169047837297455e-05
401 1 75.00153442622951 30.679425573770494 9.72627426321399e-05
402 1 78.75257049180328 28.310754098360658 1.9533165194330682e-05
403 1 81.5124524590164 28.040219016393443 7.040755031865206e-05
404 1 0.5230092459016394 30.289679344262296 7.21860362691647e-05
405 1 3.0554963278688527 30.47013704918033 4.7895506267513935e-05
406 1 5.693506229508197 30.66882229508197 7.35764483898147e-06
407 1 7.81320262295082 30.951475409836068 2.886760101000774e-05
408 1 10.226508852459016 30.874727868852464 1.4545262330309362e-05
409 1 12.678491803278689 30.945820327868855 3.9040120439799924e-05
410 1 16.678351475409837 30.361428196721313 1.6168028732151873e-05
411 1 18.226632131147543 30.13451803278689 9.175054444784708e-05
412 1 20.112198032786885 31.724757377049183 4.771658613303676e-06
413 1 24.083580327868855 30.708357377049182 4.900046849868496e-05
414 1 26.471388196721314 31.535766557377052 9.176418453849744e-05
415 1 28.980376393442626 30.408486557377053 8.208489849446265e-05
416 1 31.48416393442623 29.912859016393448 4.292362173071102e-05
417 1 34.66964131147541 30.513913442622954 1.9516517826902025e-05
418 1 37.130308852459024 30.296293770491808 2.4454456947860826e-05
419 1 39.47267409836066 30.045299016393443 7.536726946194259e-05
420 1 41.462455081967214 29.378857704918037 1.7521410690904306e-05
421 1 44.085251803278695 31.53889704918033 3.652247704707601e-05
422 1 47.001254426229515 31.293153442622955 4.594292678953584e-05
423 1 50.71497704918033 31.373384918032787 7.91542233282507e-05
424 1 53.61825573770492 31.333546885245905 8.176211894188178e-05
425 1 56.17667540983607 31.403276065573774 4.67500075501682e-05
426 1 58.817901639344264 31.510116721311476 2.1161549300717497e-05
427 1 61.446504918032794 30.977680655737707 6.939030005729566e-05
428 1 63.558577049180336 30.223585573770496 6.4302536148321715e-06
429 1 67.3363737704918 31.249427540983607 9.233048537603754e-05
430 1 69.94629508196722 30.983537704918035 2.054658801457975e-05
431 1 72.43604590163936 31.231149508196726 3.324248372899823e-05
432 1 76.46983606557377 30.310078032786887 4.44008079070921e-05
433 1 78.28501639344262 30.78899278688525 9.429678950601839e-05
434 1 80.62076721311476 30.27377442622951 5.547354164238314e-05
435 1 1.80665731147541 32.75140721311476 1.3435782627339733e-05
436 1 4.398149114754099 32.8768793442623 6.706729257991014e-05
437 1 6.4682524590163935 34.72619213114754 3.424125045910981e-05
438 1 9.094230163934427 33.3755868852459 7.385392184443735e-05
439 1 11.47921049180328 34.424301639344264 1.3216485859064431e-06
440 1 14.070904262295082 33.1718524590164 7.293869261998976e-05
441 1 16.444069508196723 32.811290491803284 7.023264491492976e-06
442 1 19.172848524590165 32.9199993442623 5.0294672439983256e-05
443 1 22.571653770491807 33.36250950819673 1.9435341612619583e-05
444 1 26.34026098360656 33.052893770491806 8.248294826307402e-06
445 1 28.764422950819675 32.861681311475415 8.048166161259775e-05
446 1 31.435489836065578 32.056539016393444 7.200870178475418e-05
447 1 32.571858360655746 31.054377704918036 7.892119849553868e-05
448 1 36.279925901639345 32.80003081967214 9.349890962879016e-05
449 1 38.836982295081974 32.575695737704926 8.195461302641984e-05
450 1 41.17136983606558 33.57311081967213 9.739010377298867e-05
451 1 43.737918688524594 33.0031593442623 3.4704321376038715e-05
452 1 46.5459193442623 33.98487147540984 9.39093456120681e-05
453 1 48.78331213114755 33.69176655737705 6.951358882563068e-05
454 1 52.431193442622956 33.35533967213115 2.2478350626465285e-05
455 1 54.96891147540985 33.77144262295083 1.368929866812244e-05
456 1 57.575298360655744 33.79588065573771 7.676982764039053e-05
457 1 60.304885245901644 33.5428662295082 8.610541724583738e-05
458 1 63.13040655737706 33.193160000000006 4.2471164549796315e-05
459 1 65.8004131147541 33.30969508196722 6.638137398916142e-05
460 1 68.59160000000001 33.37528393442623 3.367784672549078e-05
461 1 71.08488524590165 33.48964786885246 6.281346971400867e-05