ITEM: TIMESTEP
0
ITEM: NUMBER OF ATOMS
2232
ITEM: BOX BOUNDS xy xz yz pp pp pp
0.0 82.68810555352132 0
0.0 83.16 0
-10.0 10.0 0
ITEM: ATOMS id type x y z vx vy vz
1 1 0.7650871475409836 1.7422247213114757 6.21165957069e-05 0.0 0.0 0.0
2 1 3.7650222950819674 1.0936120655737704 9.01279815504e-05 0.0 0.0 0.0
3 1 6.67400655737705 1.2257541639344265 8.45524306719e-05 0.0 0.0 0.0
4 1 9.312859672131149 1.3882468852459018 6.56663340329e-05 0.0 0.0 0.0
5 1 12.127323278688525 1.318396524590164 3.91145184475e-05 0.0 0.0 0.0
6 1 14.95461180327869 1.238856786885246 8.45547605409e-05 0.0 0.0 0.0
7 1 17.627092459016396 0.7311768524590164 4.29924041682e-05 0.0 0.0 0.0
8 1 20.32618229508197 0.5053825573770493 6.64324452738e-05 0.0 0.0 0.0
9 1 22.954280655737705 0.5939401311475411 5.26379281129e-05 0.0 0.0 0.0
10 1 25.50558098360656 0.8948409836065575 4.21654722156e-05 0.0 0.0 0.0
11 1 28.015780983606557 1.216958491803279 4.81245430321e-05 0.0 0.0 0.0
12 1 30.512651147540986 1.5277708852459018 9.44150311235e-05 0.0 0.0 0.0
13 1 33.59265114754099 1.8434910819672132 9.99162938345e-05 0.0 0.0 0.0
14 1 36.42559475409836 1.7706667540983607 8.86174569571e-05 0.0 0.0 0.0
15 1 37.99745508196722 3.380501967213115 6.54773291019e-05 0.0 0.0 0.0
16 1 41.38616196721312 1.668754098360656 2.15201854886e-05 0.0 0.0 0.0
17 1 44.181893114754104 1.3496004590163935 1.62131524071e-05 0.0 0.0 0.0
18 1 46.74980524590164 0.6017310163934427 2.06635941599e-06 0.0 0.0 0.0
19 1 49.415822950819674 83.10243934426231 7.16739822441e-05 0.0 0.0 0.0
20 1 52.14894426229508 82.71264262295082 3.76391295915e-05 0.0 0.0 0.0
21 1 54.935081967213115 82.77222295081967 6.40847428639e-05 0.0 0.0 0.0
22 1 57.545003278688526 82.6096393442623 9.09754028303e-06 0.0 0.0 0.0
23 1 60.134727868852465 81.91537704918035 9.28337833208e-05 0.0 0.0 0.0
24 1 62.886026229508204 82.80302295081968 8.24869156904e-05 0.0 0.0 0.0
25 1 65.69892459016394 82.69396065573771 3.02042452483e-05 0.0 0.0 0.0
26 1 68.22351475409836 0.18408655081967215 5.52070188491e-05 0.0 0.0 0.0
27 1 70.75315409836065 0.7665817049180328 9.08001451772e-05 0.0 0.0 0.0
28 1 73.14747540983608 1.8909584262295085 7.64586370042e-05 0.0 0.0 0.0
29 1 75.77254426229509 1.1696880655737707 4.78833846394e-05 0.0 0.0 0.0
30 1 78.05325901639345 2.594284 7.85379186527e-06 0.0 0.0 0.0
31 1 80.80304262295083 1.6029077377049181 9.35919974575e-05 0.0 0.0 0.0
32 1 82.41524590163935 3.9595773114754103 6.71338141647e-05 0.0 0.0 0.0
33 1 1.56480662295082 3.086361967213115 4.97029383675e-05 0.0 0.0 0.0
34 1 4.495997180327869 4.3632996721311486 9.70634203965e-05 0.0 0.0 0.0
35 1 7.863290491803279 3.6487598688524594 9.41131010961e-05 0.0 0.0 0.0
36 1 11.24467606557377 3.428095540983607 3.63720146952e-05 0.0 0.0 0.0
37 1 13.873733770491805 3.3749933114754103 4.51971609377e-05 0.0 0.0 0.0
38 1 16.35333573770492 3.228965967213115 4.74230490671e-05 0.0 0.0 0.0
39 1 18.729883934426233 2.8858741639344268 3.65836011768e-05 0.0 0.0 0.0
40 1 21.33783606557377 2.9470146885245905 8.68839401254e-05 0.0 0.0 0.0
41 1 24.172092459016397 3.0589853114754098 4.35357839441e-05 0.0 0.0 0.0
42 1 26.75565704918033 3.398411409836066 8.1104265677e-06 0.0 0.0 0.0
43 1 29.251214426229513 3.7256841311475415 8.92751959426e-05 0.0 0.0 0.0
44 1 31.37888852459017 2.856230426229508 7.19311365436e-05 0.0 0.0 0.0
45 1 35.22060786885246 3.9060004590163935 8.86393194582e-05 0.0 0.0 0.0
46 1 37.57493967213115 5.49244786885246 8.67886542983e-05 0.0 0.0 0.0
47 1 39.42248524590164 3.910670950819673 6.07661428267e-05 0.0 0.0 0.0
48 1 41.667552786885246 4.978390819672131 2.46724239757e-06 0.0 0.0 0.0
49 1 46.721277377049184 2.8208811147540986 6.36219634388e-05 0.0 0.0 0.0
50 1 48.23699081967214 2.4717605901639343 3.56134060925e-05 0.0 0.0 0.0
51 1 51.88032786885246 1.6769438688524592 2.45058740395e-05 0.0 0.0 0.0
52 1 53.443554098360664 1.7493137704918034 7.38208295861e-05 0.0 0.0 0.0
53 1 56.27513442622951 1.8951038032786887 2.2848327849e-05 0.0 0.0 0.0
54 1 58.97594098360656 1.4392436065573773 4.25196485439e-05 0.0 0.0 0.0
55 1 61.766118032786885 0.7011392786885247 2.95086828739e-05 0.0 0.0 0.0
56 1 64.17255737704919 1.69208131147541 6.99498185731e-05 0.0 0.0 0.0
57 1 66.75319344262296 2.177837704918033 1.93022620156e-05 0.0 0.0 0.0
58 1 69.32423606557377 2.8679647213114756 4.09298045028e-05 0.0 0.0 0.0
59 1 72.44008524590164 3.2366811147540986 7.19983513891e-05 0.0 0.0 0.0
60 1 73.96594754098362 3.652561901639345 7.36384862637e-05 0.0 0.0 0.0
61 1 77.42867540983607 4.011790885245902 6.50096558535e-05 0.0 0.0 0.0
62 1 80.0643475409836 4.030896983606558 2.74434866333e-05 0.0 0.0 0.0
63 1 1.397249573770492 6.210188852459017 6.93077003853e-06 0.0 0.0 0.0
64 1 3.7451133770491807 5.653617704918034 8.73341809608e-05 0.0 0.0 0.0
65 1 7.189275409836067 6.478906229508198 1.3424120087e-05 0.0 0.0 0.0
66 1 9.008949508196723 4.645685180327869 6.68068969639e-05 0.0 0.0 0.0
67 1 12.643097049180328 5.687194754098361 5.43769919403e-05 0.0 0.0 0.0
68 1 15.145167868852461 5.731274098360656 1.42500132064e-05 0.0 0.0 0.0
69 1 17.510254426229512 5.544302950819673 2.08384845354e-05 0.0 0.0 0.0
70 1 19.940980327868854 5.234939672131149 1.73250274479e-05 0.0 0.0 0.0
71 1 21.81680131147541 4.427091016393443 2.10161962201e-06 0.0 0.0 0.0
72 1 24.88185573770492 6.699201967213115 1.85554834614e-05 0.0 0.0 0.0
73 1 27.771400655737708 5.912489180327869 6.52001965781e-05 0.0 0.0 0.0
74 1 30.543703606557383 5.786512131147542 6.70173550025e-06 0.0 0.0 0.0
75 1 33.92751278688525 6.064873442622951 3.51648628514e-05 0.0 0.0 0.0
76 1 36.48966885245902 6.575749508196722 1.22821046338e-05 0.0 0.0 0.0
77 1 40.54350426229509 6.034174426229509 4.21316108562e-05 0.0 0.0 0.0
78 1 43.10051016393443 5.461445901639345 6.83270950103e-05 0.0 0.0 0.0
79 1 44.70211016393443 6.254268196721312 4.93835764471e-05 0.0 0.0 0.0
80 1 46.838771803278696 5.214238032786886 7.71425512861e-05 0.0 0.0 0.0
81 1 49.46353770491804 4.653248852459017 2.68698350001e-05 0.0 0.0 0.0
82 1 52.16560655737705 4.2518491147540995 3.77670468617e-05 0.0 0.0 0.0
83 1 54.813901639344266 4.059975213114755 9.63557649404e-05 0.0 0.0 0.0
84 1 57.72020983606558 4.025080327868853 4.92787944114e-05 0.0 0.0 0.0
85 1 61.87417049180329 4.302295475409837 2.27298386654e-06 0.0 0.0 0.0
86 1 61.46367213114755 2.8268946885245905 2.45685420704e-05 0.0 0.0 0.0
87 1 65.00920655737706 4.181296918032787 7.33641783986e-05 0.0 0.0 0.0
88 1 66.89911475409836 5.877599344262296 1.28148277561e-05 0.0 0.0 0.0
89 1 70.24520655737706 6.0558354098360665 5.42338764032e-05 0.0 0.0 0.0
90 1 72.51430819672133 5.712087213114755 1.88580196024e-05 0.0 0.0 0.0
91 1 74.80259672131147 4.981652590163935 8.84350514403e-05 0.0 0.0 0.0
92 1 78.7561049180328 6.2960754098360665 8.59891621196e-06 0.0 0.0 0.0
93 1 81.39026229508197 6.512887213114754 1.52723199962e-05 0.0 0.0 0.0
94 1 82.39353442622951 7.688992786885247 2.04342897572e-05 0.0 0.0 0.0
95 1 3.896326229508197 7.851525901639345 6.51231263528e-05 0.0 0.0 0.0
96 1 4.858230426229508 6.6805200000000005 5.12303884173e-06 0.0 0.0 0.0
97 1 8.652931803278689 7.618304262295083 9.61353852982e-05 0.0 0.0 0.0
98 1 10.831097704918033 7.6056308196721325 4.90034973798e-05 0.0 0.0 0.0
99 1 13.607187540983608 8.090604590163935 1.80250079241e-06 0.0 0.0 0.0
100 1 16.387872131147542 8.163363278688525 9.89438542037e-05 0.0 0.0 0.0
101 1 19.070148196721313 7.805426885245902 8.52217039309e-05 0.0 0.0 0.0
102 1 21.381057049180328 7.459507540983608 3.16136438537e-05 0.0 0.0 0.0
103 1 23.998703606557378 7.950186885245903 5.05844983711e-06 0.0 0.0 0.0
104 1 26.634325245901643 8.093533114754099 3.0978295881e-05 0.0 0.0 0.0
105 1 29.236672786885247 8.022289180327869 7.07601491051e-05 0.0 0.0 0.0
106 1 31.304160655737707 7.125352786885247 7.58928059775e-05 0.0 0.0 0.0
107 1 34.73371540983607 8.669695081967214 6.14336823322e-05 0.0 0.0 0.0
108 1 37.263405245901644 8.98976262295082 9.91911720338e-05 0.0 0.0 0.0
109 1 39.19092983606557 7.563874098360656 5.64825885878e-05 0.0 0.0 0.0
110 1 43.085413114754104 8.464900327868854 8.25837958978e-05 0.0 0.0 0.0
111 1 45.823987540983616 8.035265573770493 4.03390468803e-05 0.0 0.0 0.0
112 1 48.143429508196725 7.150598688524591 4.93950465112e-05 0.0 0.0 0.0
113 1 50.814950819672134 6.615991475409836 9.04111654998e-07 0.0 0.0 0.0
114 1 53.61623606557378 6.556764590163935 9.80064516145e-05 0.0 0.0 0.0
115 1 56.02267540983607 6.134703606557378 2.76813897336e-06 0.0 0.0 0.0
116 1 58.497278688524595 6.549190819672132 4.20063587617e-05 0.0 0.0 0.0
117 1 60.841108196721315 6.558834754098362 2.99647292665e-05 0.0 0.0 0.0
118 1 63.20513442622951 6.044676721311476 5.91916136378e-05 0.0 0.0 0.0
119 1 65.65701639344263 6.732880000000001 6.18988742138e-05 0.0 0.0 0.0
120 1 67.61256393442623 7.247795409836066 3.01298274728e-05 0.0 0.0 0.0
121 1 71.14295081967214 8.305447213114755 8.66287041028e-05 0.0 0.0 0.0
122 1 73.9967475409836 7.843750163934428 1.0485844652e-05 0.0 0.0 0.0
123 1 77.4004 7.953670819672132 8.28106941862e-05 0.0 0.0 0.0
124 1 80.29711475409837 8.681560655737705 4.60057205358e-05 0.0 0.0 0.0
125 1 2.001752590163935 10.709008524590164 1.20358026732e-05 0.0 0.0 0.0
126 1 4.678661377049181 10.536831475409837 6.98742603667e-05 0.0 0.0 0.0
127 1 7.196344262295082 9.562440655737706 2.59841902574e-05 0.0 0.0 0.0
128 1 9.702706885245902 10.952480000000001 6.6559351214e-06 0.0 0.0 0.0
129 1 12.252189508196722 9.889930491803279 8.86613784542e-05 0.0 0.0 0.0
130 1 14.810003278688525 10.699718032786885 1.74615181654e-05 0.0 0.0 0.0
131 1 18.13322229508197 11.461891803278691 1.18009043998e-05 0.0 0.0 0.0
132 1 20.493007213114755 10.185711475409835 5.77694990277e-05 0.0 0.0 0.0
133 1 23.03668327868853 11.03336786885246 7.36475600605e-08 0.0 0.0 0.0
134 1 25.799039344262297 10.192022950819673 3.65017516978e-05 0.0 0.0 0.0
135 1 28.06703016393443 11.547121967213116 5.54584063454e-05 0.0 0.0 0.0
136 1 31.020750163934427 10.038275409836066 3.607652731e-05 0.0 0.0 0.0
137 1 33.01568131147541 11.447400655737706 1.23708139215e-05 0.0 0.0 0.0
138 1 35.02262950819672 10.20328262295082 6.44274752539e-05 0.0 0.0 0.0
139 1 38.88399016393443 10.478513442622951 4.15103194802e-07 0.0 0.0 0.0
140 1 41.98878163934427 11.737274098360656 9.20868380927e-05 0.0 0.0 0.0
141 1 45.664281967213114 9.98460262295082 8.07847647063e-05 0.0 0.0 0.0
142 1 47.20296918032788 9.927395409836066 8.94254132648e-05 0.0 0.0 0.0
143 1 50.43409114754099 8.7711331147541 8.03071460416e-05 0.0 0.0 0.0
144 1 51.64200655737706 7.87404524590164 5.11478387873e-05 0.0 0.0 0.0
145 1 54.86035409836066 8.7896131147541 8.69403397115e-05 0.0 0.0 0.0
146 1 56.948190163934434 8.7095331147541 4.5118229271e-05 0.0 0.0 0.0
147 1 58.85072131147542 8.04889836065574 2.20589722777e-05 0.0 0.0 0.0
148 1 62.37302950819673 8.722307540983607 6.00377034218e-05 0.0 0.0 0.0
149 1 64.34877377049182 8.671260327868854 1.68287569371e-05 0.0 0.0 0.0
150 1 66.88295737704918 10.257914754098362 8.58972793689e-05 0.0 0.0 0.0
151 1 69.62516721311476 10.01969442622951 4.21871775794e-05 0.0 0.0 0.0
152 1 71.84175737704918 9.637067540983608 3.86191507966e-05 0.0 0.0 0.0
153 1 74.94397377049181 9.043031475409837 6.09389906865e-05 0.0 0.0 0.0
154 1 78.22745573770493 9.239495081967213 2.42703769476e-05 0.0 0.0 0.0
155 1 81.93405901639345 10.596664262295082 2.96233103214e-05 0.0 0.0 0.0
156 1 0.5316433442622951 12.802095737704919 7.90014140989e-05 0.0 0.0 0.0
157 1 2.620428655737705 12.146207213114756 1.18152376046e-05 0.0 0.0 0.0
158 1 6.569539016393444 12.278293770491803 8.74723054592e-05 0.0 0.0 0.0
159 1 9.217733114754099 12.387659016393444 6.12272774597e-05 0.0 0.0 0.0
160 1 11.826240655737706 12.41245049180328 8.89357514039e-05 0.0 0.0 0.0
161 1 14.451107540983609 12.21608786885246 4.31807351583e-05 0.0 0.0 0.0
162 1 17.17761442622951 12.665414426229509 9.49668142895e-05 0.0 0.0 0.0
163 1 19.614803278688523 13.12852524590164 5.18379910857e-05 0.0 0.0 0.0
164 1 23.118177049180332 12.552565245901642 5.29647287968e-06 0.0 0.0 0.0
165 1 24.632880655737708 12.57760918032787 3.54415107197e-05 0.0 0.0 0.0
166 1 27.2466393442623 12.812800000000001 6.14108109281e-05 0.0 0.0 0.0
167 1 29.36264983606558 12.341055081967214 1.80139846149e-05 0.0 0.0 0.0
168 1 32.150150819672135 14.012182295081969 9.73305115744e-05 0.0 0.0 0.0
169 1 34.953253770491806 13.17704786885246 1.31321367858e-05 0.0 0.0 0.0
170 1 38.80441508196722 12.34120655737705 2.67565323284e-05 0.0 0.0 0.0
171 1 40.04267606557377 11.423972459016394 8.52385433693e-05 0.0 0.0 0.0
172 1 43.33782163934427 13.106056393442625 1.31450037579e-05 0.0 0.0 0.0
173 1 45.77576786885247 12.644813770491805 7.02414432931e-05 0.0 0.0 0.0
174 1 49.35644459016394 11.907582950819673 4.54990932791e-05 0.0 0.0 0.0
175 1 50.82807868852459 11.531721967213116 9.35758559303e-05 0.0 0.0 0.0
176 1 53.40619016393443 11.12960524590164 6.0185326909e-06 0.0 0.0 0.0
177 1 55.90250491803279 11.390546885245904 4.19425235315e-06 0.0 0.0 0.0
178 1 58.179685245901645 11.010444590163935 3.52122630666e-06 0.0 0.0 0.0
179 1 60.821416393442625 10.882649836065575 4.44731911486e-05 0.0 0.0 0.0
180 1 63.43941639344263 11.381559344262296 2.02041614957e-05 0.0 0.0 0.0
181 1 66.0973049180328 11.595190163934427 8.53993981067e-05 0.0 0.0 0.0
182 1 68.40881967213116 12.26688262295082 4.91166953465e-05 0.0 0.0 0.0
183 1 71.33633442622951 12.28117180327869 2.67017928205e-05 0.0 0.0 0.0
184 1 74.46581639344262 11.947420983606557 3.56718960437e-05 0.0 0.0 0.0
185 1 77.21913442622952 11.92237704918033 5.56088779683e-05 0.0 0.0 0.0
186 1 79.59729836065574 11.532226885245903 3.01546859881e-05 0.0 0.0 0.0
187 1 1.6028774426229508 15.07665049180328 2.47887146808e-05 0.0 0.0 0.0
188 1 5.18944655737705 14.607834098360657 5.87630193249e-05 0.0 0.0 0.0
189 1 8.640308852459018 14.465901639344263 6.47148151099e-05 0.0 0.0 0.0
190 1 10.167736393442624 14.656457704918035 3.05880214312e-05 0.0 0.0 0.0
191 1 12.707878032786885 14.603542295081969 5.30214059449e-06 0.0 0.0 0.0
192 1 15.381520000000002 14.604956065573772 2.22472096741e-05 0.0 0.0 0.0
193 1 17.959025573770493 15.283313442622951 2.90187607038e-05 0.0 0.0 0.0
194 1 20.120428196721313 14.601876065573771 3.68130948431e-05 0.0 0.0 0.0
195 1 23.8185993442623 15.137594098360657 7.2365314066e-05 0.0 0.0 0.0
196 1 26.288405901639347 14.91189573770492 8.99594651098e-06 0.0 0.0 0.0
197 1 28.281670819672133 16.434375081967215 5.43910725874e-05 0.0 0.0 0.0
198 1 31.08901508196722 15.175311475409837 4.21515401919e-06 0.0 0.0 0.0
199 1 33.74937770491804 15.693862295081969 1.58232733722e-06 0.0 0.0 0.0
200 1 36.597014426229514 15.143804590163935 7.45319555788e-05 0.0 0.0 0.0
201 1 39.16740065573771 14.736083278688525 4.0634486891e-05 0.0 0.0 0.0
202 1 41.59625836065574 14.817930491803281 2.96127326442e-05 0.0 0.0 0.0
203 1 44.262528524590174 15.166475409836067 6.07053837823e-05 0.0 0.0 0.0
204 1 47.06204655737706 14.780465573770494 9.15230622383e-05 0.0 0.0 0.0
205 1 49.605116721311475 14.439443934426231 8.37834563689e-05 0.0 0.0 0.0
206 1 52.19590163934427 13.702061639344263 2.75100684918e-05 0.0 0.0 0.0
207 1 54.7896655737705 13.697062950819674 5.39811795431e-05 0.0 0.0 0.0
208 1 57.28900983606558 13.761641967213116 4.25261229382e-05 0.0 0.0 0.0
209 1 59.68535081967214 13.21633049180328 5.06599163838e-05 0.0 0.0 0.0
210 1 61.793383606557384 14.582184262295083 9.40442493298e-05 0.0 0.0 0.0
211 1 64.57447213114754 13.788503606557377 3.75830846138e-05 0.0 0.0 0.0
212 1 67.0672524590164 14.362443934426231 3.78726291321e-07 0.0 0.0 0.0
213 1 69.91499016393443 14.161940983606558 1.42738578543e-07 0.0 0.0 0.0
214 1 72.28860983606559 13.474192131147543 8.51294228442e-05 0.0 0.0 0.0
215 1 75.94421639344263 14.12720262295082 5.26689228686e-05 0.0 0.0 0.0
216 1 78.67582295081968 14.19693180327869 1.17496569859e-05 0.0 0.0 0.0
217 1 81.48064262295082 14.738153442622952 3.48328898559e-05 0.0 0.0 0.0
218 1 82.25417704918034 17.04264983606558 6.96198352601e-05 0.0 0.0 0.0
219 1 2.8013761311475416 16.09734229508197 4.50811114322e-05 0.0 0.0 0.0
220 1 5.671188852459017 16.739244590163935 3.16367961491e-05 0.0 0.0 0.0
221 1 8.37032918032787 17.30616655737705 9.22256776825e-05 0.0 0.0 0.0
222 1 11.23048786885246 17.067744262295083 9.01703111031e-05 0.0 0.0 0.0
223 1 14.084789508196723 16.88506491803279 9.15925927535e-05 0.0 0.0 0.0
224 1 16.768630819672133 18.019767213114754 8.70438810365e-05 0.0 0.0 0.0
225 1 19.67564590163935 17.481171147540987 2.67410779975e-05 0.0 0.0 0.0
226 1 23.421127868852462 17.404878032786886 7.99496578095e-05 0.0 0.0 0.0
227 1 24.952948196721316 17.421085901639348 5.5479037638e-05 0.0 0.0 0.0
228 1 27.421845901639347 17.753624918032788 6.10092319303e-05 0.0 0.0 0.0
229 1 29.752345573770494 17.625577704918037 5.6769698532e-05 0.0 0.0 0.0
230 1 32.08269377049181 17.61583278688525 1.8485410406e-05 0.0 0.0 0.0
231 1 34.362752131147545 17.10758229508197 7.46859224399e-05 0.0 0.0 0.0
232 1 37.80720196721312 17.169687213114756 8.51727058646e-05 0.0 0.0 0.0
233 1 40.420051803278696 17.315002622950825 9.11752191001e-05 0.0 0.0 0.0
234 1 43.059864262295086 17.24486950819672 6.85270717417e-05 0.0 0.0 0.0
235 1 45.84554754098361 17.008466885245905 4.89332755004e-05 0.0 0.0 0.0
236 1 48.56458163934427 16.919348852459017 5.70066537407e-05 0.0 0.0 0.0
237 1 50.94976393442623 16.310872131147544 7.93044560599e-05 0.0 0.0 0.0
238 1 53.44102950819672 16.059321967213116 4.17255474613e-05 0.0 0.0 0.0
239 1 55.90048524590165 16.218421639344264 3.26892680622e-05 0.0 0.0 0.0
240 1 59.35765901639345 15.805651147540985 7.82748313998e-05 0.0 0.0 0.0
241 1 60.90472786885247 15.828069508196723 5.6089270841e-05 0.0 0.0 0.0
242 1 63.46870163934427 16.17419081967213 8.32726030389e-05 0.0 0.0 0.0
243 1 65.67115409836066 17.690661639344267 1.55080666231e-05 0.0 0.0 0.0
244 1 69.54892459016394 15.961317377049182 1.68151862047e-05 0.0 0.0 0.0
245 1 71.0677180327869 16.178129180327872 6.26266423528e-05 0.0 0.0 0.0
246 1 74.38957377049182 16.273306229508197 9.48992563155e-05 0.0 0.0 0.0
247 1 77.04948196721313 16.383479344262298 7.26250614553e-05 0.0 0.0 0.0
248 1 79.63314754098361 16.55494950819672 7.35580720806e-05 0.0 0.0 0.0
249 1 0.6874004590163935 19.361132459016396 8.14776253206e-05 0.0 0.0 0.0
250 1 3.3376445245901643 18.866060327868855 6.52468148545e-05 0.0 0.0 0.0
251 1 6.376104918032787 19.197438032786884 6.09414047874e-05 0.0 0.0 0.0
252 1 9.98652131147541 19.43060918032787 1.60060054672e-05 0.0 0.0 0.0
253 1 12.770992786885246 19.152096393442626 4.77255561653e-06 0.0 0.0 0.0
254 1 16.589132459016394 19.532400655737707 1.54963860449e-05 0.0 0.0 0.0
255 1 18.103634098360658 19.683674098360658 9.83660869209e-05 0.0 0.0 0.0
256 1 21.262047868852463 20.014950819672134 8.87866511702e-05 0.0 0.0 0.0
257 1 22.797958032786887 19.99202754098361 2.60723155576e-05 0.0 0.0 0.0
258 1 25.51643672131148 19.98662491803279 3.50520392393e-05 0.0 0.0 0.0
259 1 29.109332459016397 20.131586885245905 8.70698356793e-05 0.0 0.0 0.0
260 1 30.644434754098363 20.07054229508197 9.42136131586e-05 0.0 0.0 0.0
261 1 33.45536393442623 19.81485180327869 4.77507170944e-06 0.0 0.0 0.0
262 1 36.68360786885247 19.070350163934428 1.21320154257e-05 0.0 0.0 0.0
263 1 38.15145508196722 18.639251147540985 2.84532876087e-05 0.0 0.0 0.0
264 1 41.62609901639345 19.595161967213116 1.71456087865e-05 0.0 0.0 0.0
265 1 45.509524590163934 18.906453770491805 3.97156865344e-05 0.0 0.0 0.0
266 1 47.038820327868855 19.12887016393443 8.20071099578e-05 0.0 0.0 0.0
267 1 49.83717704918033 19.019000000000002 2.41376014611e-05 0.0 0.0 0.0
268 1 52.294360655737705 18.583457704918036 6.7662494843e-05 0.0 0.0 0.0
269 1 54.190832786885245 19.93078098360656 1.18501660867e-05 0.0 0.0 0.0
270 1 56.75278688524591 18.699689836065577 4.58009136376e-05 0.0 0.0 0.0
271 1 59.290504918032795 18.593404590163935 3.48367971501e-05 0.0 0.0 0.0
272 1 61.9196131147541 18.349327213114755 3.1729345397e-05 0.0 0.0 0.0
273 1 64.80521967213116 18.972648524590166 5.53956337142e-05 0.0 0.0 0.0
274 1 68.15989508196722 18.80390491803279 5.26964616865e-05 0.0 0.0 0.0
275 1 69.61405901639345 18.380884590163937 7.27956393224e-05 0.0 0.0 0.0
276 1 71.87053770491805 17.49217836065574 4.9503614334e-05 0.0 0.0 0.0
277 1 75.5756262295082 18.624305573770496 5.45739639392e-05 0.0 0.0 0.0
278 1 78.15828196721313 18.824606557377052 9.9059903469e-05 0.0 0.0 0.0
279 1 80.48342950819674 20.094576393442626 3.64591581652e-05 0.0 0.0 0.0
280 1 82.37687213114755 21.603473442622953 6.67276474417e-05 0.0 0.0 0.0
281 1 2.2829161967213114 21.37681573770492 7.76896819658e-06 0.0 0.0 0.0
282 1 4.907535672131147 20.940061639344265 3.40696251561e-05 0.0 0.0 0.0
283 1 7.500405901639344 20.287202622950822 8.00729553838e-05 0.0 0.0 0.0
284 1 11.971354098360656 21.371968524590166 8.93316072322e-05 0.0 0.0 0.0
285 1 13.464901639344264 21.671435409836064 2.15306358856e-05 0.0 0.0 0.0
286 1 15.604996721311476 22.011194754098366 8.35776854121e-05 0.0 0.0 0.0
287 1 18.22405704918033 22.23063213114754 7.58564148671e-06 0.0 0.0 0.0
288 1 20.764804590163937 22.841027540983607 5.72257923604e-06 0.0 0.0 0.0
289 1 24.078985573770492 22.348328524590166 5.95606224441e-05 0.0 0.0 0.0
290 1 26.352076065573776 23.548922622950823 1.84288433723e-05 0.0 0.0 0.0
291 1 28.940689836065577 22.68117049180328 9.43050752765e-05 0.0 0.0 0.0
292 1 32.682132459016394 21.93808262295082 5.72820892799e-05 0.0 0.0 0.0
293 1 34.22001180327869 22.02715016393443 9.41744981389e-05 0.0 0.0 0.0
294 1 36.99928262295082 21.898446557377053 3.78987521962e-05 0.0 0.0 0.0
295 1 39.628794754098365 21.629274754098365 3.85598729675e-05 0.0 0.0 0.0
296 1 43.38280983606558 21.77923540983607 1.13292364726e-05 0.0 0.0 0.0
297 1 45.643125901639344 20.989695081967216 9.68114805244e-05 0.0 0.0 0.0
298 1 48.50626360655738 21.251848524590166 3.22878964892e-05 0.0 0.0 0.0
299 1 51.0244918032787 21.25715016393443 1.12085518623e-05 0.0 0.0 0.0
300 1 53.7076262295082 21.404838688524592 7.63687903995e-07 0.0 0.0 0.0
301 1 56.03832786885246 21.314912786885248 6.72874239936e-05 0.0 0.0 0.0
302 1 58.5699868852459 22.02523147540984 7.44347594082e-05 0.0 0.0 0.0
303 1 61.14557377049181 20.75995737704918 7.50893913221e-05 0.0 0.0 0.0
304 1 63.3056131147541 20.57036065573771 7.54852363311e-05 0.0 0.0 0.0
305 1 65.38991475409837 21.934295737704918 6.00995568393e-05 0.0 0.0 0.0
306 1 69.15256393442624 20.910473442622955 2.59904620359e-06 0.0 0.0 0.0
307 1 71.73925901639345 20.24494098360656 7.6069140935e-05 0.0 0.0 0.0
308 1 74.44057049180329 21.31556918032787 5.42800214519e-05 0.0 0.0 0.0
309 1 76.93335081967214 22.29086885245902 7.77957830591e-05 0.0 0.0 0.0
310 1 79.68565901639344 21.413927213114757 1.00076601641e-05 0.0 0.0 0.0
311 1 0.8737707540983608 23.815569836065578 1.75906366254e-05 0.0 0.0 0.0
312 1 3.918941508196722 23.431983606557377 3.23307358627e-05 0.0 0.0 0.0
313 1 6.671734426229508 22.838553442622953 5.42451713262e-06 0.0 0.0 0.0
314 1 9.407329836065575 23.60830098360656 1.40569098725e-05 0.0 0.0 0.0
315 1 11.866583606557377 24.09130557377049 2.50344054656e-05 0.0 0.0 0.0
316 1 14.491803934426231 24.4568662295082 3.58852662799e-05 0.0 0.0 0.0
317 1 16.9177331147541 24.41435213114754 7.01627134779e-05 0.0 0.0 0.0
318 1 19.441161967213116 25.683413114754103 5.2275314388e-05 0.0 0.0 0.0
319 1 21.78443606557377 23.999309508196724 1.62762199663e-05 0.0 0.0 0.0
320 1 25.45271606557377 24.772995409836067 1.63073221793e-05 0.0 0.0 0.0
321 1 28.157410491803283 25.23696459016394 8.47052400394e-06 0.0 0.0 0.0
322 1 30.508561311475415 25.149209836065577 6.49931310328e-05 0.0 0.0 0.0
323 1 32.77251278688525 23.937255081967216 5.88906594809e-05 0.0 0.0 0.0
324 1 35.660038032786886 24.117813770491804 7.05224661316e-05 0.0 0.0 0.0
325 1 38.2389068852459 24.17734360655738 4.59738040813e-05 0.0 0.0 0.0
326 1 40.98121770491804 24.02223278688525 6.5076123206e-05 0.0 0.0 0.0
327 1 42.360855737704924 22.88823737704918 4.7934900108e-05 0.0 0.0 0.0
328 1 46.58924131147541 24.348864262295084 6.56374665346e-05 0.0 0.0 0.0
329 1 49.44520918032787 23.686159344262297 3.40447385985e-05 0.0 0.0 0.0
330 1 52.115114754098364 23.620772459016393 8.78653305212e-05 0.0 0.0 0.0
331 1 54.774518032786894 23.919179016393443 6.75552613102e-05 0.0 0.0 0.0
332 1 58.717422950819675 23.53473442622951 1.56710326824e-05 0.0 0.0 0.0
333 1 60.22763278688525 23.34079540983607 5.43119009558e-05 0.0 0.0 0.0
334 1 62.86885901639345 23.21850426229508 7.31464656504e-05 0.0 0.0 0.0
335 1 65.58127868852459 23.46227868852459 8.81947615446e-05 0.0 0.0 0.0
336 1 68.47445901639345 23.457027540983606 9.76028894355e-05 0.0 0.0 0.0
337 1 70.85716721311476 23.855205901639348 4.57237709999e-05 0.0 0.0 0.0
338 1 73.72611147540984 22.712525901639346 4.31805399884e-05 0.0 0.0 0.0
339 1 76.33704262295083 23.725189508196724 5.07023201872e-05 0.0 0.0 0.0
340 1 79.17619672131148 23.781740327868857 4.73429816331e-05 0.0 0.0 0.0
341 1 80.70508852459017 23.700095081967213 4.6051554198e-05 0.0 0.0 0.0
342 1 82.3445573770492 25.79399016393443 2.85032436095e-05 0.0 0.0 0.0
343 1 1.8300855081967216 25.016567868852462 2.19348557669e-05 0.0 0.0 0.0
344 1 5.590351475409836 25.20480131147541 1.1954321876e-05 0.0 0.0 0.0
345 1 7.877731147540985 26.370859016393446 5.38582888697e-05 0.0 0.0 0.0
346 1 10.744706229508198 26.261241311475413 9.04921657294e-05 0.0 0.0 0.0
347 1 13.37845967213115 26.629225573770494 5.90065086896e-05 0.0 0.0 0.0
348 1 15.965053770491805 26.938285901639347 5.43358160863e-05 0.0 0.0 0.0
349 1 18.681260327868856 27.022354754098366 3.32746072914e-05 0.0 0.0 0.0
350 1 21.458915409836067 26.760302295081967 9.4335048709e-05 0.0 0.0 0.0
351 1 24.058283934426232 26.779186229508202 7.27858655418e-05 0.0 0.0 0.0
352 1 27.237197377049185 27.027858360655742 6.05766962221e-05 0.0 0.0 0.0
353 1 28.698733114754102 26.659318688524593 2.65104815281e-05 0.0 0.0 0.0
354 1 32.82598360655738 26.50547016393443 9.49752867968e-07 0.0 0.0 0.0
355 1 34.224808524590166 25.96399606557377 6.41041678778e-05 0.0 0.0 0.0
356 1 36.29103409836066 25.49947147540984 4.48240869369e-05 0.0 0.0 0.0
357 1 40.22434557377049 26.100273442622957 4.78412611882e-05 0.0 0.0 0.0
358 1 43.02623672131148 25.835999344262298 7.37446688796e-05 0.0 0.0 0.0
359 1 45.8984124590164 25.71850491803279 8.8391198668e-05 0.0 0.0 0.0
360 1 48.29076459016394 27.141565901639346 2.04885918898e-05 0.0 0.0 0.0
361 1 51.01338360655738 25.963945573770495 8.06989844474e-05 0.0 0.0 0.0
362 1 53.50818360655738 27.151967213114755 7.26985183753e-05 0.0 0.0 0.0
363 1 56.26301639344263 26.173082622950822 2.51118775804e-05 0.0 0.0 0.0
364 1 58.597757377049184 25.921532459016394 7.51843241718e-05 0.0 0.0 0.0
365 1 61.42933770491804 25.56723147540984 7.23657734456e-06 0.0 0.0 0.0
366 1 64.23314754098361 25.656400000000005 1.93204978749e-05 0.0 0.0 0.0
367 1 67.04958032786887 25.59262885245902 2.52919381667e-05 0.0 0.0 0.0
368 1 69.91044590163935 25.08821573770492 5.49518850618e-05 0.0 0.0 0.0
369 1 72.45826229508197 25.02701967213115 8.862463916e-05 0.0 0.0 0.0
370 1 73.87708196721312 26.613674098360658 9.19782850426e-05 0.0 0.0 0.0
371 1 76.9081049180328 26.624176393442625 3.41618095689e-05 0.0 0.0 0.0
372 1 80.15775737704918 27.757313442622955 8.91257922049e-05 0.0 0.0 0.0
373 1 1.7290110163934427 29.111352131147544 7.86856265702e-05 0.0 0.0 0.0
374 1 4.295145836065574 27.596749508196726 2.42727280186e-07 0.0 0.0 0.0
375 1 7.154688524590164 27.705559344262298 3.63732847107e-05 0.0 0.0 0.0
376 1 9.367340327868853 29.46923803278689 8.51064832061e-05 0.0 0.0 0.0
377 1 12.079103606557377 28.77043147540984 2.9273505693e-05 0.0 0.0 0.0
378 1 14.628889180327871 29.229856393442628 9.39696219728e-05 0.0 0.0 0.0
379 1 17.522422950819674 29.313167868852464 7.11704868945e-05 0.0 0.0 0.0
380 1 20.250848524590165 29.01637704918033 5.46414087313e-05 0.0 0.0 0.0
381 1 22.930246557377053 29.125388852459018 3.14321712251e-05 0.0 0.0 0.0
382 1 25.077208524590166 29.618845245901642 6.3146016291e-05 0.0 0.0 0.0
383 1 27.461179016393444 29.451717377049185 4.27713012948e-05 0.0 0.0 0.0
384 1 30.144262950819677 29.248285901639345 3.8439414265e-06 0.0 0.0 0.0
385 1 32.695916721311484 29.054801311475412 9.95248910143e-05 0.0 0.0 0.0
386 1 35.469835409836065 28.303887213114756 1.44806950374e-05 0.0 0.0 0.0
387 1 37.83583081967214 27.270168524590165 7.02653631186e-05 0.0 0.0 0.0
388 1 41.342183606557384 29.247629508196724 7.29979265375e-05 0.0 0.0 0.0
389 1 44.18487213114754 27.93570098360656 4.91079459667e-05 0.0 0.0 0.0
390 1 47.18034885245902 28.223201311475414 3.38377732715e-05 0.0 0.0 0.0
391 1 49.770881311475414 28.557305573770495 2.65201074318e-05 0.0 0.0 0.0
392 1 53.88788196721312 28.64405049180328 8.81321230137e-05 0.0 0.0 0.0
393 1 55.399101639344266 28.51620524590164 3.53856941456e-05 0.0 0.0 0.0
394 1 57.7772655737705 28.538825573770495 1.83528350566e-05 0.0 0.0 0.0
395 1 60.43060983606558 27.8263862295082 5.0389861447e-06 0.0 0.0 0.0
396 1 63.02942295081968 28.686463606557382 8.82967663083e-05 0.0 0.0 0.0
397 1 65.85191475409836 27.862235409836067 9.03579075019e-05 0.0 0.0 0.0
398 1 68.94352786885247 27.418059016393446 2.89438526271e-05 0.0 0.0 0.0
399 1 70.45272786885246 27.231441311475415 7.66283859259e-05 0.0 0.0 0.0
400 1 72.74657049180328 27.623459672131148 7.52044245462e-05 0.0 0.0 0.0
401 1 74.73897704918033 27.852339016393447 5.50061773357e-05 0.0 0.0 0.0
402 1 77.96388852459016 27.728129180327873 2.12867826315e-05 0.0 0.0 0.0
403 1 82.12239344262296 28.39956918032787 7.57735171319e-05 0.0 0.0 0.0
404 1 0.756453049180328 30.331335081967218 3.53198427335e-05 0.0 0.0 0.0
405 1 4.22199331147541 29.88685573770492 4.90889192248e-06 0.0 0.0 0.0
406 1 5.738696393442623 29.73750098360656 2.11046873182e-06 0.0 0.0 0.0
407 1 8.38764786885246 30.629085245901642 8.48596248674e-05 0.0 0.0 0.0
408 1 11.016604590163935 31.22009180327869 9.29342222802e-05 0.0 0.0 0.0
409 1 13.372703606557378 31.347533114754103 2.56920301609e-05 0.0 0.0 0.0
410 1 15.349053770491805 30.63191278688525 1.04400441606e-05 0.0 0.0 0.0
411 1 19.81162032786885 31.091640655737706 2.11435003604e-05 0.0 0.0 0.0