ITEM: TIMESTEP
0
ITEM: NUMBER OF ATOMS
2232
ITEM: BOX BOUNDS xy xz yz pp pp pp
0.0 82.68810555352132 0
0.0 83.16 0
-10.0 10.0 0
ITEM: ATOMS id type x y z vx vy vz
1 1 1.1012514754098361 0.9855798032786885 1.90005829296e-05 0.0 0.0 0.0
2 1 3.7941005245901644 0.9842266229508198 2.60447807508e-05 0.0 0.0 0.0
3 1 6.5226321311475415 1.0132644590163935 4.73738449055e-05 0.0 0.0 0.0
4 1 9.22000524590164 1.0154103606557379 6.34076201693e-05 0.0 0.0 0.0
5 1 11.809780327868854 0.7352515409836067 8.8439670499e-05 0.0 0.0 0.0
6 1 14.592888524590165 0.4500783803278689 9.21269307182e-06 0.0 0.0 0.0
7 1 17.33696655737705 0.46637410491803283 4.09793122296e-05 0.0 0.0 0.0
8 1 20.02691737704918 0.7348930491803279 6.06478920809e-05 0.0 0.0 0.0
9 1 22.50066229508197 0.969164918032787 9.96256633169e-05 0.0 0.0 0.0
10 1 25.094628196721313 0.7392555409836067 4.33495192043e-05 0.0 0.0 0.0
11 1 27.72196918032787 0.3819063672131148 2.23754071044e-05 0.0 0.0 0.0
12 1 30.26039409836066 0.5069528524590164 4.31439833603e-05 0.0 0.0 0.0
13 1 32.92550295081967 0.6223771147540984 3.80320005191e-06 0.0 0.0 0.0
14 1 35.619089180327876 0.571723737704918 9.03148335521e-05 0.0 0.0 0.0
15 1 38.25713442622951 0.7548070163934427 4.75889190459e-05 0.0 0.0 0.0
16 1 40.94127868852459 0.7845416393442624 9.57893326599e-05 0.0 0.0 0.0
17 1 43.800478032786884 0.6577062295081968 8.44759425172e-05 0.0 0.0 0.0
18 1 46.61968786885246 0.6806396065573771 2.01047250193e-05 0.0 0.0 0.0
19 1 49.40779475409836 0.9144469508196722 9.1077409287e-05 0.0 0.0 0.0
20 1 52.9800393442623 0.7035527868852459 6.73649758693e-05 0.0 0.0 0.0
21 1 54.52508852459017 0.8202948852459018 7.13456214035e-05 0.0 0.0 0.0
22 1 57.20872786885246 1.4369108852459016 6.85609369926e-05 0.0 0.0 0.0
23 1 59.977698360655744 1.0005607213114756 8.26328541373e-05 0.0 0.0 0.0
24 1 62.72192786885246 0.9005819016393444 8.33874472035e-05 0.0 0.0 0.0
25 1 66.3285573770492 0.42150557377049186 9.19006294996e-06 0.0 0.0 0.0
26 1 67.87360655737706 0.39248641967213116 8.57772818104e-05 0.0 0.0 0.0
27 1 70.47342950819673 0.4248652983606558 6.11944416152e-05 0.0 0.0 0.0
28 1 73.18231475409837 0.317180924590164 9.66050065647e-05 0.0 0.0 0.0
29 1 75.78011803278689 0.5544100983606558 3.86292317217e-05 0.0 0.0 0.0
30 1 78.4632524590164 0.5804386229508197 8.66978435597e-05 0.0 0.0 0.0
31 1 81.12063606557378 0.9173603278688526 7.07504436477e-05 0.0 0.0 0.0
32 1 82.544 3.3089500327868855 2.01522832461e-05 0.0 0.0 0.0
33 1 2.523575278688525 3.3045168524590167 4.58588182401e-05 0.0 0.0 0.0
34 1 5.125170491803279 3.2743732459016397 1.90553154209e-05 0.0 0.0 0.0
35 1 7.788512131147542 3.3244459672131152 8.08484118808e-05 0.0 0.0 0.0
36 1 11.010596065573772 3.2077745573770495 9.68560162585e-05 0.0 0.0 0.0
37 1 13.561593442622954 2.7087590163934427 1.71336753769e-06 0.0 0.0 0.0
38 1 16.08037704918033 2.6517083278688527 2.19017195762e-05 0.0 0.0 0.0
39 1 18.587042622950822 2.840345704918033 5.56600145819e-05 0.0 0.0 0.0
40 1 21.147280000000002 3.3079099016393445 3.56839655662e-05 0.0 0.0 0.0
41 1 24.616672786885246 2.9934217049180334 2.98113612511e-05 0.0 0.0 0.0
42 1 26.139505573770492 2.7938579016393446 2.20967483422e-05 0.0 0.0 0.0
43 1 28.69065442622951 2.820053049180328 5.8749479266e-05 0.0 0.0 0.0
44 1 31.444729836065576 2.8563364590163935 5.89924633183e-05 0.0 0.0 0.0
45 1 34.039402622950824 2.8685352786885248 4.27004909914e-05 0.0 0.0 0.0
46 1 36.752125245901645 3.025711213114754 6.80670399253e-07 0.0 0.0 0.0
47 1 39.7677986885246 3.0988889836065576 2.17091000589e-05 0.0 0.0 0.0
48 1 42.45795147540984 2.8347310163934427 5.91125936347e-05 0.0 0.0 0.0
49 1 45.120788196721314 2.8291213770491805 8.49492103277e-05 0.0 0.0 0.0
50 1 47.85840327868853 2.997536786885246 6.15736354594e-05 0.0 0.0 0.0
51 1 50.390011803278696 3.40363731147541 9.76771379753e-05 0.0 0.0 0.0
52 1 52.94368524590164 3.358028065573771 9.32612467224e-05 0.0 0.0 0.0
53 1 55.729822950819674 3.3756648524590167 6.57828209483e-05 0.0 0.0 0.0
54 1 58.51747540983607 3.4069142295081973 7.48970451682e-05 0.0 0.0 0.0
55 1 61.21828196721312 3.218796918032787 8.75637526709e-05 0.0 0.0 0.0
56 1 63.88020983606558 3.284668524590164 8.92776653962e-05 0.0 0.0 0.0
57 1 66.46993442622951 3.019748131147541 1.58199886492e-06 0.0 0.0 0.0
58 1 69.30858360655738 2.7895660983606563 8.75141746758e-05 0.0 0.0 0.0
59 1 72.09068196721311 2.594571803278689 6.26721663289e-06 0.0 0.0 0.0
60 1 74.60618360655738 3.804128196721312 5.98907655208e-05 0.0 0.0 0.0
61 1 77.36051147540984 2.83777062295082 6.50272229278e-05 0.0 0.0 0.0
62 1 79.75937704918034 4.150820065573771 8.1300106445e-05 0.0 0.0 0.0
63 1 1.4423185573770492 5.631653770491805 7.99516504112e-05 0.0 0.0 0.0
64 1 4.035309967213115 5.662504262295083 6.22881352274e-05 0.0 0.0 0.0
65 1 6.610942295081967 5.593582950819673 4.4100428511e-05 0.0 0.0 0.0
66 1 8.755985573770493 4.522323606557378 5.22851834776e-05 0.0 0.0 0.0
67 1 13.33064393442623 4.996381049180328 8.55115118185e-05 0.0 0.0 0.0
68 1 14.85908131147541 5.055340327868853 5.56306540594e-05 0.0 0.0 0.0
69 1 17.26466229508197 5.1257763934426235 7.26793998103e-05 0.0 0.0 0.0
70 1 19.33517967213115 6.533033442622952 7.99266001004e-05 0.0 0.0 0.0
71 1 22.189380327868854 5.83856918032787 9.70474987525e-05 0.0 0.0 0.0
72 1 24.594708852459018 5.678611147540985 4.58197210721e-07 0.0 0.0 0.0
73 1 27.21149704918033 5.19909049180328 4.78217518599e-05 0.0 0.0 0.0
74 1 29.95618098360656 5.040172590163935 9.99658593512e-05 0.0 0.0 0.0
75 1 32.61013114754098 5.231506229508198 3.25096354165e-05 0.0 0.0 0.0
76 1 35.37279016393443 5.180509508196722 1.5045509852e-05 0.0 0.0 0.0
77 1 37.52207475409836 4.367934819672131 7.63674939633e-05 0.0 0.0 0.0
78 1 41.18040786885246 5.209542295081968 7.32081007214e-05 0.0 0.0 0.0
79 1 43.66803803278689 5.117243278688525 5.86006526459e-05 0.0 0.0 0.0
80 1 46.32118032786885 5.114769180327869 1.87288867607e-05 0.0 0.0 0.0
81 1 48.92923344262295 5.573335737704919 2.56592585597e-05 0.0 0.0 0.0
82 1 51.706636065573775 5.758943606557377 9.26897421819e-06 0.0 0.0 0.0
83 1 54.46045901639345 5.607013770491803 7.47282048306e-05 0.0 0.0 0.0
84 1 57.14813770491804 5.629179672131148 3.30809287621e-05 0.0 0.0 0.0
85 1 59.897416393442626 5.599995409836066 6.4034417053e-05 0.0 0.0 0.0
86 1 62.64114098360656 5.553946885245902 2.23434748654e-05 0.0 0.0 0.0
87 1 65.3772918032787 5.485025573770493 2.18391623772e-05 0.0 0.0 0.0
88 1 68.08920655737705 5.083514754098361 3.21199856768e-05 0.0 0.0 0.0
89 1 70.8899868852459 4.936911803278689 2.86002567592e-05 0.0 0.0 0.0
90 1 73.79579016393443 5.119010491803278 1.29300902913e-05 0.0 0.0 0.0
91 1 76.43701639344263 5.3487986885245915 7.18597477397e-05 0.0 0.0 0.0
92 1 79.1100524590164 5.549049180327869 9.22866844769e-05 0.0 0.0 0.0
93 1 81.57203278688526 5.745613770491804 8.54551093028e-05 0.0 0.0 0.0
94 1 0.20140776393442625 8.077173770491804 9.39623714024e-05 0.0 0.0 0.0
95 1 2.8413353442622955 8.034760655737706 8.14983955494e-05 0.0 0.0 0.0
96 1 5.471291803278689 8.029408524590165 2.02369187046e-05 0.0 0.0 0.0
97 1 8.98976262295082 7.195182950819673 6.83067423931e-05 0.0 0.0 0.0
98 1 10.530015081967214 7.334590819672132 6.62129646604e-05 0.0 0.0 0.0
99 1 13.170281967213116 7.694496393442624 4.94130884576e-05 0.0 0.0 0.0
100 1 15.915521311475413 7.6101245901639345 1.50852580001e-06 0.0 0.0 0.0
101 1 18.542256393442624 7.8445075409836065 4.24836996671e-05 0.0 0.0 0.0
102 1 21.104513442622952 8.084141639344264 1.26848403687e-05 0.0 0.0 0.0
103 1 23.6830793442623 8.227184918032787 9.52124834347e-05 0.0 0.0 0.0
104 1 26.211809836065576 7.755440000000001 4.83081435148e-05 0.0 0.0 0.0
105 1 28.89676196721312 7.295964590163935 3.18286339577e-05 0.0 0.0 0.0
106 1 31.124914754098366 8.605116065573771 1.55814454775e-05 0.0 0.0 0.0
107 1 34.42354426229509 7.352565901639345 1.5959475981e-05 0.0 0.0 0.0
108 1 37.168278688524595 7.247340983606558 6.98654145962e-06 0.0 0.0 0.0
109 1 39.72962688524591 7.393161311475411 1.37421435282e-05 0.0 0.0 0.0
110 1 42.43159475409837 7.58952393442623 3.08456203599e-05 0.0 0.0 0.0
111 1 45.066004590163935 7.393615737704919 6.61522663508e-05 0.0 0.0 0.0
112 1 47.36984459016394 8.68711475409836 9.46723212755e-05 0.0 0.0 0.0
113 1 50.269487868852465 7.8699554098360665 6.17043748965e-05 0.0 0.0 0.0
114 1 53.16180983606558 7.920649180327869 8.05894910879e-05 0.0 0.0 0.0
115 1 55.85049836065574 7.950388852459017 1.61830904763e-05 0.0 0.0 0.0
116 1 58.594727868852466 7.87520655737705 7.87101117387e-05 0.0 0.0 0.0
117 1 61.42024918032788 7.817999344262296 7.95855607763e-05 0.0 0.0 0.0
118 1 64.14731147540985 7.767659016393443 3.03778598418e-05 0.0 0.0 0.0
119 1 66.81479344262296 7.537618360655738 6.4441069967e-05 0.0 0.0 0.0
120 1 69.4772262295082 7.22532655737705 7.21543473851e-05 0.0 0.0 0.0
121 1 72.24619672131149 7.133633442622951 4.06529601061e-05 0.0 0.0 0.0
122 1 75.01112786885247 7.53908262295082 5.41581938744e-05 0.0 0.0 0.0
123 1 77.60640655737706 7.7566518032786895 6.90300581768e-05 0.0 0.0 0.0
124 1 80.21077377049181 8.08035475409836 7.58972284955e-05 0.0 0.0 0.0
125 1 1.5207323278688525 10.401715409836067 5.76821601975e-05 0.0 0.0 0.0
126 1 4.171955934426229 10.403785573770493 6.78902994142e-05 0.0 0.0 0.0
127 1 6.738939016393443 10.40620918032787 7.65885567041e-05 0.0 0.0 0.0
128 1 9.243837377049182 9.756127213114754 3.77877066143e-05 0.0 0.0 0.0
129 1 12.017655081967215 9.810153442622953 2.56988161144e-05 0.0 0.0 0.0
130 1 14.639492459016395 9.928657704918034 6.52891825715e-05 0.0 0.0 0.0
131 1 17.312730491803283 10.074074098360656 9.98376655517e-05 0.0 0.0 0.0
132 1 19.993239344262296 10.269123934426231 2.20987333168e-05 0.0 0.0 0.0
133 1 22.464257704918037 11.491732459016394 6.82479212329e-05 0.0 0.0 0.0
134 1 25.22646229508197 10.39383868852459 7.13915512382e-05 0.0 0.0 0.0
135 1 27.79750491803279 9.77718229508197 5.46369459171e-06 0.0 0.0 0.0
136 1 30.503007213114756 9.987884590163935 2.46774877051e-05 0.0 0.0 0.0
137 1 32.43926688524591 9.373651803278689 1.60909749852e-06 0.0 0.0 0.0
138 1 35.65751344262296 10.842710819672131 6.28410474079e-05 0.0 0.0 0.0
139 1 38.40871081967213 9.760873442622952 2.6568465698e-05 0.0 0.0 0.0
140 1 41.10588196721312 9.79137049180328 2.64656243933e-05 0.0 0.0 0.0
141 1 43.79421704918033 9.839943606557378 4.47326571003e-05 0.0 0.0 0.0
142 1 46.49406426229509 9.956781639344262 5.24011028367e-05 0.0 0.0 0.0
143 1 49.01830098360656 10.129918032786886 4.35022272831e-05 0.0 0.0 0.0
144 1 51.72986229508197 9.976069508196723 5.25011430401e-05 0.0 0.0 0.0
145 1 54.34836721311476 10.262408524590164 6.09278166661e-05 0.0 0.0 0.0
146 1 57.44300983606558 10.17520918032787 8.58390222396e-05 0.0 0.0 0.0
147 1 60.26095737704919 9.99616524590164 6.70128266996e-05 0.0 0.0 0.0
148 1 62.98953442622951 10.055240655737705 9.16539215783e-05 0.0 0.0 0.0
149 1 65.62015737704918 9.973696393442625 6.75110286082e-05 0.0 0.0 0.0
150 1 68.19321967213115 9.68973049180328 3.49163744413e-05 0.0 0.0 0.0
151 1 70.85060327868852 9.387385573770493 8.29113939933e-06 0.0 0.0 0.0
152 1 73.55140983606557 9.502001967213115 4.52006352482e-05 0.0 0.0 0.0
153 1 76.12952131147543 10.015705573770493 2.30827229236e-05 0.0 0.0 0.0
154 1 78.74196721311476 10.26533704918033 6.8141278807e-05 0.0 0.0 0.0
155 1 81.48821639344264 10.37970098360656 4.04361409757e-05 0.0 0.0 0.0
156 1 0.13097876721311477 12.668393442622952 8.85024265222e-05 0.0 0.0 0.0
157 1 2.855215540983607 12.74973573770492 2.16446147794e-05 0.0 0.0 0.0
158 1 5.5474334426229515 12.8120931147541 6.75575573317e-05 0.0 0.0 0.0
159 1 9.217430163934427 12.008112131147541 6.84592678724e-05 0.0 0.0 0.0
160 1 10.746321967213117 11.973323278688525 7.19628420654e-05 0.0 0.0 0.0
161 1 13.266519344262296 12.243302950819674 8.45353831012e-05 0.0 0.0 0.0
162 1 15.978383606557378 12.330300327868853 7.9100989668e-05 0.0 0.0 0.0
163 1 18.737457704918036 12.485360655737706 5.55055397274e-05 0.0 0.0 0.0
164 1 21.568078688524594 12.74973573770492 2.38466895052e-05 0.0 0.0 0.0
165 1 24.169062950819676 12.901615081967215 9.1259792666e-05 0.0 0.0 0.0
166 1 27.620076721311477 12.11364 4.49851568461e-05 0.0 0.0 0.0
167 1 29.166691147540988 12.10172393442623 7.50744956884e-05 0.0 0.0 0.0
168 1 31.94500262295082 12.291371147540984 1.29433945586e-05 0.0 0.0 0.0
169 1 34.79299278688524 12.13595737704918 4.75686542054e-05 0.0 0.0 0.0
170 1 37.33808262295083 12.268599344262297 3.53380478093e-05 0.0 0.0 0.0
171 1 39.92487868852459 12.084455737704918 1.69128445069e-05 0.0 0.0 0.0
172 1 42.50798885245902 12.134291147540985 1.40922277488e-05 0.0 0.0 0.0
173 1 45.04505049180328 12.19988 2.1216743855e-05 0.0 0.0 0.0
174 1 47.58110229508197 12.4055331147541 9.3148353439e-05 0.0 0.0 0.0
175 1 50.275294426229514 12.249361967213117 1.01518269144e-05 0.0 0.0 0.0
176 1 52.868957377049185 12.421034098360657 2.47365302754e-05 0.0 0.0 0.0
177 1 55.09817049180329 11.610691147540985 4.8144845802e-05 0.0 0.0 0.0
178 1 58.88657049180329 12.206241967213117 7.82830260051e-05 0.0 0.0 0.0
179 1 61.67876721311476 12.279909508196722 4.70998333157e-05 0.0 0.0 0.0
180 1 64.45329180327869 12.379226885245902 2.3109539705e-05 0.0 0.0 0.0
181 1 67.13945573770492 12.220935081967214 4.80215596211e-05 0.0 0.0 0.0
182 1 69.8513704918033 11.796955409836068 4.13765190326e-05 0.0 0.0 0.0
183 1 72.42746229508197 11.65633573770492 3.09765012023e-05 0.0 0.0 0.0
184 1 74.40320655737706 13.350840655737708 7.75134300279e-05 0.0 0.0 0.0
185 1 77.25902295081968 12.505506885245902 4.76744264392e-05 0.0 0.0 0.0
186 1 80.05626885245903 12.573822295081968 4.28074268475e-06 0.0 0.0 0.0
187 1 1.4060704918032787 14.991470819672132 5.73323854484e-05 0.0 0.0 0.0
188 1 4.047887475409837 15.103057704918035 4.04007358643e-05 0.0 0.0 0.0
189 1 7.601692459016395 14.87604655737705 5.30493914097e-05 0.0 0.0 0.0
190 1 9.122303606557379 14.700284590163935 4.24586643585e-05 0.0 0.0 0.0
191 1 11.829825573770494 14.558705573770494 3.50736279024e-05 0.0 0.0 0.0
192 1 14.560573770491803 14.58809180327869 7.61717993478e-05 0.0 0.0 0.0
193 1 17.32227344262295 14.662920655737706 3.36246539062e-05 0.0 0.0 0.0
194 1 20.010305573770495 14.809043934426231 7.61722174244e-05 0.0 0.0 0.0
195 1 22.618005245901642 15.150015081967215 5.80921513411e-05 0.0 0.0 0.0
196 1 25.242720655737706 15.215200000000001 2.38080872044e-05 0.0 0.0 0.0
197 1 27.80108983606558 14.810962622950822 9.51852262732e-05 0.0 0.0 0.0
198 1 30.60111278688525 14.441160655737706 3.47160302905e-05 0.0 0.0 0.0
199 1 33.36680131147541 14.393748852459018 8.87257509484e-05 0.0 0.0 0.0
200 1 35.976167213114756 14.58390098360656 5.38578366552e-05 0.0 0.0 0.0
201 1 38.59795409836066 14.525835409836066 8.42027488469e-05 0.0 0.0 0.0
202 1 41.29088393442623 14.495540327868854 8.94066964237e-05 0.0 0.0 0.0
203 1 43.80805180327869 14.593595409836066 8.78788460825e-05 0.0 0.0 0.0
204 1 46.46058819672131 14.68089573770492 4.365898554e-05 0.0 0.0 0.0
205 1 49.19214426229509 14.535782295081969 9.46143789216e-05 0.0 0.0 0.0
206 1 51.72935737704918 15.606561967213116 1.08542569536e-05 0.0 0.0 0.0
207 1 54.49176393442623 14.485845901639346 3.76274280324e-05 0.0 0.0 0.0
208 1 57.21226229508198 14.300591475409838 2.44189100586e-05 0.0 0.0 0.0
209 1 59.92771147540984 14.375824262295083 3.18957254288e-05 0.0 0.0 0.0
210 1 62.72394754098361 14.528662950819674 6.57931378462e-05 0.0 0.0 0.0
211 1 66.0468131147541 14.64009836065574 6.24186368155e-05 0.0 0.0 0.0
212 1 69.56811147540985 13.923720655737707 3.36239509054e-05 0.0 0.0 0.0
213 1 71.09750819672132 14.088071475409839 5.41692660381e-05 0.0 0.0 0.0
214 1 73.50394754098362 14.624849836065575 2.61017526152e-05 0.0 0.0 0.0
215 1 76.0184393442623 14.881398688524591 7.00708039776e-06 0.0 0.0 0.0
216 1 78.69955409836066 14.74784786885246 8.33603363295e-05 0.0 0.0 0.0
217 1 81.42863606557377 14.862767213114756 5.87132926056e-05 0.0 0.0 0.0
218 1 0.005906632131147542 17.252544262295082 1.30756040518e-05 0.0 0.0 0.0
219 1 2.485610491803279 17.390992786885246 3.00259973082e-05 0.0 0.0 0.0
220 1 5.018183409836066 17.564129180327868 1.10355845872e-05 0.0 0.0 0.0
221 1 7.813152131147541 17.312225573770494 1.76820034038e-05 0.0 0.0 0.0
222 1 10.583788852459017 16.96075213114754 1.71900660546e-05 0.0 0.0 0.0
223 1 13.23481049180328 16.871230163934428 9.97370899727e-05 0.0 0.0 0.0
224 1 15.99908524590164 16.86850360655738 3.07630431265e-05 0.0 0.0 0.0
225 1 18.70347672131148 17.04406360655738 4.93985799785e-05 0.0 0.0 0.0
226 1 21.325516065573773 17.31838557377049 8.79090570615e-05 0.0 0.0 0.0
227 1 23.930186229508198 17.498590819672135 2.16034903495e-05 0.0 0.0 0.0
228 1 26.65921770491804 17.340955409836067 2.75697911349e-05 0.0 0.0 0.0
229 1 29.349118032786887 16.784737704918033 5.56150756364e-05 0.0 0.0 0.0
230 1 32.18226360655738 16.645178360655738 9.65797271682e-05 0.0 0.0 0.0
231 1 34.79920327868853 16.839723278688524 6.90711600602e-05 0.0 0.0 0.0
232 1 37.24537967213115 16.895466229508198 4.91503059949e-05 0.0 0.0 0.0
233 1 39.87236721311476 16.775800655737708 2.32817743584e-06 0.0 0.0 0.0
234 1 42.492841311475416 16.996096393442624 3.84858682017e-05 0.0 0.0 0.0
235 1 45.163049836065575 16.96736655737705 6.77534338811e-05 0.0 0.0 0.0
236 1 47.97211081967213 16.86340393442623 3.79760802789e-05 0.0 0.0 0.0
237 1 50.87907540983607 16.890820983606556 7.88460980962e-05 0.0 0.0 0.0
238 1 53.512727868852465 16.956813770491806 1.36757752436e-05 0.0 0.0 0.0
239 1 56.08175081967214 16.67284786885246 7.9767071855e-05 0.0 0.0 0.0
240 1 58.574026229508206 16.601502950819675 6.27813168217e-05 0.0 0.0 0.0
241 1 61.265239344262305 16.584436721311477 8.213179171e-05 0.0 0.0 0.0
242 1 63.49647213114755 15.854628196721313 6.79822630966e-05 0.0 0.0 0.0
243 1 67.90390163934427 16.79372524590164 1.94291552984e-05 0.0 0.0 0.0
244 1 69.42219016393443 16.770852459016396 2.64787582266e-05 0.0 0.0 0.0
245 1 71.79076065573771 16.856335081967217 6.65106260371e-05 0.0 0.0 0.0
246 1 74.41885901639345 17.1257593442623 3.07130850083e-05 0.0 0.0 0.0
247 1 77.20651147540984 17.075419016393443 3.78130755131e-05 0.0 0.0 0.0
248 1 79.95478032786886 17.050728524590166 9.07535275368e-05 0.0 0.0 0.0
249 1 1.1264519344262296 19.80217836065574 5.17808381118e-05 0.0 0.0 0.0
250 1 3.805016852459017 19.873220327868854 3.88336690048e-05 0.0 0.0 0.0
251 1 6.622757377049181 19.53654098360656 3.72685448262e-05 0.0 0.0 0.0
252 1 9.38016524590164 19.3710793442623 9.34933223669e-05 0.0 0.0 0.0
253 1 12.19028655737705 19.270499672131148 9.33397051164e-05 0.0 0.0 0.0
254 1 14.846811803278689 19.08645704918033 5.49455438465e-05 0.0 0.0 0.0
255 1 17.422146229508197 19.23116655737705 9.98917931547e-05 0.0 0.0 0.0
256 1 20.0917993442623 19.51992918032787 8.92554688933e-05 0.0 0.0 0.0
257 1 22.701468196721315 19.77253967213115 2.79747540252e-05 0.0 0.0 0.0
258 1 25.33501967213115 19.65908459016394 4.94836255354e-05 0.0 0.0 0.0
259 1 28.175234098360658 19.277619016393444 5.4525247611e-07 0.0 0.0 0.0
260 1 30.941225573770495 18.819405901639346 2.48118634741e-05 0.0 0.0 0.0
261 1 33.69403868852459 19.072016393442624 9.5428406819e-05 0.0 0.0 0.0
262 1 36.180457049180326 19.358052459016395 3.70740129573e-06 0.0 0.0 0.0
263 1 38.77952262295082 19.141695081967214 7.58710782215e-05 0.0 0.0 0.0
264 1 41.20610819672132 20.282860327868853 2.93016847324e-05 0.0 0.0 0.0
265 1 43.95008524590164 19.32482885245902 6.94959977992e-07 0.0 0.0 0.0
266 1 46.58707016393443 19.11220786885246 7.32329438867e-05 0.0 0.0 0.0
267 1 49.39900918032787 18.963862950819674 7.55554501303e-05 0.0 0.0 0.0
268 1 52.18075409836066 19.223643278688527 2.36427886988e-05 0.0 0.0 0.0
269 1 54.92397377049181 19.17310098360656 7.45506865471e-07 0.0 0.0 0.0
270 1 57.53036065573771 19.081205901639347 8.67225614803e-05 0.0 0.0 0.0
271 1 60.09382950819673 18.834603934426234 2.91168820485e-05 0.0 0.0 0.0
272 1 62.676485245901645 18.705698360655738 9.56080350994e-05 0.0 0.0 0.0
273 1 65.05161967213117 18.828292459016396 6.22966927105e-05 0.0 0.0 0.0
274 1 67.56560655737705 20.35819409836066 3.22820486197e-05 0.0 0.0 0.0
275 1 70.32750819672131 19.422732459016398 9.97731040618e-05 0.0 0.0 0.0
276 1 72.91319344262295 19.341238688524594 9.90892236238e-06 0.0 0.0 0.0
277 1 75.73114098360656 19.28049704918033 4.6636065228e-05 0.0 0.0 0.0
278 1 78.47940983606559 19.278426885245903 2.16731067869e-05 0.0 0.0 0.0
279 1 81.1620393442623 19.370877377049183 3.36731173049e-05 0.0 0.0 0.0
280 1 82.41827540983607 21.83502885245902 2.52597856031e-05 0.0 0.0 0.0
281 1 1.7677079344262299 21.22321967213115 1.3369794469e-05 0.0 0.0 0.0
282 1 5.532790819672132 21.711980327868854 2.41189207583e-05 0.0 0.0 0.0
283 1 8.097622950819673 21.588578360655738 6.3506605471e-05 0.0 0.0 0.0
284 1 10.057613770491804 20.76308786885246 5.5759754351e-05 0.0 0.0 0.0
285 1 13.60516786885246 21.45921836065574 5.3450296315e-05 0.0 0.0 0.0
286 1 16.105269508196724 21.531068196721314 3.65925865981e-05 0.0 0.0 0.0
287 1 18.622336393442627 21.656994754098363 3.13689768057e-05 0.0 0.0 0.0
288 1 21.26371409836066 22.01791016393443 4.46944592127e-05 0.0 0.0 0.0
289 1 24.235308196721313 22.078449836065573 1.9671267719e-05 0.0 0.0 0.0
290 1 26.812813770491804 21.565756065573773 9.27544083474e-05 0.0 0.0 0.0
291 1 30.518104262295083 20.927337704918035 8.4128102123e-05 0.0 0.0 0.0
292 1 32.035332459016395 21.104462950819677 5.93987854369e-05 0.0 0.0 0.0
293 1 34.56906163934426 21.67133442622951 4.25710120688e-05 0.0 0.0 0.0
294 1 37.64931409836066 21.671031475409837 5.19838861739e-05 0.0 0.0 0.0
295 1 40.47306819672132 21.635384262295084 8.74732329066e-05 0.0 0.0 0.0
296 1 43.00033442622951 21.814731147540986 4.33919279864e-06 0.0 0.0 0.0
297 1 45.51724983606558 21.56550360655738 2.34771104726e-05 0.0 0.0 0.0
298 1 48.075720000000004 21.18701704918033 2.23214767524e-05 0.0 0.0 0.0
299 1 50.79828852459017 21.26002819672131 5.11211106839e-05 0.0 0.0 0.0
300 1 53.494045901639346 21.422561311475413 9.89093559613e-05 0.0 0.0 0.0
301 1 56.23524590163935 21.49112918032787 9.1947779986e-05 0.0 0.0 0.0
302 1 59.708072131147546 21.10617967213115 6.65445455075e-05 0.0 0.0 0.0
303 1 61.249586885245904 21.111329836065575 1.51741865104e-05 0.0 0.0 0.0
304 1 63.71459672131148 21.268763278688525 9.11068508374e-05 0.0 0.0 0.0
305 1 66.4860918032787 21.451644590163937 8.0430457884e-05 0.0 0.0 0.0
306 1 68.9420131147541 22.014022295081972 4.47832435193e-05 0.0 0.0 0.0
307 1 71.79681967213115 21.820133770491807 1.72768205962e-05 0.0 0.0 0.0
308 1 74.52186229508199 21.457905573770493 6.18909023589e-05 0.0 0.0 0.0
309 1 77.18177049180329 21.492845901639345 3.29586836416e-06 0.0 0.0 0.0
310 1 79.81188852459016 21.590446557377053 3.60790238389e-05 0.0 0.0 0.0
311 1 1.1305518688524592 24.167447213114755 1.0040084636e-05 0.0 0.0 0.0
312 1 5.118152131147541 23.82248721311476 5.00638565655e-05 0.0 0.0 0.0
313 1 6.657647213114755 23.945838688524592 1.85240992787e-05 0.0 0.0 0.0
314 1 9.352344262295084 23.746244590163936 3.36382969305e-05 0.0 0.0 0.0
315 1 12.038306229508198 23.642382950819673 6.09993964465e-05 0.0 0.0 0.0
316 1 14.70513180327869 23.90584918032787 2.05763326012e-05 0.0 0.0 0.0
317 1 17.30980196721312 24.001985573770494 1.40024533358e-05 0.0 0.0 0.0
318 1 19.878673442622954 24.108371803278693 7.45415092007e-05 0.0 0.0 0.0
319 1 22.01543606557377 23.370989508196725 5.05918663753e-06 0.0 0.0 0.0
320 1 25.64766491803279 24.127912131147543 9.29477818594e-05 0.0 0.0 0.0
321 1 27.946051803278692 23.715141639344264 4.69293941764e-05 0.0 0.0 0.0
322 1 30.51795278688525 23.479799344262297 7.75254877151e-05 0.0 0.0 0.0
323 1 33.03259606557378 23.72635081967213 3.64281777096e-05 0.0 0.0 0.0
324 1 35.24868131147541 23.070462295081967 9.76084960725e-06 0.0 0.0 0.0
325 1 38.89933967213115 23.80047278688525 7.65474830104e-05 0.0 0.0 0.0
326 1 41.525317377049184 24.101656393442628 5.87945474712e-05 0.0 0.0 0.0
327 1 44.22854754098361 24.102464262295083 2.70514567283e-05 0.0 0.0 0.0
328 1 47.64209639344263 23.555638032786888 8.28640321387e-05 0.0 0.0 0.0
329 1 49.170281311475414 23.415624262295086 9.22777931854e-05 0.0 0.0 0.0
330 1 51.87224918032787 23.58749836065574 1.60133283125e-05 0.0 0.0 0.0
331 1 54.58264918032788 23.671617704918035 1.18956884912e-05 0.0 0.0 0.0
332 1 57.198629508196724 23.91524065573771 7.35084730709e-05 0.0 0.0 0.0
333 1 59.79390819672132 23.80547147540984 4.63072078576e-05 0.0 0.0 0.0
334 1 62.51844590163935 23.681968524590165 6.3214243786e-05 0.0 0.0 0.0
335 1 65.00920655737706 23.558617049180327 5.38119642908e-05 0.0 0.0 0.0
336 1 67.38888524590165 24.997986885245904 3.38361471453e-05 0.0 0.0 0.0
337 1 69.69080655737706 23.362456393442624 7.86241590319e-05 0.0 0.0 0.0
338 1 73.38226229508197 23.818043934426232 2.10840645751e-05 0.0 0.0 0.0
339 1 75.99218360655738 23.753767868852464 1.36224520014e-05 0.0 0.0 0.0
340 1 78.61371803278689 23.84046229508197 7.48063939125e-05 0.0 0.0 0.0
341 1 81.13174426229509 24.016931147540987 7.73270167387e-05 0.0 0.0 0.0
342 1 82.40767213114755 26.343643934426233 7.4162611429e-05 0.0 0.0 0.0
343 1 1.7950643934426231 25.57909704918033 3.3979916056e-05 0.0 0.0 0.0
344 1 5.397977704918033 26.561364590163937 2.2471833909e-05 0.0 0.0 0.0
345 1 8.003556721311476 26.153996721311476 2.70289587919e-05 0.0 0.0 0.0
346 1 10.639026885245903 26.004238032786887 9.12947032284e-05 0.0 0.0 0.0
347 1 13.368866229508198 26.080329180327873 2.88380782218e-05 0.0 0.0 0.0
348 1 16.046295081967216 26.303755409836068 8.96812017241e-05 0.0 0.0 0.0
349 1 18.706960655737706 26.41721049180328 8.24901874248e-05 0.0 0.0 0.0
350 1 21.470831475409838 26.270784262295084 3.39498082743e-05 0.0 0.0 0.0
351 1 24.23662098360656 26.384441311475413 4.63442033806e-05 0.0 0.0 0.0
352 1 27.878847213114756 26.10729180327869 9.8302236284e-05 0.0 0.0 0.0
353 1 29.3971862295082 25.87866491803279 9.60510975156e-05 0.0 0.0 0.0
354 1 31.701733114754102 27.12258098360656 3.60108875992e-05 0.0 0.0 0.0
355 1 34.44722491803279 25.969954098360656 1.08452336143e-05 0.0 0.0 0.0
356 1 37.176811803278696 25.91097967213115 5.25065107204e-05 0.0 0.0 0.0
357 1 39.85585639344263 26.240236721311476 6.75607381293e-05 0.0 0.0 0.0
358 1 42.551613770491805 26.347026885245903 4.2534434837e-05 0.0 0.0 0.0
359 1 45.21066360655738 26.53162491803279 5.71802064248e-05 0.0 0.0 0.0
360 1 47.74525114754099 26.294919344262297 1.67775654003e-05 0.0 0.0 0.0
361 1 50.41515672131148 25.759150819672133 1.24312290125e-05 0.0 0.0 0.0
362 1 53.13050491803279 25.88088655737705 5.92572432808e-05 0.0 0.0 0.0
363 1 55.75456393442624 26.103807868852464 5.69546442408e-05 0.0 0.0 0.0
364 1 58.50182295081968 26.19009836065574 3.03129380896e-05 0.0 0.0 0.0
365 1 61.28897049180328 26.034836065573774 4.91450025813e-05 0.0 0.0 0.0
366 1 63.95847213114755 26.114461639344263 2.13553574065e-05 0.0 0.0 0.0
367 1 66.6628131147541 26.351874098360657 9.09188292495e-05 0.0 0.0 0.0
368 1 69.44087213114754 26.135516721311475 8.98393330215e-05 0.0 0.0 0.0
369 1 72.29466885245903 26.155713442622954 3.6702122005e-05 0.0 0.0 0.0
370 1 74.73291803278688 26.09431540983607 7.99063146583e-05 0.0 0.0 0.0
371 1 77.45644590163936 26.091235409836067 7.26104045515e-05 0.0 0.0 0.0
372 1 79.89469508196723 26.315822950819676 5.50285209175e-05 0.0 0.0 0.0
373 1 1.2037700327868854 28.524031475409842 8.32956882394e-05 0.0 0.0 0.0
374 1 3.9618443934426235 28.810723934426232 6.0939069163e-05 0.0 0.0 0.0
375 1 6.670472131147542 28.67530491803279 1.26334217896e-05 0.0 0.0 0.0
376 1 9.215460983606558 28.413353442622956 3.50438860156e-05 0.0 0.0 0.0
377 1 11.970041311475411 28.288487213114756 4.86738696601e-05 0.0 0.0 0.0
378 1 14.731337049180329 28.490252459016396 7.77933069385e-06 0.0 0.0 0.0
379 1 17.347973770491805 28.683535081967218 8.13123934372e-05 0.0 0.0 0.0
380 1 20.034238688524592 28.583056393442625 4.27928003678e-06 0.0 0.0 0.0
381 1 22.877028196721312 28.587045245901642 3.92370532955e-05 0.0 0.0 0.0
382 1 25.421461639344265 28.921906885245903 9.41319827464e-05 0.0 0.0 0.0
383 1 27.94145704918033 28.550741639344263 6.77166271386e-05 0.0 0.0 0.0
384 1 30.81560196721312 28.396287213114757 8.81861289975e-05 0.0 0.0 0.0
385 1 33.2810662295082 28.52327409836066 6.11974460145e-05 0.0 0.0 0.0
386 1 35.82620655737705 28.260363278688526 6.41490797782e-05 0.0 0.0 0.0
387 1 38.40366163934427 28.382502950819674 2.8947435579e-06 0.0 0.0 0.0
388 1 41.036253770491804 28.573765901639344 6.30542227519e-05 0.0 0.0 0.0
389 1 43.72171081967214 28.72332262295082 1.7101922138e-05 0.0 0.0 0.0
390 1 46.46341573770492 28.789517377049183 6.10086306782e-05 0.0 0.0 0.0
391 1 50.01526163934427 28.05425573770492 7.74525111711e-05 0.0 0.0 0.0
392 1 51.55465573770493 28.041127868852463 1.25150724466e-05 0.0 0.0 0.0
393 1 54.2004262295082 28.303584262295082 2.44621094777e-05 0.0 0.0 0.0
394 1 56.95475409836066 28.356247213114756 2.93247473093e-06 0.0 0.0 0.0
395 1 59.6944393442623 28.283286557377053 4.4794192512e-05 0.0 0.0 0.0
396 1 62.441193442622954 28.42739016393443 2.26738959776e-05 0.0 0.0 0.0
397 1 65.35911475409836 28.581036721311477 7.4662691018e-06 0.0 0.0 0.0
398 1 68.0639606557377 28.410980327868856 3.52158664978e-05 0.0 0.0 0.0
399 1 70.84908852459017 28.27980262295082 6.704875214e-05 0.0 0.0 0.0
400 1 74.49308196721312 28.398862295081972 7.76990124727e-05 0.0 0.0 0.0
401 1 76.01793442622952 28.28106491803279 6.18895114272e-05 0.0 0.0 0.0
402 1 78.57584918032788 28.64596918032787 6.03562524349e-06 0.0 0.0 0.0
403 1 81.19586885245903 28.729785573770496 1.49760793285e-05 0.0 0.0 0.0
404 1 82.42281967213115 30.91209180327869 7.33692248785e-05 0.0 0.0 0.0
405 1 2.5706386885245904 30.885684590163937 9.77691379181e-05 0.0 0.0 0.0
406 1 5.350868852459017 31.027162622950822 8.58605776917e-05 0.0 0.0 0.0
407 1 7.953468852459017 30.956575081967216 6.24938076535e-05 0.0 0.0 0.0
408 1 10.568489836065575 30.552388196721314 9.99863767302e-05 0.0 0.0 0.0
409 1 13.20971606557377 30.58379409836066 4.96084464053e-06 0.0 0.0 0.0
410 1 15.846751475409837 30.950970491803282 1.9867792814e-05 0.0 0.0 0.0
411 1 18.754978360655738 30.95036459016394 4.93003455448e-05 0.0 0.0 0.0
412 1 21.526675409836066 30.70411606557377 4.43602971833e-05 0.0 0.0 0.0