# input file

2232 atoms
1 atom types

0.0 82.68810555352132 xlo xhi
0.0 83.16 ylo yhi
-10.0 10.0 zlo zhi
0.0 0.0 0.0 xy xz yz

Masses

1 12.0100 #C

Atoms

1 1 1.6574035409836068 0.5883001967213116 5.249177128594326e-05
2 1 4.321366229508198 0.44156243278688534 4.465639641916819e-07
3 1 6.5785265573770495 1.8023301639344265 4.62869415986005e-05
4 1 9.376782295081968 0.7949833442622952 9.100594826449884e-05
5 1 12.106722622950821 0.6993619672131148 2.215908589075837e-05
6 1 14.823939016393444 0.7891010491803279 5.544857828688351e-05
7 1 18.264904918032787 0.6566812459016395 8.157389765578096e-05
8 1 19.78804065573771 0.5777625573770492 6.353596213494491e-05
9 1 22.371958688524593 0.6467394098360656 8.979231375500975e-06
10 1 24.963753442622956 0.8309183606557378 8.754991150493486e-05
11 1 28.712163934426233 0.5081848524590165 6.341831653896744e-05
12 1 30.26766491803279 0.6157071475409837 3.211097778898011e-05
13 1 32.76726163934426 0.8190477377049181 8.517517202854715e-05
14 1 35.51866098360656 0.8437584262295083 1.906458778451392e-05
15 1 38.35327081967213 0.9263074754098362 3.97057859592558e-05
16 1 41.15798950819673 0.9254844590163935 3.8001244264721626e-06
17 1 43.96826229508197 1.0288563278688525 7.04514958586301e-05
18 1 46.96459737704919 0.804268786885246 7.649515722664044e-05
19 1 49.75639016393443 0.4088068852459017 3.5625520348961624e-05
20 1 52.3448524590164 0.5460739016393443 5.348624984871892e-05
21 1 54.90428196721312 0.7986389508196722 7.626097158959444e-06
22 1 57.563685245901645 0.950104262295082 6.759753645885452e-05
23 1 60.21652459016394 0.7371298360655738 3.951464475488732e-05
24 1 62.86330491803279 0.7843952131147541 3.3488905644161025e-05
25 1 65.52876721311476 0.8525490491803279 2.942706583486865e-06
26 1 68.2033180327869 0.9453479344262296 4.459511039691644e-06
27 1 70.91371803278689 0.9613285901639345 6.195863466550204e-05
28 1 73.59533770491804 0.8334782950819672 7.786945775204004e-05
29 1 76.24514754098361 0.698468262295082 7.076442670328581e-05
30 1 78.8944524590164 0.6085726557377049 5.349619984173371e-05
31 1 81.59020983606558 0.5686740327868853 2.740375971181465e-05
32 1 0.30668216393442627 2.8095709508196722 7.294797587337041e-05
33 1 3.098843540983607 2.8510752131147545 2.924630944640633e-05
34 1 5.754449836065574 3.1187575081967216 3.415578592681541e-05
35 1 8.215723278688525 3.273595672131148 2.591114236595812e-05
36 1 10.770507540983607 3.047064196721312 8.976425425221694e-05
37 1 13.33766229508197 3.049987672131148 3.327574759807368e-05
38 1 15.88744786885246 3.334973508196722 7.35448632693385e-05
39 1 18.446372459016395 3.25326262295082 9.250123106120688e-05
40 1 21.17969573770492 2.945030360655738 1.2378223101556918e-05
41 1 23.450160655737708 4.205926819672132 3.457414960809591e-06
42 1 26.217262950819674 3.265628065573771 8.572470371924421e-05
43 1 28.819862950819676 4.3520299016393444 6.604499666805723e-05
44 1 31.438872786885252 3.271030688524591 3.306559169429794e-05
45 1 34.18259737704918 3.085089573770492 7.278200147174025e-05
46 1 37.0379593442623 3.0159259016393443 5.378185697357379e-05
47 1 39.84192065573771 3.078278229508197 8.213674423531434e-05
48 1 42.599076065573776 3.1060234754098364 7.852872158858014e-05
49 1 44.80799147540984 2.3235822950819673 9.631611741625576e-05
50 1 48.59997639344263 2.686446688524591 1.6819267094670087e-05
51 1 51.13607868852459 2.820361049180328 2.3505057506205353e-05
52 1 53.612701639344266 3.0452919344262295 3.140086963295419e-05
53 1 56.244334426229514 3.1763888524590165 7.56107951370996e-05
54 1 58.9360524590164 3.159595278688525 2.9372307104120945e-05
55 1 61.59747540983607 3.1082148196721313 1.1265496514609197e-05
56 1 64.24930491803279 3.1496281967213116 2.6835023125851823e-05
57 1 66.90113442622952 3.211712918032787 7.298859131273861e-06
58 1 69.58578360655738 3.2326013770491806 3.216878768185371e-05
59 1 72.28961967213115 3.1929653114754104 5.947726868281287e-05
60 1 74.96972459016395 3.088517967213115 2.8072955117641764e-05
61 1 77.61953442622952 2.98144 9.534164877090906e-05
62 1 80.2653049180328 2.8740439344262296 4.765179668762445e-05
63 1 1.5785656393442626 5.013866360655737 7.150997035600193e-05
64 1 4.151451213114755 5.331227540983607 9.204556299703299e-05
65 1 6.73596 5.6297350819672145 9.770978272589519e-05
66 1 9.41283344262295 5.537789508196722 3.5918064633079885e-05
67 1 12.024976393442625 5.44892393442623 9.18860740651075e-05
68 1 14.630757377049182 5.56444918032787 7.519077151996409e-05
69 1 17.309398032786884 5.661494426229509 7.736873170679514e-05
70 1 19.97884918032787 5.383587540983608 6.155713485470571e-06
71 1 22.691420327868855 5.547231475409837 2.0829998688092524e-05
72 1 25.248931147540986 5.702241311475411 8.230553516386692e-05
73 1 28.008964590163934 5.663918032786886 8.372514252693153e-05
74 1 30.487960655737705 6.032255737704919 3.5248317946840804e-05
75 1 33.21128655737705 5.417568524590164 6.622281493825006e-05
76 1 35.95349639344263 5.129512786885247 7.318244273512535e-05
77 1 38.65667606557378 5.194748196721312 8.080550210741657e-05
78 1 41.42791868852459 5.2792209836065584 7.211806150323886e-06
79 1 44.22672983606557 5.195303606557378 1.2586889208822005e-05
80 1 47.88183147540984 4.878457442622952 8.71410312522782e-05
81 1 49.41930688524591 5.0571075409836075 8.278766084759018e-05
82 1 52.07724590163935 5.349152131147541 5.9098653136266014e-05
83 1 54.80683278688525 5.437967213114755 5.328078761135491e-05
84 1 57.54197377049181 5.460335081967213 8.61344917183598e-05
85 1 60.26954098360656 5.457860983606558 1.5071503355203242e-06
86 1 62.972367213114765 5.468413770491804 3.545074268367162e-05
87 1 65.64186885245903 5.518451147540984 2.2089603108857392e-05
88 1 68.28612459016394 5.52865049180328 4.352622062630751e-05
89 1 70.9904655737705 5.498102950819672 7.705346854687218e-05
90 1 73.71752786885246 5.440895737704919 4.33448650315298e-05
91 1 76.35976393442624 5.361522622950821 3.6003414178905495e-05
92 1 78.99442622950819 5.258418360655739 7.851472998506838e-05
93 1 81.59071475409837 5.088866885245902 5.164599511586811e-05
94 1 0.42895967868852464 7.313232786885247 3.3826117457842454e-05
95 1 2.550290491803279 8.758914098360657 1.2078938583830545e-05
96 1 5.334004590163935 7.867228852459018 3.5451170293220093e-06
97 1 8.03733573770492 7.887324590163935 8.832035546067817e-05
98 1 10.705070163934426 7.84900131147541 9.478706305293158e-05
99 1 13.342761967213116 7.862937049180328 9.970374199209937e-05
100 1 15.996106229508197 7.907319344262296 8.721376498813601e-05
101 1 18.651015737704917 7.825371147540984 6.748114641974925e-05
102 1 21.22862229508197 7.756348852459017 3.200523134580164e-05
103 1 23.786082622950822 7.980380983606558 6.324985317695696e-05
104 1 26.332030819672134 7.860210491803279 4.398819613301011e-05
105 1 28.925289836065577 8.217793442622952 8.17068530349967e-05
106 1 31.253012459016396 7.393666229508198 2.0124576357882884e-05
107 1 34.8566124590164 7.434261639344262 7.03814134440129e-05
108 1 37.39059409836066 7.4085108196721325 6.172223374761086e-05
109 1 40.054087213114755 7.4326459016393445 5.474344856652012e-05
110 1 42.72050885245902 7.430676721311476 2.3903243390828343e-05
111 1 45.28079672131148 7.618203278688525 9.3093554865307e-05
112 1 47.80356918032787 7.51525049180328 8.167536686090287e-05
113 1 50.58571803278689 7.5257527868852465 2.0163567881270396e-05
114 1 53.34610491803279 7.65460786885246 7.895870524120567e-05
115 1 56.1024524590164 7.706361967213116 7.6035606844672e-05
116 1 58.86132459016394 7.725700327868854 9.801678675612902e-06
117 1 61.6383737704918 7.755137049180329 7.571450371103607e-05
118 1 64.38411803278689 7.817645901639345 2.0002298069887338e-05
119 1 67.0556393442623 7.8728839344262305 9.137252631304545e-05
120 1 69.67363934426231 7.801438032786886 6.6716285783612e-06
121 1 72.48199344262295 7.724892459016394 2.1716048170404846e-05
122 1 75.17421639344262 7.736657049180328 1.4855269386093284e-05
123 1 77.75434754098362 7.648548852459017 8.296258889240122e-05
124 1 80.51019016393444 7.524490491803279 2.365252234499167e-05
125 1 1.765142950819672 10.09437180327869 7.931611824154413e-05
126 1 4.228562295081968 10.318 5.35700996913729e-05
127 1 6.791450491803279 10.171876721311477 6.217458023565574e-05
128 1 9.409248524590165 10.18404524590164 9.676299590357847e-05
129 1 12.049868852459017 10.192123934426231 4.365196313113587e-05
130 1 14.699274754098363 10.207776393442623 4.9472949592165605e-05
131 1 17.34731737704918 10.192022950819673 3.9383559953037706e-05
132 1 19.959763278688527 10.175764590163936 7.530651912109107e-05
133 1 22.525908196721314 10.244786885245903 2.8446343413592315e-06
134 1 25.093113442622954 10.300075409836067 7.20752402140652e-06
135 1 27.633760000000002 10.320423606557378 1.967796649979837e-05
136 1 29.788851147540985 9.473979016393445 3.612781121395436e-05
137 1 33.400378360655736 9.678016393442624 6.340951908275286e-05
138 1 35.95622295081968 9.784958032786886 3.365430661545098e-05
139 1 38.596287868852464 9.695183606557377 3.138981221669446e-06
140 1 41.32375409836066 9.721843278688526 5.346138124789225e-05
141 1 43.90640983606558 9.894020327868855 9.328392508420643e-05
142 1 46.574699672131146 9.961982295081969 1.8237202122331e-05
143 1 49.220167213114756 9.762640655737707 3.297697144080736e-05
144 1 51.935363934426235 9.837721967213115 2.7233787132450282e-06
145 1 54.67807868852459 9.926940983606558 9.665696539100752e-05
146 1 57.41271475409836 9.955721311475411 3.4773360248583745e-05
147 1 60.214504918032794 9.959407213114755 1.6281884546599736e-05
148 1 63.05668852459017 10.039234754098361 3.211232825702514e-05
149 1 65.8120262295082 10.17596655737705 7.457791951834844e-05
150 1 68.49516065573772 10.218177704918034 3.510101064409433e-05
151 1 71.2020262295082 9.921790819672132 2.1865632692496472e-05
152 1 73.95988852459018 10.021663606557377 2.6054079055151926e-05
153 1 76.5652655737705 10.096139016393444 5.0912971536891894e-05
154 1 79.20548196721312 9.805255737704918 2.0918755866272742e-05
155 1 81.87447868852459 9.795712786885247 1.317906799470312e-05
156 1 0.09037679344262296 12.314294426229509 8.667632562525373e-05
157 1 2.7399780983606563 12.624162622950822 2.513372025244892e-05
158 1 5.4292321311475416 12.612650491803281 4.738335005466332e-05
159 1 8.081768524590165 12.531459672131149 8.139915864544247e-05
160 1 10.736779016393443 12.522926557377051 9.137787221217255e-05
161 1 13.399060327868852 12.527369836065576 1.649145296395207e-05
162 1 16.061240655737706 12.530096393442623 5.112814340111258e-05
163 1 18.711000000000002 12.540396721311478 8.734664722731989e-05
164 1 21.341269508196724 12.590282622950822 2.2559402861626768e-05
165 1 23.96583344262295 12.642592131147543 5.987968243814228e-05
166 1 26.615441311475415 12.665060983606558 9.463531236952724e-05
167 1 29.30362491803279 12.348426885245901 1.964262805744156e-05
168 1 31.941922622950823 11.896878688524591 9.239941308826667e-05
169 1 34.56562819672131 12.108843278688525 9.745524155394954e-05
170 1 37.12147278688525 12.027803934426231 2.6329867594527757e-05
171 1 39.791630819672136 11.9158131147541 7.848127819187951e-05
172 1 42.39034295081967 12.160748852459017 7.658996739321177e-05
173 1 45.161535081967216 12.223560655737707 4.87339364857893e-05
174 1 47.82472524590164 12.182763278688526 6.756525795322408e-05
175 1 50.48584524590165 12.080870819672134 5.7522764547522645e-05
176 1 53.25824918032787 12.14292524590164 6.621189705708247e-05
177 1 55.97824262295082 12.21225049180328 6.319770944440307e-05
178 1 58.754786885245906 12.151508852459017 5.040594422528506e-05
179 1 61.60605901639345 12.14136 3.651761415153573e-05
180 1 64.42198688524591 12.3624131147541 9.007149658408028e-05
181 1 67.0824 12.550848524590165 9.25081757981377e-05
182 1 70.7748655737705 12.10520786885246 5.4219444574901514e-05
183 1 72.32900327868853 12.160142950819674 6.082263051114968e-05
184 1 75.06161967213116 12.442240655737706 1.840894180595125e-05
185 1 78.68036721311476 12.106571147540985 2.035153430269501e-05
186 1 80.22642622950819 12.066076721311475 8.434174604743844e-05
187 1 1.2841327868852461 14.78642360655738 4.5228507447360405e-05
188 1 4.002242885245902 14.904220983606558 7.997834487233491e-05
189 1 6.7148544262295085 14.889931803278689 7.497676544583085e-05
190 1 9.403088524590165 14.851305573770492 9.609283851055625e-05
191 1 12.08289049180328 14.843479344262297 2.2992499631851404e-05
192 1 14.760622295081967 14.84721573770492 8.544155723385331e-05
193 1 17.43779868852459 14.862868196721312 4.884806908411217e-05
194 1 20.113005901639347 14.903110163934427 2.4744940198013532e-05
195 1 22.786445901639347 14.953400000000002 7.852348782051262e-05
196 1 25.453422950819675 14.965114098360658 6.849276459158485e-05
197 1 28.104444590163936 14.780162622950822 2.1571839236223936e-05
198 1 30.745216393442625 14.447825573770494 1.46630190527003e-05
199 1 33.38714950819673 14.351992131147542 6.133762035006411e-05
200 1 36.054631475409835 14.445502950819673 1.940655926636471e-05
201 1 38.64253836065574 14.221470819672133 9.536524089825918e-05
202 1 40.91113508196722 15.469224262295084 8.91566452043573e-05
203 1 43.67470295081967 14.38753836065574 8.720142703915452e-05
204 1 46.40580459016394 14.525885901639345 6.072298570164108e-05
205 1 49.04778819672132 14.449441311475411 6.56967112154865e-05
206 1 51.67381639344263 14.31780918032787 4.4517745306405365e-05
207 1 54.387750819672135 14.452066885245902 6.61659870731547e-05
208 1 57.5076393442623 14.399302950819674 4.3983478076493014e-05
209 1 60.273075409836075 14.26393442622951 8.782538841059873e-05
210 1 62.82947540983607 14.40142360655738 1.769571885792858e-05
211 1 65.42424918032788 14.79748131147541 2.3689286294513836e-05
212 1 68.25532459016395 14.972334426229509 1.4508619319894944e-05
213 1 70.81879344262296 14.622880655737706 8.056764604324962e-05
214 1 73.50647213114755 14.588899672131149 2.7108789869098484e-06
215 1 76.05125901639346 14.897455081967214 4.849100246749584e-05
216 1 78.56625573770492 14.779960655737705 9.801430249519156e-05
217 1 81.29483278688525 14.621921311475411 2.1222486726112712e-06
218 1 82.64346885245902 17.032248524590166 9.10170265410704e-05
219 1 2.6286184262295085 17.12520393442623 9.464648151614349e-05
220 1 5.339760655737705 17.17256524590164 7.912315174046762e-05
221 1 8.055058360655739 17.16574885245902 8.011371638319549e-05
222 1 10.755158032786886 17.15171213114754 8.907822036886725e-05
223 1 13.440665573770492 17.151308196721313 6.596936887118385e-05
224 1 16.129505573770494 17.160800655737706 9.965466279395732e-05
225 1 18.83268524590164 17.188116721311477 5.267788484446995e-05
226 1 21.54848786885246 17.23224655737705 3.0370138136948324e-05
227 1 24.263735081967216 17.268802622950822 3.9017555516410375e-05
228 1 26.936064262295083 17.20028524590164 5.444926912898236e-05
229 1 29.504733770491807 16.942070163934428 2.7828465956886606e-05
230 1 32.208317377049184 16.73177180327869 8.523089353939864e-05
231 1 34.85237114754099 16.714756065573773 9.896963276336785e-05
232 1 37.51303672131148 16.711474098360657 3.6252570386110073e-06
233 1 40.28438032786886 16.870018360655738 3.7658514704616274e-05
234 1 42.85643278688525 16.740860327868855 2.9095436449486403e-05
235 1 45.10735737704918 17.900657049180328 9.160883170206889e-05
236 1 47.8189186885246 16.831695081967215 8.783894239996092e-05
237 1 50.45984196721312 16.719199344262297 5.508456684844493e-05
238 1 53.03305573770493 16.615287213114755 4.78507386065867e-05
239 1 55.18299672131148 15.76657049180328 7.920283171555852e-05
240 1 58.93049836065574 16.48855278688525 6.0279736088961834e-05
241 1 61.5500131147541 16.700365901639348 4.7729879437531746e-05
242 1 63.928177049180334 16.90112131147541 3.508187379329926e-05
243 1 65.96400655737706 16.2479593442623 8.683589962486641e-05
244 1 69.59941639344262 17.101472786885246 2.8298706653004893e-05
245 1 72.26235409836066 16.91091672131148 6.005072662503024e-05
246 1 74.72938360655738 17.137675409836067 2.1318156004499536e-05
247 1 77.36556065573771 17.24921180327869 8.232569753953822e-05
248 1 80.01032131147541 17.003872131147542 1.1505706510626035e-05
249 1 1.321012 19.40445442622951 9.409108890518697e-05
250 1 3.99800662295082 19.433790163934425 6.616161032770297e-05
251 1 6.7128347540983615 19.443888524590164 7.12077148492952e-05
252 1 9.430455081967214 19.44484786885246 9.382193484947876e-06
253 1 12.117729836065577 19.451664262295083 2.3904889301868982e-05
254 1 14.794603278688525 19.453078032786888 9.660326965912298e-05
255 1 17.49788393442623 19.457420327868856 8.822623939898382e-05
256 1 20.235095081967216 19.48135344262295 4.161294503455463e-05
257 1 22.992452459016395 19.52417049180328 3.865326188764282e-05
258 1 25.744053770491806 19.554920000000003 7.355829496878187e-05
259 1 28.41012196721312 19.4741331147541 9.069157962004723e-05
260 1 31.00040196721312 19.09377836065574 2.522617821959884e-05
261 1 33.63072196721312 19.05596 1.8392348562114213e-05
262 1 36.147283934426234 19.051567213114755 6.22176665592935e-05
263 1 38.811080000000004 19.019000000000002 3.688021876749407e-05
264 1 41.57252721311476 19.16689049180328 4.599682109357006e-06
265 1 44.332207213114756 19.2270262295082 4.6936174397673494e-05
266 1 46.82231147540984 19.334624262295083 1.196770400359275e-05
267 1 49.39537377049181 19.088173770491803 8.656021574289345e-05
268 1 52.0212 19.0175862295082 2.6275127124544186e-05
269 1 54.75028196721312 18.64914754098361 3.940595277295787e-05
270 1 57.4268524590164 18.549779672131148 5.7338821964901226e-05
271 1 60.1064524590164 18.877219016393443 2.5265948712062627e-05
272 1 62.725967213114764 19.292362622950822 3.6164143894520805e-05
273 1 65.33184918032786 19.188450491803284 1.9930056421771027e-05
274 1 67.94025573770492 19.17451475409836 1.3118185441525133e-05
275 1 70.6824655737705 19.23783147540984 9.380563024969626e-05
276 1 73.30652459016395 19.488523278688525 2.6085240455196914e-05
277 1 75.99268852459016 19.538358688524593 9.882434717315889e-05
278 1 78.71571147540985 19.460954754098363 2.757978539812416e-05
279 1 81.37158032786886 19.384611147540983 1.877820286601678e-05
280 1 0.06984127213114755 21.752424262295083 8.576492666427133e-05
281 1 2.6952575081967214 21.73763016393443 6.289744156280941e-06
282 1 5.391716721311476 21.71647409836066 7.335777763330472e-05
283 1 8.128776393442624 21.713444590163938 1.6437389705830332e-05
284 1 10.813021639344264 21.74651672131148 2.212827488785536e-05
285 1 13.466365901639346 21.761765245901643 2.7017134608562644e-05
286 1 16.134655737704918 21.739245901639347 3.8820933194324025e-05
287 1 18.853740327868856 21.720816393442625 1.468938043925815e-05
288 1 21.621448524590168 21.73858950819672 9.232474145678352e-05
289 1 24.390873442622954 21.792817704918033 9.47034448704969e-05
290 1 27.11950098360656 21.868605901639345 8.203145460838779e-07
291 1 30.622420327868856 21.42483344262295 9.894247644756818e-05
292 1 32.168933770491805 21.3868131147541 6.585578642243242e-05
293 1 34.758607868852465 21.496632786885247 8.330314020859416e-05
294 1 37.36358098360656 21.355104262295082 4.620088839903092e-06
295 1 40.143861639344266 21.308500327868856 5.827733684757469e-05
296 1 42.85936131147541 21.41539147540984 8.768842340130458e-05
297 1 45.44999475409836 21.68481573770492 6.307125967971292e-05
298 1 48.00619278688525 21.54308524590164 6.623807066211511e-05
299 1 50.566531147540985 21.383430163934428 7.409772415388129e-05
300 1 53.78538360655738 21.021858360655738 8.336412197703092e-06
301 1 56.535167213114754 20.842612459016397 5.336537321298667e-05
302 1 59.01582950819673 20.921935081967217 5.55350317496541e-05
303 1 61.25665573770492 22.521262950819676 9.724467716750209e-05
304 1 64.0645049180328 21.63124393442623 6.822033940336593e-05
305 1 66.7900524590164 21.554748852459017 7.223227163826866e-05
306 1 69.47217704918035 21.41226098360656 6.735899370219778e-05
307 1 71.82004590163936 22.73156131147541 9.42816509545551e-05
308 1 74.65718032786887 21.83916918032787 5.556017459579976e-05
309 1 77.41352786885246 21.784183606557377 5.5921767403597525e-05
310 1 80.1113049180328 21.7618662295082 8.17506404563196e-05
311 1 1.4775971803278691 24.113017049180332 6.177203224499328e-06
312 1 4.082969180327869 24.02208131147541 8.373687226244694e-05
313 1 6.862997377049181 23.95987540983607 7.20354104917357e-05
314 1 9.541688524590166 24.027483934426233 7.807757953499271e-05
315 1 12.156356065573773 24.084893114754102 9.432164407221189e-05
316 1 14.79445180327869 24.06792786885246 6.865868252137894e-05
317 1 17.450371147540984 23.99633049180328 5.4378749574993316e-05
318 1 20.18258360655738 23.94735344262295 8.442930044487037e-05
319 1 22.967812459016397 23.99067540983607 8.950056576235134e-05
320 1 25.64261573770492 24.11236065573771 7.318462667260313e-05
321 1 28.17270950819672 24.33508 2.920597229491928e-06
322 1 30.68538360655738 24.12346885245902 2.4736115943398706e-05
323 1 33.45001180327869 23.865253770491805 5.10758260057832e-05
324 1 36.14834426229508 23.8169331147541 2.0086669175247295e-05
325 1 38.80320327868853 23.51630491803279 5.4727661604157466e-05
326 1 41.52556983606558 23.613552131147543 8.929066043974389e-05
327 1 44.14569049180328 23.890802622950822 8.667317650818075e-05
328 1 46.80489180327869 23.983101639344266 5.7993018680047274e-05
329 1 49.40592655737706 23.81612524590164 9.35886470935529e-05
330 1 51.49659016393443 22.59270885245902 3.679262109084055e-05
331 1 55.22036065573771 23.105503606557377 3.6217703075660146e-05
332 1 57.863606557377054 23.33599868852459 8.334191838070795e-05
333 1 60.43717377049181 23.830313442622952 9.362680586068747e-05
334 1 62.924400000000006 24.06919016393443 4.299073270164278e-05
335 1 65.53331147540983 23.8846931147541 7.337495099917202e-06
336 1 68.21594098360657 23.824961311475413 6.788816354147043e-05
337 1 70.98541639344263 24.03132131147541 1.1697427706751607e-05
338 1 73.55191475409836 24.22384655737705 1.954748609604864e-05
339 1 76.20121967213116 24.060556065573774 1.0274734110203165e-05
340 1 78.86567213114755 24.077016393442626 9.267131275137366e-05
341 1 81.52356065573771 24.106402622950824 4.875973288208857e-05
342 1 0.21952119344262297 26.468156721311477 6.401811262836507e-05
343 1 2.948367868852459 26.452403278688525 2.6232267531328138e-05
344 1 5.627765901639345 26.174092459016393 9.552744913608939e-05
345 1 8.308476721311477 26.287194098360658 1.5550088027442444e-05
346 1 10.843468196721313 26.41958360655738 1.8857227812981705e-05
347 1 13.468183606557378 26.42256262295082 9.278816241288302e-05
348 1 16.129101639344263 26.358640000000005 8.303547245795498e-05
349 1 18.752504262295083 26.216960000000004 8.189288677623688e-05
350 1 21.522484590163938 26.154552131147543 5.785086149224753e-05
351 1 24.285345573770496 26.355963934426235 1.903702769922311e-06
352 1 26.871737704918036 26.635284590163938 9.777531062424943e-05
353 1 29.527253114754103 26.637203278688528 4.76309874292556e-05
354 1 32.185242622950824 26.25599016393443 6.63001894415886e-05
355 1 34.87458754098361 26.183433442622952 7.787984221454639e-05
356 1 38.40679213114754 25.73890360655738 3.9122921485742525e-05
357 1 39.95128590163935 25.776469508196726 4.582187972171183e-05
358 1 42.645225573770496 26.067857704918033 1.319924262364336e-05
359 1 45.477512786885256 26.249173770491808 8.308056968063993e-06
360 1 48.11091278688525 26.254323934426232 2.749950119910156e-05
361 1 51.80105573770493 25.277913442622953 3.0715932898125754e-05
362 1 53.32994754098361 25.091144262295085 8.179467659348627e-07
363 1 56.0176262295082 25.43438754098361 2.8368741048933832e-05
364 1 58.68056393442624 25.921986885245904 3.532834067022454e-05
365 1 61.3732918032787 26.35066229508197 8.016483268796043e-05
366 1 64.08571147540984 26.317287213114756 5.409593734218765e-06
367 1 66.76632131147542 26.175657704918034 5.6351756149610993e-05
368 1 69.44794098360657 26.169649180327873 6.175310422475834e-05
369 1 72.10986885245902 26.47881049180328 3.793633622256504e-05
370 1 74.82077377049181 26.442405901639347 2.0815054847945582e-05
371 1 77.53218360655738 26.39151016393443 7.334585181062816e-05
372 1 80.22491147540984 26.430893770491807 6.650236773245607e-05
373 1 1.549053180327869 28.75987868852459 2.698273954656716e-06
374 1 5.271394754098361 28.339080000000003 7.534478469556661e-05
375 1 6.8162924590163945 28.4978262295082 5.609617759653485e-06
376 1 9.44181573770492 28.77346098360656 8.01584265544753e-05
377 1 12.082739016393443 28.779822950819675 8.163172403181594e-05
378 1 14.835350163934427 28.715546885245903 8.142172052573961e-05
379 1 17.545194754098365 28.634659016393446 2.373234171840657e-05
380 1 20.118913442622954 28.370990819672134 9.410687738188822e-05
381 1 22.70419475409836 28.436428196721312 3.731227949927807e-05
382 1 25.252162622950824 28.854550819672134 6.360929798225143e-05
383 1 28.333980327868854 28.97128786885246 6.88119896878434e-05
384 1 30.954201967213116 28.75578885245902 3.202422428997925e-05
385 1 33.44460918032787 28.544733114754102 5.933670940862226e-05
386 1 36.06584065573771 28.58719672131148 9.777327150691693e-05
387 1 38.55528852459017 28.397095081967215 9.638001798431764e-05
388 1 41.22999081967214 28.21290098360656 5.0811897425572154e-05
389 1 43.98856 28.29570754098361 7.20255195588379e-05
390 1 46.715420327868856 28.63183147540984 4.546745325316669e-05
391 1 49.3515468852459 28.359074754098366 8.508176594632302e-05
392 1 51.91112786885247 27.915049836065574 7.309267947504717e-05
393 1 54.6548524590164 27.5214662295082 9.707895162217442e-05
394 1 56.92041967213115 28.95563540983607 5.197328950534952e-06
395 1 59.868131147540986 28.420826229508197 9.644355405381875e-05
396 1 62.62296393442623 28.621985573770495 8.912581377694421e-05
397 1 65.32881967213115 28.553872131147543 2.7387488645629355e-05
398 1 68.06749508196722 28.48353704918033 2.516146440271643e-05
399 1 70.69710819672132 28.620824262295084 6.178773106791634e-05
400 1 73.3539868852459 28.719434754098362 9.83312319984359e-05
401 1 76.03560655737706 28.67606229508197 2.7358723936561435e-05
402 1 78.7985180327869 28.713123278688528 7.975441003436833e-05
403 1 81.49074098360657 28.77886360655738 3.83684600662661e-05
404 1 0.12512373770491805 31.04907606557377 5.79674935991549e-05
405 1 2.805683081967213 31.046652459016396 2.4615025893167253e-05
406 1 5.318756065573771 30.899670819672135 7.888200000151427e-05
407 1 8.163363278688525 31.024284590163937 8.701309176213904e-05
408 1 10.725014426229508 31.15021114754099 2.325334095229724e-05
409 1 13.465204590163935 30.993484590163938 4.901696444421423e-05
410 1 16.337885245901642 30.949354754098362 4.72547132884561e-06
411 1 19.682310819672132 30.661349508196725 5.720430094043919e-05
412 1 21.21392918032787 30.723000000000003 4.74383568111646e-06
413 1 23.68833049180328 30.96450229508197 1.5061131398930372e-05
414 1 25.877301639344267 30.260141639344265 1.2026508975863238e-05
415 1 29.47625639344263 31.18171803278689 3.180737893789811e-05
416 1 32.3108662295082 31.102496393442625 8.172071433652375e-05
417 1 34.96885573770492 30.871142950819678 5.9150275439673065e-05
418 1 37.585290491803285 30.88679540983607 2.6552485668317438e-05
419 1 40.22661770491804 30.605960000000003 9.773030504751466e-05
420 1 42.87122688524591 30.443881311475412 2.2272739568387125e-05
421 1 45.17855081967214 31.835132459016396 7.426596427906318e-05
422 1 49.05369573770492 30.544158032786886 7.06289648126531e-05
423 1 50.61449836065574 30.446254426229512 6.252767926588763e-05
424 1 53.28854426229509 29.96128065573771 5.363644088232678e-06
425 1 56.025200000000005 30.211568524590167 1.135727363249539e-05
426 1 58.40134426229509 30.598891147540986 7.227694648494224e-05
427 1 61.07387540983607 30.78313573770492 1.7105174184472862e-05
428 1 64.1064131147541 30.891491147540986 6.715188373851677e-05
429 1 66.82085245901641 30.760919344262298 2.226542549370242e-05
430 1 69.38331147540984 30.893056393442627 8.934833071433212e-06
431 1 71.93466229508196 30.990152131147546 9.724183083852931e-05
432 1 74.50822950819673 30.98187147540984 5.156833109535592e-05
433 1 77.10451803278688 30.884220327868857 1.4435077487609006e-05
434 1 79.82148196721312 31.037109508196725 5.74364387189286e-05
435 1 1.445767147540984 33.28576196721312 3.2376550322837976e-05
436 1 4.055809639344263 33.35185573770492 7.78206223421006e-05
437 1 6.6514872131147555 33.115806557377056 6.357968504685286e-07
438 1 9.396878032786887 33.58240131147541 1.683902855507068e-05
439 1 12.38624524590164 33.32065180327869 8.251880421492687e-05
440 1 15.154811803278688 33.03820065573771 7.967279441141272e-05
441 1 17.46329704918033 33.46813836065574 9.837681507725575e-05
442 1 19.86842360655738 33.37508196721311 7.900144768667862e-05
443 1 22.520707540983608 33.2803593442623 7.57599354472903e-05
444 1 25.156632131147543 33.137921967213124 8.33205429298667e-05
445 1 27.77468262295082 33.119240000000005 8.744933899488939e-06
446 1 30.067717377049185 32.59417573770492 6.737179449069455e-05
447 1 33.687121311475416 33.25072065573771 9.409273221530604e-05
448 1 36.27583606557377 33.20992327868853 1.682437542975511e-05
449 1 38.9205462295082 33.06082098360656 2.5317858307710683e-05
450 1 41.56051016393443 32.89000721311476 4.140818987081971e-05
451 1 44.255459672131146 33.08051278688525 7.309966252498945e-06
452 1 46.68371147540984 33.55134885245902 3.371191616919229e-05
453 1 49.15210426229508 33.142819672131154 8.067229822290425e-05
454 1 52.759390163934434 32.34247409836066 4.342479332616566e-05
455 1 54.30191475409837 32.29410295081968 8.934216615179438e-05
456 1 56.83256393442624 32.83911147540984 3.270634197767494e-05
457 1 59.52428196721312 32.925099016393446 7.365178342125497e-05
458 1 61.77268196721312 32.15555344262295 7.13797133384309e-05
459 1 65.44141639344264 33.05324721311475 7.5450242958384545e-06
460 1 68.03568524590165 33.20936786885246 6.500280511359626e-05
461 1 70.58754098360657 33.34488786885246 2.579918706543205e-05
462 1 73.10506229508198 33.36872 7.342602257798555e-05
463 1 75.69377704918034 33.28096524590164 1.0461011769144336e-05