# input file

2232 atoms
1 atom types

0.0 82.68810555352132 xlo xhi
0.0 83.16 ylo yhi
-10.0 10.0 zlo zhi
0.0 0.0 0.0 xy xz yz

Masses

1 12.0100 #C

Atoms

1 1 1.3173715409836066 1.1811598032786885 6.70803033556404e-05
2 1 4.071956918032788 1.0712896393442626 1.438369503936472e-05
3 1 6.81644393442623 0.8699636721311476 8.261105827868294e-05
4 1 9.169311475409836 2.1080226885245903 2.9015437047555494e-05
5 1 11.675320655737707 0.9715329836065575 7.863893755663602e-05
6 1 14.070348852459016 0.4326839540983607 9.224471979465616e-05
7 1 16.90889704918033 0.3501904459016394 1.8879899527057875e-05
8 1 19.522857704918035 0.7056078032786886 7.494888460542915e-05
9 1 22.18882491803279 0.5609891803278689 2.6261689890481878e-05
10 1 24.882057704918036 0.4793611016393443 5.9546527318980394e-05
11 1 27.593720000000005 0.6154546885245902 1.2725503357969371e-05
12 1 30.367487213114757 0.805733049180328 3.799881877574396e-05
13 1 33.12565245901639 0.8700848524590165 2.4218307323098953e-05
14 1 35.82938754098361 0.7831935081967213 1.4989516123238701e-05
15 1 38.58366491803279 0.5921981639344263 2.943567574633308e-05
16 1 41.37374098360657 0.4279094491803279 1.789728606631087e-05
17 1 44.08560524590164 0.3727224131147541 2.0899804630979102e-05
18 1 46.749603278688525 0.4378371475409837 2.9213606248313174e-05
19 1 49.433091147540985 0.525796393442623 8.819750523305558e-05
20 1 52.16156721311476 0.55032531147541 5.605409347751457e-05
21 1 54.824504918032794 0.543276655737705 7.832489307448442e-05
22 1 57.4768393442623 0.723759606557377 3.0670287947108434e-05
23 1 60.37860327868853 0.7966394754098362 1.6501068515677232e-05
24 1 63.085468852459016 0.9638632786885246 6.21457467129644e-05
25 1 65.59541639344263 1.3077427540983608 5.1003394706823194e-05
26 1 68.26542295081967 1.2727771803278691 7.802078686658812e-05
27 1 70.99652459016394 0.7493185573770492 9.497353426628733e-05
28 1 73.8700131147541 1.1094361967213116 8.477513792830498e-05
29 1 76.41934426229508 1.4048081967213115 4.313845437456843e-06
30 1 79.01563278688525 1.5557281967213117 6.863513805754654e-05
31 1 81.40490491803278 1.5663365245901641 6.550771308155228e-05
32 1 0.20735569836065576 3.6885221639344263 4.877077082334646e-05
33 1 2.944969770491803 3.3197805245901644 3.564796394360175e-05
34 1 5.731375081967214 3.179999016393443 8.096377858628086e-05
35 1 8.486763278688525 3.502934491803279 7.486225647139434e-05
36 1 11.18231868852459 3.698100459016394 8.875692756263118e-05
37 1 14.165323934426231 2.7759939016393447 1.9734913588998426e-05
38 1 15.668363934426232 2.42997862295082 1.9021017949455066e-05
39 1 17.964276721311478 3.8930190163934433 1.8011654433745152e-05
40 1 20.797321311475415 2.973134098360656 9.996116294289747e-05
41 1 23.534027540983608 2.837356590163935 9.708660555342824e-05
42 1 26.21595016393443 2.8421331147540987 9.136726697232311e-05
43 1 28.90903147540984 2.931316786885246 3.75143766404199e-05
44 1 31.702894426229513 3.079469836065574 5.775110536482252e-05
45 1 34.420918688524594 3.1227413114754103 1.4820419029015875e-06
46 1 37.12823868852459 2.9171033442622956 1.509494260003097e-06
47 1 39.94765049180328 2.693273180327869 2.558212898374185e-05
48 1 42.73777704918033 2.6745003278688526 3.94308275898489e-05
49 1 45.3937468852459 2.727592459016394 8.989669997807445e-05
50 1 48.017099016393445 2.7930348852459015 5.008240439330236e-07
51 1 50.74779672131148 2.809808262295082 7.073485205534554e-05
52 1 53.447088524590164 2.8809714098360657 2.1140312861312416e-05
53 1 56.04236721311476 2.9514327213114755 9.18129998699212e-05
54 1 58.6972262295082 2.764360590163935 6.913622405754228e-06
55 1 61.473770491803286 3.1442659672131152 9.597326925720956e-05
56 1 64.26192786885247 3.636217704918033 5.898697652689298e-05
57 1 67.02685901639344 3.554325049180328 6.686763695092803e-05
58 1 69.69989508196723 3.1742782950819675 5.3203907555379195e-05
59 1 72.34970491803278 3.0164207213114755 4.3920177530404514e-05
60 1 74.95710163934427 3.631128131147541 5.101141494420111e-05
61 1 77.66649180327869 3.8766849180327876 7.184281467072443e-05
62 1 80.17946885245902 4.0606770491803275 3.0736773544982035e-05
63 1 2.009200131147541 5.658717377049181 4.846399752924361e-05
64 1 4.682720918032787 5.383335081967213 1.4861135573049156e-05
65 1 6.779433442622952 6.826340327868853 4.617674558225864e-05
66 1 9.556987540983608 5.890575737704919 7.981202715914825e-05
67 1 12.441180327868855 5.9822688524590175 8.305354143440925e-05
68 1 15.454076721311477 5.256752131147541 8.04934136795713e-05
69 1 17.029673442622954 5.126937704918033 8.057917944445467e-05
70 1 19.611420327868856 5.391615737704918 6.654637314691262e-05
71 1 22.304754098360657 5.173996065573771 7.823067106190446e-05
72 1 24.942445901639346 5.15708131147541 8.464805039461077e-05
73 1 27.52106229508197 5.192173114754099 1.5949553868602352e-05
74 1 30.127449180327872 5.194950163934427 9.119575254663228e-05
75 1 32.85183540983607 5.386718032786885 4.0161632058365425e-06
76 1 35.93744000000001 5.309465573770492 2.466636706021088e-05
77 1 38.62597704918033 4.943930163934427 1.8471850575309425e-06
78 1 41.29356000000001 4.863532065573771 6.78117656996954e-05
79 1 44.07737508196722 5.027761704918033 1.7894986617784102e-05
80 1 46.53779016393443 5.12012131147541 2.2172728326279302e-05
81 1 49.33412721311476 5.0639744262295086 2.943511924790502e-05
82 1 52.045436065573774 5.1385508196721315 1.8332622249192778e-05
83 1 54.72958032786886 5.298660327868853 4.120430083451309e-05
84 1 58.14484590163935 4.964167278688525 8.204698089360746e-05
85 1 59.67070819672132 5.013411934426229 1.5046209802410438e-05
86 1 61.96960000000001 4.59953062295082 7.002727304022028e-06
87 1 65.93573114754099 5.7597514754098365 6.499719096224088e-06
88 1 68.6845049180328 5.5885842622950825 5.077456841530673e-05
89 1 71.16718688524591 5.36924786885246 7.313388364702668e-05
90 1 73.24997377049182 6.795590819672132 5.949711428240289e-05
91 1 76.11437377049181 6.022409836065575 2.2589953489528493e-05
92 1 78.82426885245903 6.449873442622952 4.505232438778084e-06
93 1 81.92194098360656 6.080475409836066 5.980383480509899e-06
94 1 0.7180338360655738 7.989772459016394 5.500571490230003e-05
95 1 3.230359540983607 7.7993678688524595 6.154311713663689e-05
96 1 5.940714098360656 8.139531147540984 9.709196428479115e-05
97 1 8.547959344262296 8.355585573770494 9.722310867675954e-06
98 1 10.967779016393445 7.994569180327869 9.856230613432955e-05
99 1 13.584264262295083 8.384365901639345 8.726724196563487e-05
100 1 15.977121311475411 8.189619016393443 5.283739462291321e-05
101 1 18.494036721311478 7.624060327868854 4.768448892520237e-05
102 1 21.058666885245902 7.552462950819673 5.092962562631653e-05
103 1 23.751445245901643 7.503889836065574 6.989751998821819e-05
104 1 26.270733770491805 7.569781639344264 1.9657022755131182e-05
105 1 28.856116065573776 7.5556944262295085 8.333627368679397e-05
106 1 31.465229508196725 7.511918032786886 8.705179194821056e-06
107 1 33.6471318032787 6.705816393442624 3.444579570330799e-05
108 1 37.34999868852459 7.350041311475411 7.820864562549231e-05
109 1 39.81505901639345 7.1747337704918035 8.409543797494673e-05
110 1 42.41260983606558 7.0864236065573785 6.991184996421849e-05
111 1 44.99082229508197 7.565994754098361 5.8442843113384406e-05
112 1 47.96807147540984 7.270466229508197 8.309213202555262e-05
113 1 50.68720655737705 7.379023606557378 9.403876051698519e-05
114 1 53.21179672131148 7.518078032786886 8.059644367327031e-05
115 1 55.82828196721312 7.762003934426231 4.9495175858909594e-05
116 1 58.41598688524591 7.578718688524591 2.9657613628534864e-05
117 1 61.164760655737716 7.316464262295082 5.1520757658377485e-05
118 1 63.48839344262296 6.56120786885246 8.621402477415611e-05
119 1 67.30355409836066 7.849556721311477 8.74290240746487e-05
120 1 69.84379672131148 7.906814426229508 2.0676318566855036e-06
121 1 72.40625573770492 8.085151475409836 6.78913892176844e-05
122 1 74.79855737704918 8.315495081967214 2.5447904096316975e-05
123 1 77.37414426229509 8.455862295081968 9.993054701753029e-05
124 1 79.66293770491804 7.775889180327869 5.2934718230102886e-05
125 1 1.698054491803279 10.258621639344263 7.567342318923935e-05
126 1 4.1463565901639345 10.145419016393443 8.339576665363379e-05
127 1 6.308142950819672 9.628988852459017 2.322866877317209e-05
128 1 9.995205901639345 10.584697704918034 4.761897935207715e-06
129 1 12.354384918032787 10.415550163934427 5.671576453238926e-05
130 1 14.219350163934427 9.769305573770492 5.280741620661627e-05
131 1 17.55847409836066 10.250593442622952 3.6803805826715388e-06
132 1 19.842925245901643 9.974756721311476 7.062712530051241e-06
133 1 22.413412459016396 9.790461639344263 6.931492426897821e-05
134 1 25.0058131147541 9.980007868852459 3.7810132466259274e-05
135 1 27.656733770491808 9.945673442622953 4.4552936411537805e-05
136 1 30.366780327868856 9.869683278688525 6.983787640217691e-05
137 1 33.1263593442623 9.584202622950821 8.576259822257186e-05
138 1 35.898460327868854 9.526288524590166 6.950977159344064e-05
139 1 38.64218491803279 9.69079081967213 2.8036257582095004e-05
140 1 41.2359993442623 9.44287606557377 6.77373781589842e-05
141 1 43.60032852459017 10.689114754098362 6.087127152556984e-05
142 1 45.6873062295082 8.95401442622951 7.054734923129268e-05
143 1 49.04273901639345 10.750967213114755 8.606880977252507e-05
144 1 51.845488524590166 9.866502295081968 5.001762880989569e-06
145 1 54.56548196721312 9.949813770491804 8.11241894074693e-05
146 1 57.33596721311476 9.9938931147541 5.164888648020948e-05
147 1 60.09382950819673 9.679682622950821 9.800941978404688e-05
148 1 62.81028852459017 9.441108852459017 4.849229856697301e-05
149 1 65.60400000000001 9.728912131147542 4.2285439350956325e-05
150 1 68.26794754098361 10.247614426229509 1.9512351255374615e-05
151 1 70.81424918032788 10.361473442622952 7.045795770790398e-05
152 1 73.45345573770493 10.644782950819673 1.414947595661713e-05
153 1 76.05529836065574 10.692194754098363 3.053027072803023e-05
154 1 78.17544918032787 9.759813114754099 9.579423439738991e-05
155 1 81.81489836065575 10.163293114754099 9.24517364776286e-05
156 1 0.22822699016393447 12.577003278688526 7.578055775988229e-05
157 1 2.8956493770491805 12.648600655737706 4.1180188267853415e-06
158 1 5.447712131147542 12.443805901639346 4.9745383074375686e-05
159 1 8.202645901639345 12.511868852459019 1.2373310007339767e-06
160 1 12.196648524590165 12.643400000000002 3.257363641240221e-05
161 1 13.73028655737705 12.711361967213117 4.294015956724092e-05
162 1 16.155256393442624 12.715552786885247 1.2521236680935832e-05
163 1 18.77800262295082 12.664404590163937 3.0450582927176742e-05
164 1 21.32945442622951 12.221944918032788 5.194800726616511e-06
165 1 23.63319344262295 13.357000655737707 7.445396362005745e-05
166 1 26.461794754098364 12.30919475409836 1.8009180708347894e-06
167 1 29.13175081967213 12.19452786885246 8.136449081374813e-05
168 1 31.88385704918033 11.959387540983608 8.530364495130076e-05
169 1 34.65227213114754 11.792613114754099 8.748804138495253e-05
170 1 37.38342426229509 11.8572931147541 7.10011350517673e-05
171 1 40.119827540983614 11.926163934426231 7.396669068454529e-05
172 1 42.90308721311476 12.057745573770493 7.972843622538227e-05
173 1 45.490186229508204 11.911268852459017 5.638244802362892e-05
174 1 48.219318688524595 12.054463606557377 2.5980336241956114e-05
175 1 50.75940983606558 12.271426885245903 2.4735411964241782e-05
176 1 53.36933114754099 12.153932459016396 5.3832328791217934e-05
177 1 56.033783606557385 12.170948196721314 4.3578959465176114e-05
178 1 58.73105573770492 12.04588 4.2091539434771334e-05
179 1 61.39399344262296 11.874712786885247 3.206640834634842e-05
180 1 64.84712786885247 11.656891147540986 6.872039567760314e-05
181 1 66.3129049180328 12.167868196721313 6.714727560191682e-05
182 1 69.49035409836067 12.717521967213116 3.375932778830232e-05
183 1 72.22852459016394 12.778465573770493 6.343301209725738e-06
184 1 74.91165901639346 12.973515409836066 6.542296241371873e-05
185 1 77.62357377049182 12.677936393442623 1.9230226094527514e-05
186 1 80.25874098360657 12.300308196721312 1.9738333299962008e-05
187 1 1.5445089180327871 14.921337704918034 6.47158529633195e-06
188 1 4.25990255737705 14.942544262295083 5.776902095504255e-06
189 1 6.825179016393443 14.6662531147541 6.593241703498745e-05
190 1 9.446259016393444 14.867462950819673 5.820011127821189e-05
191 1 11.917883278688526 16.225995409836067 1.5841000886325274e-05
192 1 14.771579016393446 15.267761967213115 6.059958577245139e-06
193 1 17.465872131147545 15.085234098360656 4.9367997116965415e-05
194 1 20.229540983606558 14.844034754098363 4.26527364189228e-05
195 1 22.87490754098361 14.70740393442623 4.446591201336884e-05
196 1 25.420199344262297 14.65161049180328 1.0542625455684186e-06
197 1 28.02784852459017 14.588899672131149 2.693183086978708e-05
198 1 30.661803934426235 14.31816262295082 3.6880462855034335e-05
199 1 33.44895147540984 14.092918688524591 7.527256439204591e-05
200 1 36.15122229508197 14.088576393442624 3.0781324767813834e-05
201 1 38.7904793442623 14.165626885245903 1.5945813749152084e-05
202 1 41.440642622950826 14.21970360655738 5.729197743025985e-05
203 1 44.09136131147542 14.34133836065574 3.372426233375274e-05
204 1 46.71128000000001 14.251361967213116 6.639151821519216e-05
205 1 49.35220327868853 14.526289836065576 8.103963571122259e-05
206 1 52.054524590163936 14.533914098360658 5.5773784979670806e-05
207 1 54.703829508196726 14.459236721311477 8.318649326368002e-05
208 1 57.32132459016394 14.380873442622953 4.472389533127135e-05
209 1 59.87974426229509 14.260955409836066 3.924804610086085e-05
210 1 62.381108196721314 14.408139016393443 2.7035308537879854e-05
211 1 64.87792786885247 14.295693770491804 4.1916173290539494e-05
212 1 67.04503606557377 13.561845901639346 7.873725360242669e-05
213 1 70.80819016393443 14.946432131147542 5.948316037593256e-05
214 1 73.51859016393443 15.141481967213116 4.286218950322141e-05
215 1 76.23555409836065 15.072358688524591 9.800039054994141e-05
216 1 78.902531147541 14.829240655737706 6.886176484847708e-05
217 1 81.54224262295084 14.771629508196723 8.94070633341847e-05
218 1 0.16007820327868855 17.145198688524594 1.3728821692407634e-05
219 1 2.8468086557377053 17.20881836065574 2.0594955244858738e-05
220 1 6.464465573770493 16.93737442622951 6.179900248424002e-05
221 1 8.000527213114754 17.04598229508197 8.925665815779191e-05
222 1 10.749099016393442 17.25648262295082 1.9612122938126585e-05
223 1 13.39456655737705 17.740951475409837 3.9542343783300576e-06
224 1 16.273407213114755 17.54302360655738 1.6213571698924812e-05
225 1 19.065704918032786 17.216240655737707 3.0465147911238566e-05
226 1 21.728592131147543 17.145350163934427 3.191453514742804e-06
227 1 24.418290491803283 17.014475409836066 7.103862273706738e-05
228 1 26.9824662295082 17.882429508196722 8.677769917975492e-05
229 1 29.71094229508197 16.783071475409837 4.821268317181925e-05
230 1 32.32384262295082 16.366312131147545 3.0228849760787346e-05
231 1 34.988345573770495 16.359041311475412 6.201671820354927e-05
232 1 37.51434950819672 16.474819016393447 5.356717438673908e-05
233 1 40.11972655737705 16.53621704918033 4.250568560821552e-05
234 1 42.7397462295082 16.61397442622951 2.4728801185991256e-05
235 1 45.332550819672136 16.641240000000003 3.7681064202473525e-05
236 1 47.962214426229515 16.69400393442623 4.18751141206511e-05
237 1 50.683672131147546 16.784333770491806 7.678954802117771e-05
238 1 53.37034098360656 16.79953180327869 8.453382502164438e-05
239 1 55.99894426229508 16.757371147540983 8.314616598219193e-05
240 1 58.593718032786896 16.70415278688525 7.645400646499608e-05
241 1 61.16324590163935 16.72990360655738 4.6835339071817696e-05
242 1 63.86051803278689 16.731872786885248 8.378101448993367e-05
243 1 66.62241967213116 16.452956065573773 2.2527520354357523e-05
244 1 69.2353704918033 16.854113442622953 6.782813113132314e-05
245 1 71.9452655737705 17.28031475409836 9.82518454426404e-05
246 1 74.75917377049181 17.370695081967213 2.529124108554922e-05
247 1 77.44988196721312 17.26052196721312 5.633589153957631e-05
248 1 80.24460327868853 17.14676393442623 6.745097445034947e-05
249 1 1.2616790819672132 19.466862295081967 4.413066712342862e-06
250 1 3.8838244590163935 19.492714098360658 2.501141617696743e-05
251 1 6.431040000000001 19.60510885245902 7.535006202351838e-05
252 1 9.030307540983607 19.401172459016394 4.6283118866854447e-05
253 1 11.660223606557377 19.673474754098365 9.966060023716072e-05
254 1 13.997741639344264 19.158104918032787 4.1786405126538656e-05
255 1 17.56948131147541 19.535127213114755 1.2919573530518692e-05
256 1 20.27483213114754 19.537601311475413 7.389136477471415e-07
257 1 23.325395409836066 19.407180983606562 4.6808740961203914e-07
258 1 26.192017049180333 19.19708459016394 5.980504378732771e-05
259 1 28.77280459016394 19.273024262295085 5.978162127734455e-05
260 1 32.062749508196724 18.605724590163934 3.595000924803692e-05
261 1 33.60189114754099 18.64263409836066 4.8958098648425665e-05
262 1 36.148142295081975 18.83884524590164 6.263000686799944e-05
263 1 38.77482688524591 18.87752196721312 8.086504101304283e-05
264 1 41.45573967213115 18.933062950819675 5.579577618087062e-06
265 1 44.06768065573771 19.0090531147541 1.5358597683201726e-05
266 1 46.60186426229509 18.99834885245902 4.752978510174698e-05
267 1 49.344629508196725 18.981030163934427 9.48635828184969e-05
268 1 52.034327868852465 19.06641180327869 6.733198842456435e-05
269 1 54.665455737704924 19.107461639344265 2.4223669856445254e-05
270 1 57.30264262295083 19.08847672131148 9.54398852377122e-05
271 1 59.92771147540984 19.087163934426233 6.844835200021563e-05
272 1 62.51087213114755 18.984261639344265 5.0677433031537714e-05
273 1 65.21874754098361 18.779315409836066 5.8559714123731144e-05
274 1 67.83826229508198 19.045861639344263 3.9755594126658e-05
275 1 70.48706229508197 19.34517704918033 5.221913007734893e-05
276 1 73.1505049180328 19.49730885245902 8.677331781311264e-05
277 1 75.89069508196722 19.61970098360656 9.74998270135811e-05
278 1 78.9908918032787 19.379360000000002 3.035332135837392e-05
279 1 81.69674754098361 19.524019016393446 2.5119933541711526e-05
280 1 0.3827546295081967 22.10546295081967 1.3022766760860872e-05
281 1 2.881516721311476 21.73015737704918 2.2579827431961488e-05
282 1 5.270233442622951 22.96569180327869 7.36987384577052e-05
283 1 8.002344918032788 21.88087540983607 4.546423466666774e-05
284 1 10.746675409836065 21.75131344262295 8.42184512347998e-05
285 1 13.226580327868854 23.00396459016394 4.6836761985067434e-05
286 1 16.01827213114754 21.867394098360656 7.496414264541625e-05
287 1 18.8289993442623 21.770853770491808 7.828364837011635e-05
288 1 21.049275409836067 20.874422295081967 6.218749214543041e-06
289 1 24.64045442622951 21.37100918032787 6.795782733667877e-07
290 1 27.316822950819674 21.557172459016396 3.72474392042869e-05
291 1 29.80409967213115 21.653763278688526 2.270009706660017e-05
292 1 32.20947868852459 21.41261442622951 3.775339159005838e-05
293 1 34.90957836065574 21.168739016393445 9.548647797142405e-05
294 1 37.396501639344265 21.21963475409836 1.9262980584343948e-05
295 1 40.14648721311476 21.20928393442623 1.7026869605749284e-06
296 1 42.840780327868856 21.33556393442623 5.859927040211868e-05
297 1 45.43631147540984 21.429731147540984 4.097989782404339e-05
298 1 48.03517508196722 21.200447868852464 1.949983903124717e-05
299 1 50.715481967213115 21.29198950819672 2.8197101625687762e-05
300 1 53.29763278688525 21.417007213114758 3.5914503526125535e-05
301 1 55.96662950819673 21.42291475409836 1.600981480779019e-05
302 1 58.675514754098366 21.41912786885246 4.148225754903232e-05
303 1 61.40863606557377 21.39100393442623 9.573788846048983e-05
304 1 64.07460327868853 21.104008524590167 4.07824773393477e-05
305 1 66.33411147540984 22.369131147540987 7.977895327996729e-05
306 1 69.21012459016394 21.548437377049183 3.516395415856951e-05
307 1 71.92759344262296 21.75525180327869 8.576637264934478e-05
308 1 74.56629508196723 21.78064918032787 8.003713337704633e-06
309 1 76.74299672131148 20.902798688524594 8.368718958539742e-05
310 1 80.257731147541 22.87096918032787 8.760159930529855e-05
311 1 2.7083045901639347 24.071664262295084 2.6679286916522116e-05
312 1 4.273267737704919 24.13498098360656 3.3585026195691074e-05
313 1 6.855373114754099 24.405162622950822 2.409590764751446e-06
314 1 9.480795409836068 24.091255081967216 9.66075775587982e-05
315 1 12.332420983606559 24.288526557377054 1.2302757208746963e-06
316 1 15.179956721311477 24.383047213114757 7.280626987666376e-05
317 1 17.894194098360657 23.951847213114757 6.14351554536594e-05
318 1 20.582680655737708 23.759776393442625 6.761647222075468e-05
319 1 23.211839344262298 23.698580327868854 4.435647725081157e-05
320 1 25.895832131147543 23.693581639344266 3.30558395286247e-05
321 1 28.550388196721315 23.995320655737707 2.7165967265150827e-05
322 1 30.924058360655742 23.969165901639347 8.066551609675726e-05
323 1 33.542613770491805 23.539581639344267 5.3242044670368366e-05
324 1 36.12678426229509 23.690097704918035 4.708891085092662e-05
325 1 38.79340786885247 23.44314229508197 8.049719468747171e-05
326 1 41.496940983606564 23.56154557377049 7.029070888547184e-05
327 1 44.09928852459017 23.77805442622951 1.5234100435920352e-05
328 1 47.58443475409837 23.46586360655738 5.762057508704592e-05
329 1 49.12630295081967 23.487575081967215 5.704355578633512e-05
330 1 51.7904524590164 23.7122131147541 7.991831191755856e-05
331 1 54.54276065573771 23.718625573770495 4.7061250766465714e-05
332 1 57.277901639344265 23.687118688524592 4.678354053093473e-05
333 1 60.03273442622952 23.65828786885246 8.40887447807257e-06
334 1 62.77241967213116 23.57023016393443 8.255259816497409e-05
335 1 65.49291803278689 23.66560918032787 9.949692775966943e-05
336 1 67.98721311475411 23.856872131147544 7.662126766589114e-05
337 1 70.67539672131147 23.94735344262295 1.2148417501154464e-05
338 1 73.69985573770492 24.068432786885246 6.877049573250194e-05
339 1 76.46377704918032 23.75619147540984 9.253908240487496e-05
340 1 79.28273442622951 24.072876065573773 1.2549894340645708e-05
341 1 81.95577049180329 24.546337704918034 6.456582258536125e-05
342 1 0.0026449323278688527 26.95328196721312 6.989309545727448e-05
343 1 2.784521967213115 26.81725704918033 1.672542789061865e-05
344 1 5.550614426229509 26.634375737704918 5.492160857656666e-05
345 1 8.103480000000001 26.56964524590164 5.3738199859701074e-05
346 1 10.608024918032788 26.30269508196722 6.733410509566592e-05
347 1 12.958115409836067 25.69007803278689 7.16780144797108e-05
348 1 16.628667540983606 26.35833704918033 2.3404300343176156e-05
349 1 19.397638032786887 26.15965180327869 1.9506648450804655e-05
350 1 21.88380393442623 26.128043934426234 6.824386394025218e-06
351 1 25.433882622950822 25.729562622950823 5.9481381795978305e-05
352 1 26.940204590163937 26.07583540983607 9.229181492948316e-05
353 1 29.596729836065578 26.4749731147541 6.922899612239335e-05
354 1 32.37514229508197 26.028676065573773 1.6492925845428898e-05
355 1 34.67201442622951 27.10374754098361 1.273285335697756e-05
356 1 38.350291803278694 25.66993180327869 2.1729318087129534e-05
357 1 39.89589639344263 25.74198360655738 8.582946608409255e-05
358 1 42.49470950819673 26.02382885245902 4.0726052861306006e-05
359 1 45.0689331147541 26.283407213114756 5.8885533362928994e-05
360 1 47.585091147540986 26.145615081967215 8.233128943930967e-05
361 1 50.32689704918033 25.922340327868856 2.7438672961710667e-05
362 1 53.14060327868853 25.952736393442628 3.193297038048937e-06
363 1 55.89392131147542 25.951827540983608 6.228919079718248e-05
364 1 58.56039344262296 25.900073442622954 1.8027063242206067e-05
365 1 61.317245901639346 25.86972786885246 6.927559224937837e-05
366 1 64.01754754098361 25.90098229508197 8.20007321763514e-06
367 1 66.66028852459017 26.15303737704918 2.349327722039866e-05
368 1 69.37270819672132 26.127690491803282 3.529046162545556e-05
369 1 71.45145573770492 25.28952655737705 4.7117595708044535e-05
370 1 75.09140983606558 26.105676065573775 3.852121382618401e-06
371 1 77.5629836065574 26.10815016393443 8.445333968720638e-05
372 1 80.05071475409837 26.480931147540986 1.2557715570353678e-05
373 1 0.6531114754098362 28.334081311475412 5.406861389054328e-05
374 1 4.313368327868853 28.915140983606562 6.39649286798243e-05
375 1 6.850273442622951 29.014963278688526 9.879541414043836e-06
376 1 9.373096393442625 28.85646950819672 9.920236810488544e-05
377 1 12.074609836065576 28.4317324590164 2.4714021517203967e-05
378 1 14.925579016393446 28.59416459016394 9.666238354977967e-05
379 1 17.958924590163935 28.426279344262298 3.6293990370038224e-06
380 1 20.608481967213116 28.630215737704923 9.834354205574257e-05
381 1 23.510245901639347 28.596133770491804 4.023281226198642e-05
382 1 25.02313180327869 28.422240000000002 9.583092834153023e-05
383 1 27.719596065573775 28.56169836065574 9.604451824551645e-05
384 1 30.99964459016394 28.49585704918033 4.853293305979723e-07
385 1 33.77230098360656 28.352359344262297 4.381350527436351e-05
386 1 36.127945573770496 28.804109508196724 8.835245751510619e-05
387 1 38.55660131147541 28.365689180327873 8.377811842595266e-05
388 1 41.20974360655738 28.266169836065576 3.168912392306378e-05
389 1 43.812697049180336 28.519537704918037 4.644820421202893e-05
390 1 46.444430819672135 28.615320655737708 4.708245512647165e-05
391 1 49.06571278688525 28.29959540983607 4.611516161219327e-05
392 1 51.76571147540984 28.113886557377054 8.996496077754205e-05
393 1 54.638695081967214 28.18548393442623 4.131401181653418e-05
394 1 57.194590163934436 28.242792131147546 7.620955746305131e-05
395 1 59.707062295081975 28.092982950819675 6.17273980584884e-05
396 1 62.49622950819673 28.16089442622951 8.395061845985875e-05
397 1 65.59137704918034 28.30030229508197 8.642450330405423e-05
398 1 68.33207213114754 28.331556721311475 3.149424340806066e-05
399 1 70.9753180327869 28.225422950819677 3.699762916874342e-05
400 1 73.56807213114755 28.338676065573775 8.433017170725954e-06
401 1 76.07549508196723 28.550438688524594 8.895095863443635e-05
402 1 78.57281967213116 28.696057049180332 9.87692890177455e-05
403 1 81.13224918032788 28.936902950819675 1.2555861611041431e-05
404 1 82.6247868852459 31.13541704918033 9.559948387373111e-05
405 1 2.5391419016393444 31.037866885245904 1.0814464961007975e-05
406 1 5.158747540983607 31.329356065573773 8.49368222382935e-05
407 1 8.068893114754099 31.38186754098361 1.3659530232461503e-05
408 1 11.018321311475411 30.862407868852465 1.994246412445735e-05
409 1 13.650257049180329 30.578896393442626 1.9500910964835517e-05
410 1 15.582275409836068 29.999906885245903 6.252059119569698e-06
411 1 18.453239344262297 32.03608983606558 4.343789959079544e-05
412 1 21.187219016393446 31.478357377049182 9.957795100051458e-06
413 1 23.704639344262297 31.341878032786887 6.79390347013612e-05
414 1 26.266088524590167 30.764605245901645 2.5111005074344496e-05
415 1 28.555437377049184 29.855045901639347 8.95121347471748e-05
416 1 32.18488918032787 30.583541639344265 1.3558283385157777e-05
417 1 34.66226950819672 31.002421639344266 9.655953304554912e-05
418 1 37.32763081967214 30.963038032786887 7.340031840744233e-05
419 1 39.982388852459025 30.64004196721312 3.423364996030849e-05
420 1 42.55237114754099 30.75364852459017 2.987759777299368e-05
421 1 45.224397377049186 30.91173836065574 7.341228061460303e-05
422 1 47.78862360655738 30.80353442622951 6.76932351544778e-05
423 1 50.61853770491804 30.48200262295082 7.299477401845789e-06
424 1 53.26834754098361 30.21687016393443 1.739248635551901e-05
425 1 55.959560655737704 30.63221573770492 3.624069187299621e-05
426 1 58.593718032786896 30.594245901639347 2.981030096923597e-05
427 1 61.18344262295082 30.256354754098364 3.4545128249670766e-05
428 1 63.25815081967214 29.49312065573771 5.9947549870216567e-05
429 1 66.98394098360657 30.506188196721315 6.756809608960113e-05
430 1 69.53024262295082 30.589802622950824 7.324931525248735e-05
431 1 72.18106229508197 30.67452786885246 9.874106084310513e-05
432 1 74.7369573770492 30.901185573770494 9.068638619258895e-05
433 1 77.2777049180328 31.054125245901645 6.891744788322422e-05
434 1 79.96790819672131 31.157128524590163 8.558306299349083e-05
435 1 1.2932465573770493 33.439156065573776 3.64444855124371e-05
436 1 3.791798098360656 33.48025639344263 1.1455286520917851e-05
437 1 5.741978360655738 32.747317377049185 2.95399398872501e-05
438 1 8.995771147540983 32.59240852459016 3.80083765322449e-05
439 1 12.415227540983608 32.97054163934427 2.395415512509267e-05
440 1 14.816062295081968 32.98084196721312 7.756479872317235e-05
441 1 17.493238688524592 33.23289704918033 6.199001016388523e-05
442 1 19.987483278688526 33.910244590163934 8.519255462537718e-05
443 1 22.739942950819675 33.79507278688525 4.489232402929444e-06
444 1 25.406869508196724 33.37361770491803 4.7488980576630095e-06
445 1 27.960038032786887 32.7029855737705 8.911825021305914e-05
446 1 30.583087213114755 32.691170491803284 3.020016885552511e-05
447 1 33.0867737704918 33.155291147540986 4.310706961676595e-05
448 1 35.764859016393444 33.22709049180328 6.871854986318065e-05
449 1 38.410276065573775 33.02840524590164 1.6877585079345904e-05
450 1 41.06084327868852 33.07596852459017 5.0877585694076125e-05
451 1 43.96679803278689 33.13706360655738 3.116070369133157e-05
452 1 47.28547278688525 34.53346491803279 6.950100907095019e-05
453 1 49.55911868852459 32.72802950819673 5.3185641832120126e-05
454 1 53.00225573770492 32.3032924590164 1.9418502380375557e-05
455 1 54.50337704918033 32.615786229508196 4.513397343767186e-05
456 1 56.44781639344263 32.10874754098361 8.79385123367171e-05
457 1 60.19683278688525 32.698845245901644 2.430445943608858e-05
458 1 62.6820393442623 32.39443016393442 1.0563697004086236e-05
459 1 65.26974426229509 32.430329836065575 3.46883810275245e-05
460 1 67.85946885245902 32.895359344262296 8.02270497625617e-05
461 1 70.49160655737707 32.91237508196721 9.599791174385439e-05