ITEM: TIMESTEP
1
ITEM: NUMBER OF ATOMS
100
ITEM: BOX BOUNDS xy xz yz pp pp pp
0.0 10.110178081668233 -0.008146732109062199
0.0 10.110178081668233 0.0
0.0 10.0 0.0
ITEM: ATOMS id type x y z vx vy vz
1 1 0.35816286334364866 0.351091770249108 0.0 0.0 0.0 0.0
2 2 1.382696508100749 10.023658892070069 0.0 0.0 0.0 0.0
3 2 2.547055638387352 0.540272734631164 0.0 0.0 0.0 0.0
4 1 3.7351999473716346 0.4912016114597637 0.0 0.0 0.0 0.0
5 1 4.306457084235715 0.8666692761356585 0.0 0.0 0.0 0.0
6 2 5.437495837797619 0.82496547755992 0.0 0.0 0.0 0.0
7 2 6.7272492132861395 0.31901801125971957 0.0 0.0 0.0 0.0
8 2 8.036408557989056 0.31336056293347647 0.0 0.0 0.0 0.0
9 1 9.15106524444737 0.45875643612340555 0.0 0.0 0.0 0.0
10 1 9.776984716469352 0.16569933663061404 0.0 0.0 0.0 0.0
11 1 0.8332642582976812 0.8570161472657439 0.0 0.0 0.0 0.0
12 1 1.5184582979285792 1.0448849710178878 0.0 0.0 0.0 0.0
13 1 1.985418616448821 1.5833950619543689 0.0 0.0 0.0 0.0
14 2 3.4092909063109698 1.5235184784590012 0.0 0.0 0.0 0.0
15 1 4.534163522914086 1.4973316366973888 0.0 0.0 0.0 0.0
16 1 5.081571648896937 1.8914789106881587 0.0 0.0 0.0 0.0
17 2 6.193108493151088 1.8833794409003872 0.0 0.0 0.0 0.0
18 2 7.397050872389385 1.4634752955634938 0.0 0.0 0.0 0.0
19 2 8.663251636815119 1.4655345844989156 0.0 0.0 0.0 0.0
20 2 9.902257068365252 1.283786960316779 0.0 0.0 0.0 0.0
21 2 0.847237758963778 1.9588919075271842 0.0 0.0 0.0 0.0
22 1 1.8687134266970957 2.286586191035163 0.0 0.0 0.0 0.0
23 1 2.492794432355383 2.084672472847209 0.0 0.0 0.0 0.0
24 1 3.0079915799738997 2.555986392009171 0.0 0.0 0.0 0.0
25 2 4.164078956584441 2.5451455213692755 0.0 0.0 0.0 0.0
26 1 5.2902237818803455 2.5365467771667234 0.0 0.0 0.0 0.0
27 2 6.212942714206468 3.179081157498859 0.0 0.0 0.0 0.0
28 1 7.11583434092617 2.5438253474641055 0.0 0.0 0.0 0.0
29 2 8.21756744117329 2.675729945709797 0.0 0.0 0.0 0.0
30 2 9.491143800049857 2.5233827675003613 0.0 0.0 0.0 0.0
31 2 -0.03880686780494866 3.6518366804735183 0.0 0.0 0.0 0.0
32 2 1.2397265366838586 3.2012658804204217 0.0 0.0 0.0 0.0
33 1 2.349761155465058 2.7666485838620787 0.0 0.0 0.0 0.0
34 1 3.247435619120203 3.189064131216587 0.0 0.0 0.0 0.0
35 2 4.206043891107044 3.806621278731881 0.0 0.0 0.0 0.0
36 1 5.106366830603881 3.1862649523169346 0.0 0.0 0.0 0.0
37 2 6.265923466892353 4.523749267639851 0.0 0.0 0.0 0.0
38 2 7.405110619379677 3.649341844141124 0.0 0.0 0.0 0.0
39 1 9.080529739545335 4.197962252945504 0.0 0.0 0.0 0.0
40 1 8.92541466652804 3.5372048487783627 0.0 0.0 0.0 0.0
41 2 0.9907536579168671 4.550787903750992 0.0 0.0 0.0 0.0
42 1 2.056548797157337 4.793578128526473 0.0 0.0 0.0 0.0
43 1 1.9597704239512557 4.052734478731034 0.0 0.0 0.0 0.0
44 1 2.31263499477167 3.44299476555795 0.0 0.0 0.0 0.0
45 1 3.907441928760757 4.860329789562229 0.0 0.0 0.0 0.0
46 1 5.332752671296505 3.8376799536460062 0.0 0.0 0.0 0.0
47 1 6.581166185658584 5.663880684235079 0.0 0.0 0.0 0.0
48 2 7.495985174169677 4.921463742923206 0.0 0.0 0.0 0.0
49 1 8.39785363547167 4.168028275160932 0.0 0.0 0.0 0.0
50 2 9.927615335287683 4.910341086637045 0.0 0.0 0.0 0.0
51 2 0.7162648087016944 5.939963715696685 0.0 0.0 0.0 0.0
52 1 1.7358243620211187 5.413785516602371 0.0 0.0 0.0 0.0
53 2 2.873008921806543 5.573386527775063 0.0 0.0 0.0 0.0
54 2 3.020432701794994 4.267846536038572 0.0 0.0 0.0 0.0
55 2 4.224651016502113 5.870243900569296 0.0 0.0 0.0 0.0
56 2 5.028626067996801 4.8929112345419 0.0 0.0 0.0 0.0
57 1 7.201961990724072 5.995881262701768 0.0 0.0 0.0 0.0
58 1 7.87926913208956 5.957686644270741 0.0 0.0 0.0 0.0
59 2 8.733190395152134 5.2698012045597125 0.0 0.0 0.0 0.0
60 1 9.653486380083207 5.956290408689959 0.0 0.0 0.0 0.0
61 1 0.308875060079571 6.989755870837803 0.0 0.0 0.0 0.0
62 1 1.8548805744082049 6.099986119421893 0.0 0.0 0.0 0.0
63 1 2.354720251317662 6.58723902617281 0.0 0.0 0.0 0.0
64 2 3.429910942445393 6.814483439915628 0.0 0.0 0.0 0.0
65 1 4.634090588415836 6.849988591427861 0.0 0.0 0.0 0.0
66 2 5.5217362791344415 6.129769265901408 0.0 0.0 0.0 0.0
67 2 6.559815637303057 6.885804517287472 0.0 0.0 0.0 0.0
68 1 7.628288973710787 6.57761408445887 0.0 0.0 0.0 0.0
69 2 8.767437869505706 6.623335995257408 0.0 0.0 0.0 0.0
70 1 9.884987230563203 6.585206662587085 0.0 0.0 0.0 0.0
71 2 0.4953412413786225 8.07853907768857 0.0 0.0 0.0 0.0
72 2 1.4065485861267146 7.1465513800298455 0.0 0.0 0.0 0.0
73 2 2.619556008295701 7.814850890130915 0.0 0.0 0.0 0.0
74 1 3.79038991731852 7.857457291495029 0.0 0.0 0.0 0.0
75 1 4.33201610742338 7.44168921498954 0.0 0.0 0.0 0.0
76 2 5.455312174284585 7.554959632967828 0.0 0.0 0.0 0.0
77 2 6.465741124119268 8.31539400890546 0.0 0.0 0.0 0.0
78 2 7.5954163402507255 7.690420416499949 0.0 0.0 0.0 0.0
79 2 8.841885312018515 7.881217496674221 0.0 0.0 0.0 0.0
80 1 9.779317142230846 7.263445962325542 0.0 0.0 0.0 0.0
81 1 1.5950968835175068 8.257284722120492 0.0 0.0 0.0 0.0
82 1 2.010455954710978 8.809126342290304 0.0 0.0 0.0 0.0
83 1 2.7032050539138277 8.924020346550897 0.0 0.0 0.0 0.0
84 2 3.8110541381265444 8.951041447251054 0.0 0.0 0.0 0.0
85 1 4.472771029386648 8.089453324094043 0.0 0.0 0.0 0.0
86 2 5.287663064672908 8.843184542194194 0.0 0.0 0.0 0.0
87 1 7.019180776132734 9.33668527557408 0.0 0.0 0.0 0.0
88 1 7.439156398594556 8.789113052664387 0.0 0.0 0.0 0.0
89 1 8.108904108696505 8.721933991947413 0.0 0.0 0.0 0.0
90 1 9.635540988542141 8.614810816767053 0.0 0.0 0.0 0.0
91 1 1.3189054554271202 8.884308852871508 0.0 0.0 0.0 0.0
92 1 2.2797836055067493 9.442853278065709 0.0 0.0 0.0 0.0
93 1 2.9237154864084753 9.596166198655608 0.0 0.0 0.0 0.0
94 1 3.4676774504820753 9.993838696697805 0.0 0.0 0.0 0.0
95 2 4.617708728582494 9.928268762755694 0.0 0.0 0.0 0.0
96 1 5.7505236572989915 9.85796870244051 0.0 0.0 0.0 0.0
97 1 6.28160471327878 9.408419252295296 0.0 0.0 0.0 0.0
98 1 7.7894013820029375 9.353664810041563 0.0 0.0 0.0 0.0
99 2 8.934259104845694 9.4758096553185 0.0 0.0 0.0 0.0
100 2 0.30848391912963974 9.365501592262593 0.0 0.0 0.0 0.0
