# input file

1350 atoms
2 atom types

0.0 78.5672499984 xlo xhi
0.0 80.7226521548 ylo yhi
-10.0 10.0 zlo zhi
0.0 0.0 0.0 xy xz yz

Masses

1 28.0855 #Si
2 15.9994 #O

Atoms

1 1 2.71598277607 1.31222607739 0.0
2 1 8.03225277607 1.20533607739 0.0
3 1 13.3802627761 0.960856077387 0.0
4 1 18.5090627761 1.04190607739 0.0
5 1 23.0208627761 3.99740607739 0.0
6 1 28.4203627761 1.86869607739 0.0
7 1 33.5929627761 1.61191607739 0.0
8 1 38.7572627761 1.45415607739 0.0
9 1 44.0396627761 1.33700607739 0.0
10 1 49.5660627761 1.43668607739 0.0
11 1 55.1826627761 2.23730607739 0.0
12 1 60.5142627761 2.13129607739 0.0
13 1 65.8314627761 1.56666607739 0.0
14 1 70.8659627761 0.565036077387 0.0
15 1 76.1168627761 1.00622607739 0.0
16 1 78.3390627761 5.70086607739 0.0
17 1 5.19248277607 5.68608607739 0.0
18 1 10.5334627761 5.46878607739 0.0
19 1 15.9991627761 5.55727607739 0.0
20 1 21.3228627761 6.52052607739 0.0
21 1 26.1593627761 6.84052607739 0.0
22 1 31.2047627761 6.36535607739 0.0
23 1 36.1538627761 6.12576607739 0.0
24 1 41.3078627761 5.87808607739 0.0
25 1 46.5073627761 5.58104607739 0.0
26 1 51.8422627761 5.81996607739 0.0
27 1 59.4814627761 6.18336607739 0.0
28 1 62.5352627761 6.12790607739 0.0
29 1 70.0964627761 5.24806607739 0.0
30 1 73.1165627761 5.23457607739 0.0
31 1 2.51486277607 10.0507260774 0.0
32 1 8.08104277607 9.98782607739 0.0
33 1 13.5434627761 9.76342607739 0.0
34 1 17.8400627761 12.5296260774 0.0
35 1 23.3402627761 11.4895260774 0.0
36 1 28.7576627761 11.2718260774 0.0
37 1 33.9862627761 11.0070260774 0.0
38 1 38.7683627761 10.5814260774 0.0
39 1 44.4423627761 10.2096260774 0.0
40 1 49.3893627761 10.0417260774 0.0
41 1 54.2105627761 12.6135260774 0.0
42 1 59.3897627761 12.4279260774 0.0
43 1 64.8250627761 10.5455260774 0.0
44 1 70.0622627761 10.0344260774 0.0
45 1 75.6246627761 10.0097260774 0.0
46 1 0.362955776073 14.3291260774 0.0
47 1 5.47713277607 14.2331260774 0.0
48 1 10.5609627761 14.2044260774 0.0
49 1 15.8787627761 14.8216260774 0.0
50 1 20.5193627761 16.1455260774 0.0
51 1 26.0933627761 15.7508260774 0.0
52 1 31.6496627761 15.6735260774 0.0
53 1 37.0333627761 15.6448260774 0.0
54 1 41.9938627761 14.3481260774 0.0
55 1 47.3813627761 14.8234260774 0.0
56 1 53.2309627761 15.4549260774 0.0
57 1 58.3850627761 15.2472260774 0.0
58 1 63.0633627761 15.1981260774 0.0
59 1 67.7307627761 14.7143260774 0.0
60 1 72.7642627761 14.2694260774 0.0
61 1 2.75004277607 18.8812260774 0.0
62 1 7.59981277607 18.8353260774 0.0
63 1 12.6734627761 18.8668260774 0.0
64 1 17.4390627761 20.1808260774 0.0
65 1 21.7430627761 18.8903260774 0.0
66 1 28.9138627761 19.8296260774 0.0
67 1 33.1293627761 18.3100260774 0.0
68 1 41.4279627761 19.0805260774 0.0
69 1 44.4053627761 18.8342260774 0.0
70 1 48.5062627761 17.6202260774 0.0
71 1 55.4365627761 19.8116260774 0.0
72 1 60.4684627761 20.0451260774 0.0
73 1 65.8083627761 19.7849260774 0.0
74 1 70.2198627761 19.0954260774 0.0
75 1 74.3609627761 16.8163260774 0.0
76 1 78.1758627761 24.8641260774 0.0
77 1 5.26956277607 23.6772260774 0.0
78 1 10.4195627761 23.4585260774 0.0
79 1 15.1715627761 26.3463260774 0.0
80 1 20.4981627761 24.4495260774 0.0
81 1 26.0987627761 24.0441260774 0.0
82 1 31.5517627761 23.9642260774 0.0
83 1 36.8199627761 24.2314260774 0.0
84 1 42.0128627761 24.4191260774 0.0
85 1 47.1542627761 23.2753260774 0.0
86 1 52.4011627761 23.7096260774 0.0
87 1 57.4826627761 24.4956260774 0.0
88 1 63.0949627761 24.2275260774 0.0
89 1 68.4915627761 24.4514260774 0.0
90 1 73.7438627761 22.5374260774 0.0
91 1 2.79856277607 28.1474260774 0.0
92 1 8.34295277607 28.1534260774 0.0
93 1 13.8013627761 29.0344260774 0.0
94 1 18.7440627761 29.3840260774 0.0
95 1 23.7833627761 28.3370260774 0.0
96 1 28.9992627761 28.3343260774 0.0
97 1 34.0278627761 28.5716260774 0.0
98 1 39.4237627761 28.8681260774 0.0
99 1 46.4977627761 27.9035260774 0.0
100 1 49.5281627761 27.9534260774 0.0
101 1 54.8409627761 28.6714260774 0.0
102 1 60.5582627761 28.4215260774 0.0
103 1 65.1972627761 30.5023260774 0.0
104 1 73.1233627761 27.2594260774 0.0
105 1 76.1798627761 27.1440260774 0.0
106 1 78.3449627761 32.0959260774 0.0
107 1 5.27851277607 32.3549260774 0.0
108 1 10.7342627761 32.8609260774 0.0
109 1 15.8961627761 33.9310260774 0.0
110 1 23.0772627761 33.0036260774 0.0
111 1 26.0903627761 32.8334260774 0.0
112 1 31.1727627761 33.1324260774 0.0
113 1 36.1671627761 33.0387260774 0.0
114 1 41.3864627761 33.2304260774 0.0
115 1 46.3944627761 33.3028260774 0.0
116 1 51.8119627761 32.7846260774 0.0
117 1 57.3768627761 32.6489260774 0.0
118 1 63.0434627761 32.6539260774 0.0
119 1 68.0803627761 33.3159260774 0.0
120 1 72.8890627761 32.1315260774 0.0
121 1 2.31051277607 36.4706260774 0.0
122 1 7.42289277607 36.8491260774 0.0
123 1 12.4582627761 37.8552260774 0.0
124 1 17.7793627761 38.5756260774 0.0
125 1 23.1376627761 38.0195260774 0.0
126 1 28.7182627761 37.6338260774 0.0
127 1 34.0398627761 37.7850260774 0.0
128 1 39.2450627761 37.5668260774 0.0
129 1 44.0693627761 39.8951260774 0.0
130 1 49.3121627761 37.4579260774 0.0
131 1 54.5104627761 36.9925260774 0.0
132 1 59.8315627761 36.7740260774 0.0
133 1 65.2287627761 37.5462260774 0.0
134 1 70.6653627761 37.3358260774 0.0
135 1 75.7435627761 36.4190260774 0.0
136 1 78.3399627761 41.0178260774 0.0
137 1 4.73786277607 41.2420260774 0.0
138 1 8.90112277607 44.0778260774 0.0
139 1 14.4851627761 42.5793260774 0.0
140 1 21.4050627761 42.5337260774 0.0
141 1 26.7904627761 41.9432260774 0.0
142 1 31.7834627761 42.1666260774 0.0
143 1 37.0275627761 42.2331260774 0.0
144 1 42.5190627761 42.4891260774 0.0
145 1 47.4910627761 42.5051260774 0.0
146 1 52.3624627761 41.7913260774 0.0
147 1 57.2159627761 41.3424260774 0.0
148 1 62.6130627761 41.4101260774 0.0
149 1 68.0992627761 41.7019260774 0.0
150 1 73.2162627761 41.3726260774 0.0
151 1 1.64557277607 48.1667260774 0.0
152 1 7.35577277607 46.6674260774 0.0
153 1 12.6447627761 47.0449260774 0.0
154 1 16.5116627761 44.8069260774 0.0
155 1 24.2698627761 46.5217260774 0.0
156 1 29.4269627761 46.7855260774 0.0
157 1 34.3919627761 46.7524260774 0.0
158 1 39.6901627761 46.6704260774 0.0
159 1 44.9584627761 47.2013260774 0.0
160 1 50.2148627761 46.8899260774 0.0
161 1 55.1764627761 46.3665260774 0.0
162 1 60.1959627761 45.6740260774 0.0
163 1 65.6093627761 45.7488260774 0.0
164 1 71.0189627761 46.0922260774 0.0
165 1 76.0750627761 45.7402260774 0.0
166 1 78.3654627761 50.5725260774 0.0
167 1 4.83463277607 51.0561260774 0.0
168 1 10.1833627761 51.2451260774 0.0
169 1 17.3729627761 50.0915260774 0.0
170 1 20.3830627761 50.0584260774 0.0
171 1 25.8379627761 51.0587260774 0.0
172 1 32.2040627761 51.5349260774 0.0
173 1 37.2228627761 51.1841260774 0.0
174 1 42.2076627761 51.4080260774 0.0
175 1 47.6716627761 51.5375260774 0.0
176 1 52.9700627761 51.3432260774 0.0
177 1 59.5264627761 50.1680260774 0.0
178 1 62.5235627761 49.9728260774 0.0
179 1 67.7536627761 50.1810260774 0.0
180 1 73.0126627761 50.5365260774 0.0
181 1 1.77905277607 55.3965260774 0.0
182 1 6.89651277607 55.4423260774 0.0
183 1 11.8591627761 55.4941260774 0.0
184 1 16.6168627761 55.5578260774 0.0
185 1 22.9362627761 54.7151260774 0.0
186 1 27.6825627761 53.4375260774 0.0
187 1 34.7898627761 56.0290260774 0.0
188 1 39.0659627761 55.9637260774 0.0
189 1 44.4361627761 55.7242260774 0.0
190 1 50.5317627761 55.9099260774 0.0
191 1 55.5219627761 55.9784260774 0.0
192 1 60.3011627761 55.4366260774 0.0
193 1 65.4642627761 54.5384260774 0.0
194 1 69.8318627761 56.9616260774 0.0
195 1 75.2269627761 54.9725260774 0.0
196 1 78.2527627761 59.6901260774 0.0
197 1 4.47016277607 59.9626260774 0.0
198 1 9.82856277607 60.0786260774 0.0
199 1 14.5779627761 60.2866260774 0.0
200 1 18.3821627761 57.9770260774 0.0
201 1 25.6250627761 58.7191260774 0.0
202 1 31.8912627761 59.8863260774 0.0
203 1 36.9016627761 61.1977260774 0.0
204 1 41.9147627761 60.1603260774 0.0
205 1 46.0265627761 58.2640260774 0.0
206 1 52.8338627761 60.5918260774 0.0
207 1 57.9985627761 60.4950260774 0.0
208 1 63.1410627761 59.5091260774 0.0
209 1 68.2813627761 59.5446260774 0.0
210 1 73.2386627761 59.8083260774 0.0
211 1 2.69302277607 64.5503260774 0.0
212 1 7.81887277607 64.2417260774 0.0
213 1 12.6478627761 64.9412260774 0.0
214 1 17.9479627761 63.8260260774 0.0
215 1 22.9610627761 62.7264260774 0.0
216 1 26.6013627761 61.5457260774 0.0
217 1 32.9183627761 62.7269260774 0.0
218 1 40.2501627761 65.1469260774 0.0
219 1 45.5568627761 63.8943260774 0.0
220 1 49.6838627761 66.8423260774 0.0
221 1 55.1039627761 65.0748260774 0.0
222 1 60.6990627761 64.4860260774 0.0
223 1 65.5993627761 64.1265260774 0.0
224 1 70.3320627761 64.3353260774 0.0
225 1 75.9862627761 64.3650260774 0.0
226 1 77.3423627761 67.0476260774 0.0
227 1 5.70002277607 68.8782260774 0.0
228 1 10.5173627761 69.2310260774 0.0
229 1 14.3203627761 67.4211260774 0.0
230 1 21.4520627761 67.6578260774 0.0
231 1 26.2160627761 67.2725260774 0.0
232 1 30.7994627761 69.8755260774 0.0
233 1 35.4193627761 67.0296260774 0.0
234 1 42.6919627761 68.7207260774 0.0
235 1 48.0295627761 69.3830260774 0.0
236 1 53.1756627761 69.8879260774 0.0
237 1 58.1118627761 68.8578260774 0.0
238 1 63.6515627761 69.0419260774 0.0
239 1 68.2882627761 69.0691260774 0.0
240 1 73.7761627761 68.2319260774 0.0
241 1 3.01477277607 73.1118260774 0.0
242 1 8.36134277607 73.7611260774 0.0
243 1 13.9315627761 73.1823260774 0.0
244 1 19.2808627761 72.1973260774 0.0
245 1 24.2117627761 74.1563260774 0.0
246 1 29.6964627761 72.6958260774 0.0
247 1 34.2011627761 72.6764260774 0.0
248 1 39.2367627761 72.9708260774 0.0
249 1 44.3456627761 73.2513260774 0.0
250 1 48.7717627761 72.2996260774 0.0
251 1 55.8591627761 73.9429260774 0.0
252 1 61.8464627761 72.8651260774 0.0
253 1 64.6658627761 71.8906260774 0.0
254 1 71.4257627761 72.6640260774 0.0
255 1 76.4359627761 72.8513260774 0.0
256 1 0.0395357760733 2.69791607739 0.0
257 1 5.39865277607 2.68007607739 0.0
258 1 10.7622627761 2.46717607739 0.0
259 1 15.9247627761 2.56042607739 0.0
260 1 21.4818627761 1.41325607739 0.0
261 1 26.0526627761 3.81464607739 0.0
262 1 31.0827627761 3.32510607739 0.0
263 1 36.2197627761 3.10240607739 0.0
264 1 41.4280627761 2.86069607739 0.0
265 1 46.7783627761 2.59316607739 0.0
266 1 52.2308627761 2.85561607739 0.0
267 1 57.8982627761 3.60472607739 0.0
268 1 63.3104627761 3.22417607739 0.0
269 1 68.6605627761 2.60045607739 0.0
270 1 73.3764627761 2.23384607739 0.0
271 1 2.48561277607 7.03560607739 0.0
272 1 7.91967277607 6.97954607739 0.0
273 1 13.2451627761 6.77598607739 0.0
274 1 18.3985627761 7.37424607739 0.0
275 1 23.6109627761 8.47934607739 0.0
276 1 28.8285627761 8.24131607739 0.0
277 1 33.7666627761 7.97772607739 0.0
278 1 38.7998627761 7.56205607739 0.0
279 1 43.9999627761 7.23161607739 0.0
280 1 49.1122627761 7.06062607739 0.0
281 1 54.0929627761 7.78902607739 0.0
282 1 57.0888627761 8.02198607739 0.0
283 1 65.2023627761 7.57651607739 0.0
284 1 68.2435627761 7.61155607739 0.0
285 1 75.5954627761 6.98397607739 0.0
286 1 78.3482627761 11.3630260774 0.0
287 1 5.31251277607 11.2245260774 0.0
288 1 10.8630627761 11.1984260774 0.0
289 1 16.5799627761 9.80192607739 0.0
290 1 20.7993627761 13.1448260774 0.0
291 1 26.0950627761 12.7330260774 0.0
292 1 31.4549627761 12.6564260774 0.0
293 1 36.5419627761 12.6384260774 0.0
294 1 41.6702627761 11.3762260774 0.0
295 1 46.9891627761 11.8387260774 0.0
296 1 52.3772627761 10.2591260774 0.0
297 1 56.7637627761 11.0072260774 0.0
298 1 62.3798627761 12.2787260774 0.0
299 1 67.5842627761 11.7309260774 0.0
300 1 72.8526627761 11.2441260774 0.0
301 1 2.95226277607 15.8651260774 0.0
302 1 8.02083277607 15.8405260774 0.0
303 1 13.0610627761 15.8761260774 0.0
304 1 17.7091627761 17.1899260774 0.0
305 1 24.6973627761 18.4240260774 0.0
306 1 28.8863627761 16.8320260774 0.0
307 1 36.1205627761 18.5337260774 0.0
308 1 39.9105627761 16.4891260774 0.0
309 1 44.5788627761 15.8458260774 0.0
310 1 51.4807627761 17.9012260774 0.0
311 1 55.8671627761 16.8531260774 0.0
312 1 60.7384627761 17.0724260774 0.0
313 1 65.5901627761 16.7944260774 0.0
314 1 70.3738627761 16.0896260774 0.0
315 1 77.3453627761 16.8800260774 0.0
316 1 78.4194627761 19.6906260774 0.0
317 1 5.18883277607 20.6504260774 0.0
318 1 10.1257627761 20.4605260774 0.0
319 1 14.6100627761 21.1642260774 0.0
320 1 20.1546627761 21.4526260774 0.0
321 1 26.1812627761 21.0380260774 0.0
322 1 31.6836627761 20.9544260774 0.0
323 1 37.4281627761 21.2807260774 0.0
324 1 40.3852627761 21.8774260774 0.0
325 1 47.0372627761 20.2576260774 0.0
326 1 52.5817627761 20.7028260774 0.0
327 1 57.8730627761 21.5321260774 0.0
328 1 63.2013627761 21.2465260774 0.0
329 1 68.3163627761 21.4296260774 0.0
330 1 73.1662627761 19.5841260774 0.0
331 1 2.62175277607 25.1485260774 0.0
332 1 7.92265277607 25.1547260774 0.0
333 1 13.3964627761 23.9148260774 0.0
334 1 18.1937627761 26.4180260774 0.0
335 1 23.3800627761 25.3575260774 0.0
336 1 28.8462627761 25.3187260774 0.0
337 1 34.1117627761 25.5582260774 0.0
338 1 39.3692627761 25.8626260774 0.0
339 1 44.9221627761 25.3038260774 0.0
340 1 49.6651627761 24.9431260774 0.0
341 1 54.7085627761 25.6576260774 0.0
342 1 60.3315627761 25.4394260774 0.0
343 1 65.6885627761 25.7466260774 0.0
344 1 71.5552627761 24.6666260774 0.0
345 1 76.7551627761 22.2188260774 0.0
346 1 78.4909627761 29.0937260774 0.0
347 1 5.56749277607 29.3614260774 0.0
348 1 10.8796627761 29.8341260774 0.0
349 1 16.1521627761 30.9260260774 0.0
350 1 21.5874627761 30.3854260774 0.0
351 1 26.3933627761 29.8358260774 0.0
352 1 31.4328627761 30.1169260774 0.0
353 1 36.6481627761 30.0646260774 0.0
354 1 42.0724627761 30.3181260774 0.0
355 1 45.0860627761 30.5640260774 0.0
356 1 51.9895627761 29.7552260774 0.0
357 1 57.7394627761 29.6464260774 0.0
358 1 63.5952627761 27.9814260774 0.0
359 1 68.2367627761 30.3276260774 0.0
360 1 71.2065627761 29.6177260774 0.0
361 1 2.46895277607 33.4659260774 0.0
362 1 7.88571277607 33.8754260774 0.0
363 1 13.0116627761 34.8719260774 0.0
364 1 18.4038627761 35.6311260774 0.0
365 1 21.4359627761 35.5201260774 0.0
366 1 28.5389627761 34.6127260774 0.0
367 1 33.7067627761 34.7773260774 0.0
368 1 38.7231627761 34.6111260774 0.0
369 1 43.8527627761 34.9380260774 0.0
370 1 49.2295627761 34.4137260774 0.0
371 1 54.6182627761 33.9641260774 0.0
372 1 60.2003627761 33.7689260774 0.0
373 1 65.3503627761 34.5623260774 0.0
374 1 70.8787627761 34.3557260774 0.0
375 1 75.6269627761 33.4027260774 0.0
376 1 78.2973627761 38.0074260774 0.0
377 1 4.74440277607 38.2294260774 0.0
378 1 9.61181277607 38.9082260774 0.0
379 1 14.9327627761 39.5992260774 0.0
380 1 20.5999627761 39.6515260774 0.0
381 1 26.0230627761 39.0146260774 0.0
382 1 31.3469627761 39.1686260774 0.0
383 1 36.7154627761 39.2235260774 0.0
384 1 42.2673627761 37.5009260774 0.0
385 1 47.0737627761 39.5206260774 0.0
386 1 52.0498627761 38.7694260774 0.0
387 1 57.2252627761 38.3188260774 0.0
388 1 62.3572627761 38.4219260774 0.0
389 1 67.9973627761 38.7100260774 0.0
390 1 73.4668627761 38.3848260774 0.0
391 1 2.16016277607 42.8450260774 0.0
392 1 7.76041277607 41.3053260774 0.0
393 1 11.9137627761 44.1351260774 0.0
394 1 19.5096627761 44.8490260774 0.0
395 1 24.2389627761 43.5233260774 0.0
396 1 29.2194627761 43.7577260774 0.0
397 1 34.3875627761 43.7194260774 0.0
398 1 39.7149627761 43.6420260774 0.0
399 1 44.9948627761 44.1943260774 0.0
400 1 50.1709627761 43.8670260774 0.0
401 1 54.9528627761 43.3415260774 0.0
402 1 59.9017627761 42.6926260774 0.0
403 1 65.2969627761 42.7699260774 0.0
404 1 70.7586627761 43.0981260774 0.0
405 1 75.8739627761 42.7447260774 0.0
406 1 0.513420776073 45.3933260774 0.0
407 1 4.66860277607 48.0636260774 0.0
408 1 9.90456277607 48.2690260774 0.0
409 1 15.5823627761 47.6660260774 0.0
410 1 21.3483627761 47.2219260774 0.0
411 1 26.7634627761 48.1985260774 0.0
412 1 31.9222627761 48.5063260774 0.0
413 1 37.0641627761 48.1684260774 0.0
414 1 42.1824627761 48.3877260774 0.0
415 1 47.6715627761 48.5225260774 0.0
416 1 52.8724627761 48.3190260774 0.0
417 1 57.9176627761 47.6240260774 0.0
418 1 62.8879627761 47.0018260774 0.0
419 1 68.2285627761 47.2200260774 0.0
420 1 73.6483627761 47.5715260774 0.0
421 1 2.15751277607 52.4262260774 0.0
422 1 7.45908277607 52.5019260774 0.0
423 1 12.8233627761 52.6625260774 0.0
424 1 15.8272627761 52.6630260774 0.0
425 1 22.8924627761 51.7201260774 0.0
426 1 30.6122627761 54.1057260774 0.0
427 1 34.8326627761 53.0073260774 0.0
428 1 39.6299627761 52.9883260774 0.0
429 1 44.9088627761 52.7550260774 0.0
430 1 50.3701627761 52.8958260774 0.0
431 1 55.5142627761 52.9809260774 0.0
432 1 58.5286627761 52.9895260774 0.0
433 1 65.0728627761 51.5616260774 0.0
434 1 70.2598627761 51.8403260774 0.0
435 1 75.6688627761 51.9757260774 0.0
436 1 77.6683627761 56.7392260774 0.0
437 1 4.32410277607 56.9708260774 0.0
438 1 9.36437277607 57.1242260774 0.0
439 1 14.2070627761 57.3241260774 0.0
440 1 21.2522627761 57.1866260774 0.0
441 1 25.7591627761 55.7304260774 0.0
442 1 31.9049627761 56.8525260774 0.0
443 1 36.9474627761 58.1371260774 0.0
444 1 41.8065627761 57.1629260774 0.0
445 1 48.9983627761 58.4934260774 0.0
446 1 53.0099627761 57.5933260774 0.0
447 1 58.1111627761 57.4919260774 0.0
448 1 63.1375627761 56.4800260774 0.0
449 1 68.4803627761 54.2911260774 0.0
450 1 72.8431627761 56.8291260774 0.0
451 1 1.98221277607 61.6279260774 0.0
452 1 7.12542277607 61.3386260774 0.0
453 1 12.1355627761 61.9933260774 0.0
454 1 17.5064627761 60.8548260774 0.0
455 1 22.8156627761 59.7309260774 0.0
456 1 29.5506627761 61.7403260774 0.0
457 1 35.6267627761 63.9739260774 0.0
458 1 39.7204627761 62.1949260774 0.0
459 1 44.7837627761 60.9938260774 0.0
460 1 49.9363627761 61.3591260774 0.0
461 1 55.4346627761 62.0853260774 0.0
462 1 60.8427627761 61.4730260774 0.0
463 1 65.6993627761 61.1021260774 0.0
464 1 70.6641627761 61.3561260774 0.0
465 1 75.7914627761 61.3794260774 0.0
466 1 1.72144277607 67.3865260774 0.0
467 1 5.35468277607 65.9015260774 0.0
468 1 9.99216277607 66.2860260774 0.0
469 1 17.2103627761 66.7337260774 0.0
470 1 20.7823627761 64.7436260774 0.0
471 1 25.4884627761 64.3351260774 0.0
472 1 30.5419627761 64.5643260774 0.0
473 1 38.3831627761 67.5122260774 0.0
474 1 43.1887627761 65.7603260774 0.0
475 1 48.5594627761 64.0480260774 0.0
476 1 52.6996627761 66.9181260774 0.0
477 1 58.0113627761 65.8625260774 0.0
478 1 63.2825627761 66.0435260774 0.0
479 1 67.8863627761 66.0821260774 0.0
480 1 73.1590627761 65.3136260774 0.0
481 1 2.98161277607 70.1086260774 0.0
482 1 7.98758277607 70.7983260774 0.0
483 1 13.3287627761 70.2442260774 0.0
484 1 18.8959627761 69.2169260774 0.0
485 1 23.9555627761 69.2883260774 0.0
486 1 29.2354627761 67.2936260774 0.0
487 1 33.8164627761 69.6470260774 0.0
488 1 39.9884627761 70.0475260774 0.0
489 1 45.1875627761 70.3604260774 0.0
490 1 51.7437627761 72.5280260774 0.0
491 1 55.9702627761 70.9479260774 0.0
492 1 60.8380627761 70.0715260774 0.0
493 1 68.5026627761 72.0682260774 0.0
494 1 71.2057627761 69.6923260774 0.0
495 1 76.2789627761 69.8491260774 0.0
496 1 0.364239776073 74.5180260774 0.0
497 1 5.52972277607 74.7675260774 0.0
498 1 11.2563627761 74.5970260774 0.0
499 1 16.8361627761 74.0154260774 0.0
500 1 22.3035627761 71.8358260774 0.0
501 1 27.2057627761 74.3902260774 0.0
502 1 31.9385627761 74.7044260774 0.0
503 1 36.6214627761 74.4805260774 0.0
504 1 41.7025627761 74.6912260774 0.0
505 1 46.9647627761 74.7028260774 0.0
506 1 53.1302627761 75.1857260774 0.0
507 1 58.1553627761 75.8504260774 0.0
508 1 61.1456627761 75.7573260774 0.0
509 1 66.5119627761 74.2819260774 0.0
510 1 73.8619627761 74.4018260774 0.0
511 1 5.53450277607 77.7657260774 0.0
512 1 11.0181627761 77.5902260774 0.0
513 1 16.3263627761 76.9951260774 0.0
514 1 23.9657627761 77.1447260774 0.0
515 1 26.9545627761 77.3927260774 0.0
516 1 31.4116627761 77.7105260774 0.0
517 1 36.3869627761 77.5090260774 0.0
518 1 41.5622627761 77.7014260774 0.0
519 1 46.9595627761 77.7101260774 0.0
520 1 52.4217627761 78.1100260774 0.0
521 1 57.5265627761 78.7652260774 0.0
522 1 62.8109627761 78.2409260774 0.0
523 1 67.6834627761 77.0760260774 0.0
524 1 73.3180627761 77.3515260774 0.0
525 1 0.193908776073 77.5165260774 0.0
526 1 2.80077277607 79.0294260774 0.0
527 1 8.31200277607 78.9334260774 0.0
528 1 13.8164627761 78.6969260774 0.0
529 1 18.7456627761 78.7772260774 0.0
530 1 21.7219627761 79.1407260774 0.0
531 1 29.0151627761 79.5907260774 0.0
532 1 33.9578627761 79.3216260774 0.0
533 1 38.9162627761 79.1584260774 0.0
534 1 44.2559627761 79.0561260774 0.0
535 1 49.6011627761 79.1545260774 0.0
536 1 54.7888627761 79.9758260774 0.0
537 1 60.3062627761 79.8816260774 0.0
538 1 65.6300627761 79.2799260774 0.0
539 1 70.4541627761 78.3015260774 0.0
540 1 76.0012627761 78.7271260774 0.0
541 2 2.74544277607 80.5309260774 0.0
542 2 4.05937277607 1.99020607739 0.0
543 2 1.38731277607 2.02154607739 0.0
544 2 8.17066277607 80.4309260774 0.0
545 2 9.39510277607 1.84046607739 0.0
546 2 6.71559277607 1.94170607739 0.0
547 2 13.6330627761 80.1986260774 0.0
548 2 12.0584627761 1.69383607739 0.0
549 2 14.6424627761 1.78294607739 0.0
550 2 18.4823627761 80.2606260774 0.0
551 2 19.9693627761 1.41009607739 0.0
552 2 17.2387627761 1.83156607739 0.0
553 2 22.2741627761 2.68165607739 0.0
554 2 24.5252627761 3.80930607739 0.0
555 2 22.1206627761 5.22269607739 0.0
556 2 27.1830627761 2.78278607739 0.0
557 2 29.7443627761 2.61362607739 0.0
558 2 28.6813627761 0.356176077387 0.0
559 2 33.7747627761 0.105059077387 0.0
560 2 34.9042627761 2.36561607739 0.0
561 2 32.3287627761 2.45123607739 0.0
562 2 38.8188627761 80.6663260774 0.0
563 2 40.0967627761 2.15275607739 0.0
564 2 37.4910627761 2.27989607739 0.0
565 2 44.1372627761 80.5572260774 0.0
566 2 45.4174627761 1.95020607739 0.0
567 2 42.7377627761 2.10307607739 0.0
568 2 49.5797627761 80.6561260774 0.0
569 2 50.9145627761 2.11498607739 0.0
570 2 48.1738627761 2.02293607739 0.0
571 2 55.0038627761 0.736616077387 0.0
572 2 53.7113627761 2.58997607739 0.0
573 2 56.5096627761 2.98004607739 0.0
574 2 60.4211627761 0.642606077387 0.0
575 2 61.9231627761 2.64023607739 0.0
576 2 59.1761627761 2.80105607739 0.0
577 2 65.7461627761 0.0580660773871 0.0
578 2 67.2222627761 2.14880607739 0.0
579 2 64.5880627761 2.42379607739 0.0
580 2 70.6273627761 79.8051260774 0.0
581 2 72.1571627761 1.34818607739 0.0
582 2 69.7113627761 1.52542607739 0.0
583 2 76.0749627761 80.2281260774 0.0
584 2 77.3658627761 1.84190607739 0.0
585 2 74.7512627761 1.63059607739 0.0
586 2 78.4614627761 4.19497607739 0.0
587 2 1.12458277607 6.37930607739 0.0
588 2 76.9698627761 6.34289607739 0.0
589 2 5.29989277607 4.18170607739 0.0
590 2 6.54811277607 6.35159607739 0.0
591 2 3.83645277607 6.35152607739 0.0
592 2 10.6535627761 3.96899607739 0.0
593 2 11.8894627761 6.12749607739 0.0
594 2 9.22025277607 6.20907607739 0.0
595 2 15.9812627761 4.05628607739 0.0
596 2 17.2553627761 6.37936607739 0.0
597 2 14.6125627761 6.14570607739 0.0
598 2 22.4032627761 7.57785607739 0.0
599 2 19.8573627761 6.94439607739 0.0
600 2 26.1898627761 5.33026607739 0.0
601 2 27.4868627761 7.55157607739 0.0
602 2 24.9019627761 7.68696607739 0.0
603 2 31.1475627761 4.84643607739 0.0
604 2 32.4852627761 7.17439607739 0.0
605 2 30.0122627761 7.30030607739 0.0
606 2 36.1789627761 4.61453607739 0.0
607 2 37.4850627761 6.83250607739 0.0
608 2 34.9638627761 7.05309607739 0.0
609 2 41.3634627761 4.36956607739 0.0
610 2 42.6460627761 6.57672607739 0.0
611 2 40.0587627761 6.72418607739 0.0
612 2 46.6384627761 4.09095607739 0.0
613 2 47.8117627761 6.32519607739 0.0
614 2 45.2377627761 6.37690607739 0.0
615 2 52.0238627761 4.34137607739 0.0
616 2 53.0418627761 6.71818607739 0.0
617 2 50.4630627761 6.40732607739 0.0
618 2 58.3414627761 7.19360607739 0.0
619 2 58.6235627761 4.93321607739 0.0
620 2 61.0063627761 6.26175607739 0.0
621 2 62.9963627761 4.69236607739 0.0
622 2 63.8610627761 6.87188607739 0.0
623 2 69.1484627761 6.40917607739 0.0
624 2 69.3381627761 3.94268607739 0.0
625 2 71.6044627761 5.36166607739 0.0
626 2 73.2999627761 3.73527607739 0.0
627 2 74.3216627761 6.15266607739 0.0
628 2 3.91344277607 10.6408260774 0.0
629 2 2.49850277607 8.54185607739 0.0
630 2 1.14354277607 10.6954260774 0.0
631 2 8.00932277607 8.48083607739 0.0
632 2 9.47515277607 10.5807260774 0.0
633 2 6.69593277607 10.6059260774 0.0
634 2 13.3243627761 8.27280607739 0.0
635 2 15.0606627761 9.86592607739 0.0
636 2 12.2331627761 10.5378260774 0.0
637 2 17.2362627761 11.1565260774 0.0
638 2 19.3347627761 12.7539260774 0.0
639 2 16.7971627761 13.6282260774 0.0
640 2 23.4435627761 9.98072607739 0.0
641 2 24.7160627761 12.1152260774 0.0
642 2 22.0545627761 12.2983260774 0.0
643 2 28.8083627761 9.75532607739 0.0
644 2 30.0967627761 11.9851260774 0.0
645 2 27.4224627761 11.9984260774 0.0
646 2 33.8891627761 9.49152607739 0.0
647 2 35.2488627761 11.8454260774 0.0
648 2 32.7116627761 11.8203260774 0.0
649 2 38.7408627761 9.06911607739 0.0
650 2 40.2307627761 10.9608260774 0.0
651 2 37.6773627761 11.6251260774 0.0
652 2 44.2626627761 8.71217607739 0.0
653 2 45.6991627761 11.0470260774 0.0
654 2 43.0444627761 10.7744260774 0.0
655 2 49.1726627761 8.55707607739 0.0
656 2 50.8776627761 10.2498260774 0.0
657 2 48.2224627761 10.9741260774 0.0
658 2 53.2037627761 11.5029260774 0.0
659 2 55.5328627761 11.8767260774 0.0
660 2 53.6350627761 14.0024260774 0.0
661 2 58.1190627761 11.6486260774 0.0
662 2 60.8749627761 12.2016260774 0.0
663 2 58.8682627761 13.8391260774 0.0
664 2 64.9297627761 9.05793607739 0.0
665 2 66.1967627761 11.1581260774 0.0
666 2 63.5519627761 11.3456260774 0.0
667 2 69.2133627761 8.77795607739 0.0
668 2 71.4875627761 10.5632260774 0.0
669 2 68.8693627761 10.9662260774 0.0
670 2 75.5977627761 8.49550607739 0.0
671 2 76.9773627761 10.7088260774 0.0
672 2 74.2380627761 10.6301260774 0.0
673 2 0.0115087760733 12.8655260774 0.0
674 2 1.70579277607 15.0207260774 0.0
675 2 78.0629627761 15.5635260774 0.0
676 2 5.39159277607 12.7335260774 0.0
677 2 6.76069277607 15.0149260774 0.0
678 2 4.22495277607 15.0660260774 0.0
679 2 10.7229627761 12.7063260774 0.0
680 2 11.8241627761 15.0261260774 0.0
681 2 9.29282277607 15.0253260774 0.0
682 2 16.7276627761 16.0633260774 0.0
683 2 14.4348627761 15.2552260774 0.0
684 2 20.7911627761 14.6637260774 0.0
685 2 21.1956627761 17.4879260774 0.0
686 2 19.0952627761 16.6244260774 0.0
687 2 26.0300627761 14.2476260774 0.0
688 2 27.5234627761 16.2224260774 0.0
689 2 25.2937627761 17.0361260774 0.0
690 2 31.6342627761 14.1637260774 0.0
691 2 32.4874627761 16.9361260774 0.0
692 2 30.2346627761 16.1906260774 0.0
693 2 36.5248627761 17.0742260774 0.0
694 2 38.4907627761 16.0369260774 0.0
695 2 36.7117627761 14.1561260774 0.0
696 2 41.8186627761 12.8719260774 0.0
697 2 43.3211627761 15.0421260774 0.0
698 2 40.9077627761 15.3724260774 0.0
699 2 47.2850627761 13.3179260774 0.0
700 2 48.0486627761 16.1780260774 0.0
701 2 45.9483627761 15.2706260774 0.0
702 2 54.5669627761 16.1333260774 0.0
703 2 52.2669627761 16.6113260774 0.0
704 2 59.5263627761 16.2086260774 0.0
705 2 57.0977627761 16.0068260774 0.0
706 2 62.7800627761 13.7300260774 0.0
707 2 64.3246627761 15.9958260774 0.0
708 2 61.9283627761 16.1740260774 0.0
709 2 67.6332627761 13.2277260774 0.0
710 2 69.0642627761 15.3747260774 0.0
711 2 66.6673627761 15.7599260774 0.0
712 2 72.8404627761 12.7653260774 0.0
713 2 73.6791627761 15.4769260774 0.0
714 2 71.5244627761 15.1316260774 0.0
715 2 2.88426277607 17.3735260774 0.0
716 2 3.93747277607 19.8045260774 0.0
717 2 1.33855277607 19.4099260774 0.0
718 2 7.80392277607 17.3376260774 0.0
719 2 8.85584277607 19.6639260774 0.0
720 2 6.38702277607 19.7310260774 0.0
721 2 12.8815627761 17.3773260774 0.0
722 2 13.6934627761 19.9735260774 0.0
723 2 11.3634627761 19.6085260774 0.0
724 2 16.0558627761 20.7556260774 0.0
725 2 18.7510627761 20.9019260774 0.0
726 2 17.5341627761 18.6786260774 0.0
727 2 23.2249627761 18.6862260774 0.0
728 2 21.0339627761 20.2207260774 0.0
729 2 28.8963627761 18.3312260774 0.0
730 2 30.2640627761 20.4586260774 0.0
731 2 27.5904627761 20.5158260774 0.0
732 2 34.6203627761 18.4538260774 0.0
733 2 32.4788627761 19.6747260774 0.0
734 2 40.9404627761 20.4856260774 0.0
735 2 40.5934627761 17.8308260774 0.0
736 2 42.9259627761 19.0412260774 0.0
737 2 44.5363627761 17.3390260774 0.0
738 2 45.6498627761 19.6594260774 0.0
739 2 49.9973627761 17.7419260774 0.0
740 2 47.8416627761 18.9781260774 0.0
741 2 55.6989627761 18.3378260774 0.0
742 2 56.6455627761 20.6828260774 0.0
743 2 54.0352627761 20.3139260774 0.0
744 2 60.5857627761 18.5537260774 0.0
745 2 59.1883627761 20.8137260774 0.0
746 2 61.8349627761 20.6461260774 0.0
747 2 67.0326627761 20.6381260774 0.0
748 2 65.7340627761 18.2839260774 0.0
749 2 64.4927627761 20.5010260774 0.0
750 2 70.2287627761 17.5861260774 0.0
751 2 71.6822627761 19.3992260774 0.0
752 2 69.3030627761 20.2827260774 0.0
753 2 75.8530627761 16.8169260774 0.0
754 2 73.8025627761 18.2180260774 0.0
755 2 77.5173627761 23.5127260774 0.0
756 2 1.12135277607 24.9244260774 0.0
757 2 77.1331627761 25.9607260774 0.0
758 2 5.23478277607 22.1602260774 0.0
759 2 6.58665277607 24.4329260774 0.0
760 2 3.91933277607 24.3703260774 0.0
761 2 10.2266627761 21.9608260774 0.0
762 2 11.8910627761 23.8063260774 0.0
763 2 9.19141277607 24.3275260774 0.0
764 2 14.2799627761 25.1294260774 0.0
765 2 16.6827627761 26.2855260774 0.0
766 2 14.4339627761 27.6623260774 0.0
767 2 20.3453627761 22.9439260774 0.0
768 2 21.9480627761 24.8823260774 0.0
769 2 19.3187627761 25.4014260774 0.0
770 2 26.0695627761 22.5335260774 0.0
771 2 27.4684627761 24.6892260774 0.0
772 2 24.7258627761 24.6718260774 0.0
773 2 31.7019627761 22.4600260774 0.0
774 2 32.8299627761 24.7652260774 0.0
775 2 30.1873627761 24.6165260774 0.0
776 2 36.9697627761 22.7294260774 0.0
777 2 38.0898627761 25.0593260774 0.0
778 2 35.4622627761 24.8855260774 0.0
779 2 41.2886627761 23.0812260774 0.0
780 2 43.4562627761 24.8826260774 0.0
781 2 40.7374627761 25.2326260774 0.0
782 2 47.1445627761 21.7616260774 0.0
783 2 48.4338627761 24.0745260774 0.0
784 2 45.9711627761 24.2114260774 0.0
785 2 52.4298627761 22.1992260774 0.0
786 2 53.5561627761 24.6825260774 0.0
787 2 51.0246627761 24.3058260774 0.0