# input file

1350 atoms
2 atom types

0.0 76.8281239861 xlo xhi
0.0 82.5219197349 ylo yhi
-10.0 10.0 zlo zhi
0.0 0.0 0.0 xy xz yz

Masses

1 28.0855 #Si
2 15.9994 #O

Atoms

1 1 1.89021976992 1.63219986745 0.0
2 1 6.80106976992 1.41347986745 0.0
3 1 11.9732997699 1.66194986745 0.0
4 1 16.8751997699 1.77826986745 0.0
5 1 22.3970997699 1.60848986745 0.0
6 1 29.5142997699 0.718481867454 0.0
7 1 32.4926997699 1.21532986745 0.0
8 1 37.8353997699 2.07545986745 0.0
9 1 43.7253997699 1.79475986745 0.0
10 1 49.1518997699 1.25857986745 0.0
11 1 53.6021997699 2.39058986745 0.0
12 1 58.4236997699 2.22231986745 0.0
13 1 64.0712997699 1.78913986745 0.0
14 1 69.2244997699 1.15593986745 0.0
15 1 74.0906997699 0.992518867454 0.0
16 1 76.6624997699 6.14071986745 0.0
17 1 4.91298976992 6.15510986745 0.0
18 1 9.30739976992 8.26486986745 0.0
19 1 14.7430997699 6.44065986745 0.0
20 1 19.5364997699 5.96623986745 0.0
21 1 24.7474997699 6.29022986745 0.0
22 1 29.7741997699 5.57403986745 0.0
23 1 35.2074997699 5.95410986745 0.0
24 1 39.2605997699 4.74144986745 0.0
25 1 46.1437997699 5.76351986745 0.0
26 1 51.0609997699 6.64862986745 0.0
27 1 56.2675997699 7.03070986745 0.0
28 1 59.9817997699 4.83249986745 0.0
29 1 66.8460997699 5.99935986745 0.0
30 1 71.7313997699 5.86606986745 0.0
31 1 2.49915976992 10.7553598675 0.0
32 1 7.71424976992 10.8014598675 0.0
33 1 12.7693997699 11.1099598675 0.0
34 1 17.4752997699 11.0288598675 0.0
35 1 22.3996997699 10.5740598675 0.0
36 1 29.2625997699 9.90875986745 0.0
37 1 32.2539997699 10.0354098675 0.0
38 1 38.4182997699 10.4096598675 0.0
39 1 43.3998997699 10.2768598675 0.0
40 1 48.3343997699 10.8007598675 0.0
41 1 53.7343997699 11.2620598675 0.0
42 1 59.0849997699 10.8067598675 0.0
43 1 63.8891997699 10.4595598675 0.0
44 1 69.0967997699 10.6913598675 0.0
45 1 74.1938997699 10.7211598675 0.0
46 1 0.0677297699201 15.3096598675 0.0
47 1 5.25579976992 15.2673598675 0.0
48 1 10.5955997699 15.4877598675 0.0
49 1 14.6465997699 18.2920598675 0.0
50 1 21.4348997699 15.1722598675 0.0
51 1 24.4239997699 15.3481598675 0.0
52 1 29.3322997699 15.0243598675 0.0
53 1 33.7047997699 12.6795598675 0.0
54 1 40.8076997699 15.0928598675 0.0
55 1 46.9994997699 14.9821598675 0.0
56 1 50.0059997699 15.1555598675 0.0
57 1 55.2232997699 15.1420598675 0.0
58 1 61.4528997699 15.5264598675 0.0
59 1 66.7454997699 15.1204598675 0.0
60 1 71.8723997699 15.3142598675 0.0
61 1 2.62766976992 19.8189598675 0.0
62 1 7.74193976992 19.7364598675 0.0
63 1 12.9466997699 20.7652598675 0.0
64 1 17.8949997699 21.6215598675 0.0
65 1 22.6120997699 20.1933598675 0.0
66 1 28.1231997699 19.6773598675 0.0
67 1 33.1736997699 18.2468598675 0.0
68 1 37.1056997699 21.1439598675 0.0
69 1 42.4482997699 20.2265598675 0.0
70 1 47.4429997699 20.4354598675 0.0
71 1 53.8160997699 19.3985598675 0.0
72 1 59.4444997699 20.8346598675 0.0
73 1 64.7562997699 19.7212598675 0.0
74 1 69.7726997699 19.7821598675 0.0
75 1 74.7000997699 19.9746598675 0.0
76 1 0.76686976992 24.7245598675 0.0
77 1 5.49478976992 24.3251598675 0.0
78 1 9.95969976992 26.7558598675 0.0
79 1 15.6270997699 25.7304598675 0.0
80 1 21.0911997699 25.4979598675 0.0
81 1 26.0347997699 24.0404598675 0.0
82 1 31.2326997699 23.4335598675 0.0
83 1 35.9945997699 23.9477598675 0.0
84 1 40.7947997699 24.8479598675 0.0
85 1 45.5752997699 24.9182598675 0.0
86 1 49.6109997699 22.5838598675 0.0
87 1 57.6273997699 23.2633598675 0.0
88 1 62.5608997699 24.5184598675 0.0
89 1 67.6290997699 24.3997598675 0.0
90 1 72.6123997699 24.5914598675 0.0
91 1 3.50260976992 29.3993598675 0.0
92 1 8.61829976992 29.4278598675 0.0
93 1 13.5117997699 29.9508598675 0.0
94 1 18.8225997699 29.8010598675 0.0
95 1 25.6312997699 28.7257598675 0.0
96 1 28.5745997699 28.1929598675 0.0
97 1 33.2097997699 28.5249598675 0.0
98 1 37.9817997699 29.1031598675 0.0
99 1 43.1039997699 29.7053598675 0.0
100 1 49.0606997699 28.4302598675 0.0
101 1 54.3973997699 27.3307598675 0.0
102 1 59.5801997699 28.4417598675 0.0
103 1 64.9169997699 29.0518598675 0.0
104 1 70.0824997699 29.1888598675 0.0
105 1 75.2515997699 29.3640598675 0.0
106 1 0.74944976992 34.0247598675 0.0
107 1 7.41203976992 33.6942598675 0.0
108 1 10.3604997699 34.3149598675 0.0
109 1 15.5695997699 34.1543598675 0.0
110 1 20.8189997699 34.4386598675 0.0
111 1 25.5689997699 34.0827598675 0.0
112 1 30.6032997699 33.2729598675 0.0
113 1 35.6925997699 33.6018598675 0.0
114 1 40.5107997699 33.9118598675 0.0
115 1 44.8877997699 32.1264598675 0.0
116 1 51.7664997699 32.1735598675 0.0
117 1 56.7591997699 32.3042598675 0.0
118 1 62.0893997699 33.1050598675 0.0
119 1 67.1815997699 33.6596598675 0.0
120 1 72.3719997699 33.8270598675 0.0
121 1 2.49417976992 39.0453598675 0.0
122 1 7.36003976992 38.9574598675 0.0
123 1 14.6915997699 38.2309598675 0.0
124 1 17.6756997699 38.6734598675 0.0
125 1 23.1485997699 39.0522598675 0.0
126 1 28.1652997699 38.2495598675 0.0
127 1 33.2622997699 38.0179598675 0.0
128 1 38.3055997699 38.5539598675 0.0
129 1 43.5222997699 37.7809598675 0.0
130 1 48.7301997699 36.8334598675 0.0
131 1 53.7832997699 36.8749598675 0.0
132 1 59.0416997699 37.0116598675 0.0
133 1 64.1804997699 37.9608598675 0.0
134 1 69.3484997699 38.2594598675 0.0
135 1 74.4484997699 38.4244598675 0.0
136 1 76.8055997699 43.4480598675 0.0
137 1 4.86643976992 43.7588598675 0.0
138 1 9.67819976992 43.5338598675 0.0
139 1 14.7591997699 43.0051598675 0.0
140 1 20.6435997699 43.0874598675 0.0
141 1 26.1792997699 43.2452598675 0.0
142 1 31.2930997699 42.6759598675 0.0
143 1 35.9940997699 45.1258598675 0.0
144 1 41.3142997699 42.6767598675 0.0
145 1 46.3954997699 41.7987598675 0.0
146 1 51.7183997699 41.4971598675 0.0
147 1 56.7487997699 41.3627598675 0.0
148 1 61.1529997699 44.1394598675 0.0
149 1 66.7013997699 42.6568598675 0.0
150 1 71.8542997699 42.9458598675 0.0
151 1 2.67210976992 48.3293598675 0.0
152 1 7.57031976992 48.4239598675 0.0
153 1 12.4333997699 47.8232598675 0.0
154 1 17.9101997699 46.6956598675 0.0
155 1 23.5497997699 47.4080598675 0.0
156 1 29.1843997699 47.5553598675 0.0
157 1 34.7251997699 47.8819598675 0.0
158 1 39.7675997699 47.5083598675 0.0
159 1 44.6372997699 46.8107598675 0.0
160 1 49.4972997699 46.0503598675 0.0
161 1 54.6458997699 46.1031598675 0.0
162 1 59.5969997699 46.7086598675 0.0
163 1 64.6501997699 47.2042598675 0.0
164 1 69.6325997699 47.3274598675 0.0
165 1 74.4956997699 47.8649598675 0.0
166 1 0.22581976992 52.7409598675 0.0
167 1 5.56864976992 53.1033598675 0.0
168 1 10.6011997699 52.8290598675 0.0
169 1 15.8969997699 51.2773598675 0.0
170 1 20.8600997699 52.6242598675 0.0
171 1 26.5220997699 51.6491598675 0.0
172 1 31.7510997699 52.0245598675 0.0
173 1 38.9954997699 51.8807598675 0.0
174 1 42.0224997699 51.8694598675 0.0
175 1 48.6099997699 50.8880598675 0.0
176 1 51.6166997699 50.6074598675 0.0
177 1 56.8159997699 51.1172598675 0.0
178 1 61.8834997699 51.5166598675 0.0
179 1 67.0920997699 51.9218598675 0.0
180 1 71.9051997699 52.3428598675 0.0
181 1 2.69312976992 57.3098598675 0.0
182 1 8.26618976992 57.6723598675 0.0
183 1 14.4604997699 56.0969598675 0.0
184 1 19.6643997699 55.3595598675 0.0
185 1 23.1057997699 58.6594598675 0.0
186 1 28.4906997699 56.3478598675 0.0
187 1 33.6633997699 56.8526598675 0.0
188 1 38.5152997699 56.9650598675 0.0
189 1 43.9213997699 57.0497598675 0.0
190 1 48.6427997699 56.1300598675 0.0
191 1 54.0595997699 55.3907598675 0.0
192 1 60.7158997699 55.5725598675 0.0
193 1 63.6869997699 56.0933598675 0.0
194 1 68.7044997699 56.8549598675 0.0
195 1 74.0570997699 57.0764598675 0.0
196 1 76.3629997699 61.4594598675 0.0
197 1 4.97674976992 61.6251598675 0.0
198 1 10.5665997699 59.6654598675 0.0
199 1 16.3038997699 59.9997598675 0.0
200 1 20.9554997699 60.7786598675 0.0
201 1 26.1245997699 61.1785598675 0.0
202 1 31.3510997699 61.0951598675 0.0
203 1 35.9239997699 61.6956598675 0.0
204 1 40.9600997699 61.3929598675 0.0
205 1 48.0448997699 61.0803598675 0.0
206 1 52.3815997699 59.9138598675 0.0
207 1 55.3554997699 60.2729598675 0.0
208 1 60.3233997699 60.9594598675 0.0
209 1 65.5578997699 61.0946598675 0.0
210 1 70.8928997699 61.3373598675 0.0
211 1 1.98813976992 65.8422598675 0.0
212 1 7.11922976992 66.1730598675 0.0
213 1 12.2706997699 65.1777598675 0.0
214 1 17.7872997699 65.2544598675 0.0
215 1 22.6872997699 65.3617598675 0.0
216 1 28.1843997699 65.4982598675 0.0
217 1 32.8035997699 66.2847598675 0.0
218 1 37.8506997699 66.1331598675 0.0
219 1 42.7746997699 66.3479598675 0.0
220 1 47.6376997699 66.1164598675 0.0
221 1 52.2097997699 65.1193598675 0.0
222 1 57.4504997699 65.2573598675 0.0
223 1 62.7757997699 65.5858598675 0.0
224 1 67.9713997699 65.6525598675 0.0
225 1 73.3356997699 65.6723598675 0.0
226 1 76.0827997699 70.0016598675 0.0
227 1 4.48175976992 70.5829598675 0.0
228 1 9.88379976992 70.1313598675 0.0
229 1 15.3583997699 69.5243598675 0.0
230 1 21.9948997699 69.5347598675 0.0
231 1 25.0314997699 69.5551598675 0.0
232 1 29.5957997699 72.4586598675 0.0
233 1 35.2157997699 70.8641598675 0.0
234 1 40.4233997699 70.9430598675 0.0
235 1 45.6994997699 70.9452598675 0.0
236 1 51.1369997699 70.3896598675 0.0
237 1 55.6249997699 69.6143598675 0.0
238 1 60.3503997699 72.0184598675 0.0
239 1 65.7252997699 70.1907598675 0.0
240 1 70.7715997699 70.0666598675 0.0
241 1 2.26586976992 76.7918598675 0.0
242 1 7.63858976992 74.6787598675 0.0
243 1 12.8462997699 74.0595598675 0.0
244 1 17.4628997699 76.6259598675 0.0
245 1 22.5024997699 74.5209598675 0.0
246 1 27.8834997699 74.9380598675 0.0
247 1 33.2790997699 75.3291598675 0.0
248 1 38.4055997699 75.3805598675 0.0
249 1 43.2840997699 75.3937598675 0.0
250 1 48.6480997699 74.9230598675 0.0
251 1 53.9635997699 75.0496598675 0.0
252 1 59.1601997699 74.7879598675 0.0
253 1 64.1355997699 74.9785598675 0.0
254 1 68.9853997699 74.7514598675 0.0
255 1 74.1662997699 74.3737598675 0.0
256 1 76.1621997699 3.17203986745 0.0
257 1 4.41528976992 3.21564986745 0.0
258 1 9.30789976992 3.02928986745 0.0
259 1 14.3904997699 3.45851986745 0.0
260 1 19.6701997699 2.94187986745 0.0
261 1 24.8940997699 3.29816986745 0.0
262 1 27.9016997699 3.22496986745 0.0
263 1 34.9577997699 2.95400986745 0.0
264 1 42.2513997699 4.46103986745 0.0
265 1 46.5565997699 2.77724986745 0.0
266 1 50.9140997699 3.66822986745 0.0
267 1 56.0642997699 4.05275986745 0.0
268 1 62.9675997699 4.62284986745 0.0
269 1 66.8327997699 2.97717986745 0.0
270 1 71.7119997699 2.84024986745 0.0
271 1 2.37707976992 7.75384986745 0.0
272 1 7.86930976992 5.66060986745 0.0
273 1 12.2985997699 8.16468986745 0.0
274 1 17.3126997699 8.00659986745 0.0
275 1 22.0575997699 7.59750986745 0.0
276 1 27.4887997699 7.50659986745 0.0
277 1 32.4143997699 7.03536986745 0.0
278 1 37.8432997699 7.41676986745 0.0
279 1 43.5130997699 7.22147986745 0.0
280 1 48.3169997699 7.81466986745 0.0
281 1 53.5610997699 8.28375986745 0.0
282 1 59.1604997699 7.76836986745 0.0
283 1 64.1881997699 7.41031986745 0.0
284 1 69.3310997699 7.68324986745 0.0
285 1 74.1070997699 7.71151986745 0.0
286 1 76.7539997699 12.3037598675 0.0
287 1 5.09564976992 12.2633598675 0.0
288 1 10.1420997699 12.5392598675 0.0
289 1 15.1422997699 12.9225598675 0.0
290 1 20.0976997699 12.4865598675 0.0
291 1 24.7922997699 12.3759598675 0.0
292 1 27.7718997699 12.4769598675 0.0
293 1 36.7022997699 12.8961598675 0.0
294 1 40.9553997699 12.0535598675 0.0
295 1 45.7084997699 12.2451598675 0.0
296 1 50.9256997699 12.3092598675 0.0
297 1 56.5076997699 12.4116598675 0.0
298 1 61.6029997699 12.4743598675 0.0
299 1 66.4335997699 12.1081598675 0.0
300 1 71.6396997699 12.3095598675 0.0
301 1 2.67225976992 16.8122598675 0.0
302 1 7.87433976992 16.7467598675 0.0
303 1 13.5972997699 15.4984598675 0.0
304 1 17.6185997699 18.6499598675 0.0
305 1 20.5407997699 18.0139598675 0.0
306 1 26.9999997699 16.8991598675 0.0
307 1 32.3137997699 15.3557598675 0.0
308 1 37.8414997699 15.7029598675 0.0
309 1 42.9396997699 17.2654598675 0.0
310 1 45.9287997699 17.7906598675 0.0
311 1 52.6121997699 16.6405598675 0.0
312 1 56.4222997699 17.8827598675 0.0
313 1 64.2143997699 16.7548598675 0.0
314 1 69.2608997699 16.8047598675 0.0
315 1 74.3905997699 16.9730598675 0.0
316 1 0.31612976992 21.7356598675 0.0
317 1 5.20627976992 21.3390598675 0.0
318 1 10.0686997699 21.6121598675 0.0
319 1 15.1476997699 22.7880598675 0.0
320 1 20.7423997699 22.5318598675 0.0
321 1 25.4790997699 21.0976598675 0.0
322 1 31.0527997699 20.4164598675 0.0
323 1 36.1954997699 18.2616598675 0.0
324 1 40.0022997699 21.9464598675 0.0
325 1 44.8814997699 21.9982598675 0.0
326 1 52.6209997699 22.1816598675 0.0
327 1 59.4297997699 17.8118598675 0.0
328 1 62.3639997699 21.5340598675 0.0
329 1 67.2517997699 21.4095598675 0.0
330 1 72.1788997699 21.6023598675 0.0
331 1 3.29296976992 26.3794598675 0.0
332 1 8.48990976992 24.1624598675 0.0
333 1 12.9367997699 27.0254598675 0.0
334 1 18.4148997699 26.8401598675 0.0
335 1 23.9907997699 26.2275598675 0.0
336 1 28.8029997699 25.1972598675 0.0
337 1 33.4200997699 25.5005598675 0.0
338 1 38.0819997699 26.1066598675 0.0
339 1 43.1673997699 26.6982598675 0.0
340 1 48.5345997699 25.4334598675 0.0
341 1 54.7784997699 24.3125598675 0.0
342 1 59.7077997699 25.4427598675 0.0
343 1 65.1300997699 26.0601598675 0.0
344 1 70.0598997699 26.1746598675 0.0
345 1 75.0643997699 26.3492598675 0.0
346 1 0.95389976992 31.0098598675 0.0
347 1 6.06698976992 30.9890598675 0.0
348 1 10.8935997699 31.3767598675 0.0
349 1 16.2021997699 31.2371598675 0.0
350 1 21.2916997699 31.4858598675 0.0
351 1 24.2788997699 31.3832598675 0.0
352 1 30.7481997699 30.2577598675 0.0
353 1 35.3921997699 30.6007598675 0.0
354 1 40.3656997699 30.9154598675 0.0
355 1 47.7479997699 31.1842598675 0.0
356 1 51.9803997699 29.1563598675 0.0
357 1 56.6970997699 29.2924598675 0.0
358 1 62.0986997699 30.0999598675 0.0
359 1 67.4559997699 30.6633598675 0.0
360 1 72.6140997699 30.8222598675 0.0
361 1 2.95237976992 36.0807598675 0.0
362 1 5.94840976992 36.3001598675 0.0
363 1 13.0210997699 35.7252598675 0.0
364 1 18.1218997699 35.7194598675 0.0
365 1 23.3292997699 36.0647598675 0.0
366 1 28.3271997699 35.2394598675 0.0
367 1 33.0503997699 35.0172598675 0.0
368 1 37.9950997699 35.5508598675 0.0
369 1 43.3928997699 34.7593598675 0.0
370 1 49.2361997699 33.8195598675 0.0
371 1 54.2156997699 33.8997598675 0.0
372 1 59.2308997699 34.0182598675 0.0
373 1 64.4637997699 34.9599598675 0.0
374 1 69.7234997699 35.2700598675 0.0
375 1 74.9132997699 35.4436598675 0.0
376 1 76.6747997699 40.4428598675 0.0
377 1 4.96060976992 40.7581598675 0.0
378 1 9.91329976992 40.5455598675 0.0
379 1 12.9184997699 40.6285598675 0.0
380 1 20.3323997699 40.1050598675 0.0
381 1 25.9080997699 40.2449598675 0.0
382 1 30.7840997699 39.7135598675 0.0
383 1 35.6046997699 39.9056598675 0.0
384 1 41.1271997699 39.6514598675 0.0
385 1 46.3774997699 38.7636598675 0.0
386 1 51.2534997699 38.5050598675 0.0
387 1 56.3739997699 38.3877598675 0.0
388 1 61.3363997699 38.9465598675 0.0
389 1 66.6761997699 39.6465598675 0.0
390 1 71.8474997699 39.9334598675 0.0
391 1 2.31916976992 45.3362598675 0.0
392 1 7.35577976992 45.4275598675 0.0
393 1 12.3808997699 44.8325598675 0.0
394 1 17.6917997699 43.7164598675 0.0
395 1 23.3814997699 44.3979598675 0.0
396 1 28.9170997699 44.5440598675 0.0
397 1 34.3097997699 42.6343598675 0.0
398 1 38.9796997699 44.6115598675 0.0
399 1 44.1244997699 43.8158598675 0.0
400 1 49.1386997699 43.0588598675 0.0
401 1 54.2899997699 43.1005598675 0.0
402 1 59.7510997699 41.4986598675 0.0
403 1 64.1562997699 44.2511598675 0.0
404 1 69.1983997699 44.3467598675 0.0
405 1 74.1685997699 44.8711598675 0.0
406 1 0.0241997699201 49.7366598675 0.0
407 1 5.09687976992 50.1208598675 0.0
408 1 10.2124997699 49.8461598675 0.0
409 1 15.3826997699 48.3321598675 0.0
410 1 20.5846997699 48.0627598675 0.0
411 1 26.3407997699 48.6359598675 0.0
412 1 31.8805997699 48.9874598675 0.0
413 1 37.3792997699 49.3335598675 0.0
414 1 42.4445997699 48.8808598675 0.0
415 1 47.3426997699 48.1455598675 0.0
416 1 52.0565997699 47.6268598675 0.0
417 1 56.9218997699 48.0860598675 0.0
418 1 61.9690997699 48.5318598675 0.0
419 1 67.1013997699 48.9236598675 0.0
420 1 71.8786997699 49.3283598675 0.0
421 1 2.80519976992 54.3043598675 0.0
422 1 8.18198976992 54.6416598675 0.0
423 1 13.5903997699 53.2276598675 0.0
424 1 18.8021997699 50.4883598675 0.0
425 1 23.8316997699 53.0019598675 0.0
426 1 29.0192997699 53.3586598675 0.0
427 1 34.1552997699 53.8858598675 0.0
428 1 37.1617997699 54.2595598675 0.0
429 1 44.1552997699 54.0290598675 0.0
430 1 47.1334997699 53.5186598675 0.0
431 1 54.0694997699 52.3736598675 0.0
432 1 59.2441997699 52.9330598675 0.0
433 1 64.3779997699 53.1806598675 0.0
434 1 69.3374997699 53.9083598675 0.0
435 1 74.3599997699 54.0808598675 0.0
436 1 76.7314997699 58.4737598675 0.0
437 1 5.40154976992 58.6483598675 0.0
438 1 13.4873997699 58.9301598675 0.0
439 1 17.2590997699 57.1523598675 0.0
440 1 22.6243997699 55.7348598675 0.0
441 1 26.0904997699 58.1948598675 0.0
442 1 30.9410997699 58.1119598675 0.0
443 1 36.0498997699 58.6876598675 0.0
444 1 41.1958997699 58.3735598675 0.0
445 1 46.6475997699 58.3857598675 0.0
446 1 51.5256997699 57.0217598675 0.0
447 1 56.2907997699 57.4240598675 0.0
448 1 59.2102997699 58.1549598675 0.0
449 1 65.9446997699 58.0970598675 0.0
450 1 71.3180997699 58.3561598675 0.0
451 1 2.21495976992 62.8432598675 0.0
452 1 7.53982976992 63.2071598675 0.0
453 1 10.5145997699 62.6912598675 0.0
454 1 18.3059997699 62.2558598675 0.0
455 1 23.4150997699 62.4749598675 0.0
456 1 28.7581997699 62.5750598675 0.0
457 1 33.3856997699 63.3120598675 0.0
458 1 38.5271997699 63.1875598675 0.0
459 1 43.2219997699 63.3791598675 0.0
460 1 46.2247997699 63.4557598675 0.0
461 1 50.7600997699 62.4387598675 0.0
462 1 57.6121997699 62.2616598675 0.0
463 1 62.9013997699 62.5517598675 0.0
464 1 68.1579997699 62.6368598675 0.0
465 1 73.5961997699 62.6751598675 0.0
466 1 76.0385997699 67.0011598675 0.0
467 1 4.45444976992 67.5716598675 0.0
468 1 9.96789976992 67.1297598675 0.0
469 1 15.0211997699 66.5012598675 0.0
470 1 20.2272997699 67.0650598675 0.0
471 1 25.4047997699 66.5937598675 0.0
472 1 30.1545997699 67.7384598675 0.0
473 1 35.3707997699 67.8498598675 0.0
474 1 40.2413997699 67.9447598675 0.0
475 1 45.2933997699 67.9758598675 0.0
476 1 50.3331997699 67.4672598675 0.0
477 1 54.8030997699 66.6932598675 0.0
478 1 60.0130997699 66.8382598675 0.0
479 1 65.3588997699 67.1813598675 0.0
480 1 70.6499997699 67.0533598675 0.0
481 1 1.69813976992 71.7547598675 0.0
482 1 7.29341976992 71.6876598675 0.0
483 1 12.7472997699 71.0568598675 0.0
484 1 17.5589997699 71.6249598675 0.0
485 1 20.5592997699 72.1751598675 0.0
486 1 28.0380997699 69.9030598675 0.0
487 1 32.6212997699 72.4051598675 0.0
488 1 37.8053997699 72.4248598675 0.0
489 1 43.0627997699 72.3958598675 0.0
490 1 48.5450997699 71.9244598675 0.0
491 1 53.7227997699 71.9872598675 0.0
492 1 58.6525997699 69.5330598675 0.0
493 1 63.3680997699 72.0698598675 0.0
494 1 68.3006997699 71.7939598675 0.0
495 1 73.4485997699 71.4508598675 0.0
496 1 0.36351976992 74.4555598675 0.0
497 1 5.31030976992 76.5973598675 0.0
498 1 10.4285997699 75.8654598675 0.0
499 1 15.8481997699 74.1084598675 0.0
500 1 20.4522997699 76.7010598675 0.0
501 1 25.0940997699 76.1225598675 0.0
502 1 30.4876997699 76.4273598675 0.0
503 1 35.8329997699 76.9197598675 0.0
504 1 40.8464997699 77.1563598675 0.0
505 1 46.0772997699 76.5043598675 0.0
506 1 51.2406997699 76.4499598675 0.0
507 1 56.6714997699 76.4945598675 0.0
508 1 61.5896997699 76.5623598675 0.0
509 1 66.6350997699 76.6494598675 0.0
510 1 71.6931997699 76.1099598675 0.0
511 1 7.37918976992 78.7960598675 0.0
512 1 10.3970997699 78.8811598675 0.0
513 1 17.4851997699 79.6143598675 0.0
514 1 20.4785997699 79.6917598675 0.0
515 1 25.3283997699 79.1650598675 0.0
516 1 30.6817997699 79.3989598675 0.0
517 1 36.1560997699 79.9083598675 0.0
518 1 41.2255997699 80.1553598675 0.0
519 1 46.5073997699 79.4806598675 0.0
520 1 51.1242997699 81.4899598675 0.0
521 1 58.1969997699 79.1566598675 0.0
522 1 61.2163997699 79.5418598675 0.0
523 1 66.3211997699 79.6619598675 0.0
524 1 71.8072997699 79.1324598675 0.0
525 1 0.42846976992 79.2016598675 0.0
526 1 2.61106976992 81.2550598675 0.0
527 1 5.60969976992 81.1991598675 0.0
528 1 12.3650997699 81.1973598675 0.0
529 1 15.3430997699 81.6996598675 0.0
530 1 23.0744997699 81.1882598675 0.0
531 1 27.9638997699 80.6592598675 0.0
532 1 33.3072997699 80.8578598675 0.0
533 1 38.6071997699 81.6732598675 0.0
534 1 44.0358997699 81.2925598675 0.0
535 1 49.5154997699 78.9600598675 0.0
536 1 54.1031997699 81.9690598675 0.0
537 1 57.1290997699 81.9845598675 0.0
538 1 63.7290997699 81.2757598675 0.0
539 1 69.1846997699 80.6612598675 0.0
540 1 74.5094997699 80.5079598675 0.0
541 2 2.17867976992 0.168821867454 0.0
542 2 3.12913976992 2.46729986745 0.0
543 2 0.61844976992 2.39694986745 0.0
544 2 6.28625976992 0.0137434674541 0.0
545 2 8.11927976992 2.10849986745 0.0
546 2 5.63176976992 2.34953986745 0.0
547 2 12.0584997699 0.160838867454 0.0
548 2 13.1629997699 2.58594986745 0.0
549 2 10.6539997699 2.38383986745 0.0
550 2 16.1469997699 0.455263867454 0.0
551 2 18.2980997699 2.28883986745 0.0
552 2 15.6825997699 2.69988986745 0.0
553 2 22.7733997699 0.145454267454 0.0
554 2 23.6615997699 2.44061986745 0.0
555 2 21.0172997699 2.24120986745 0.0
556 2 28.6746997699 1.95111986745 0.0
557 2 28.6406997699 82.0152598675 0.0
558 2 30.9934997699 1.03803086745 0.0
559 2 32.9786997699 82.3157598675 0.0
560 2 33.6684997699 2.16506986745 0.0
561 2 38.2937997699 0.633024867454 0.0
562 2 36.3628997699 2.40819986745 0.0
563 2 38.5789997699 3.39071986745 0.0
564 2 43.8265997699 0.278772867454 0.0
565 2 45.1646997699 2.23574986745 0.0
566 2 42.9070997699 3.08278986745 0.0
567 2 50.0903997699 0.0846736574541 0.0
568 2 47.7811997699 1.90081986745 0.0
569 2 49.9701997699 2.52178986745 0.0
570 2 54.7943997699 3.28060986745 0.0
571 2 53.8480997699 0.928156867454 0.0
572 2 52.2727997699 3.04566986745 0.0
573 2 57.9155997699 0.779157867454 0.0
574 2 59.3301997699 3.45467986745 0.0
575 2 57.2169997699 3.11652986745 0.0
576 2 63.8188997699 0.283878867454 0.0
577 2 65.4931997699 2.30122986745 0.0
578 2 63.4372997699 3.17545986745 0.0
579 2 69.2284997699 82.1742598675 0.0
580 2 70.4605997699 2.00966986745 0.0
581 2 68.0169997699 2.05445986745 0.0
582 2 74.3217997699 82.0201598675 0.0
583 2 75.1235997699 2.09343986745 0.0
584 2 72.8704997699 1.88211986745 0.0
585 2 76.3872997699 4.65884986745 0.0
586 2 1.11730976992 6.92991986745 0.0
587 2 75.4029997699 6.95603986745 0.0
588 2 4.57042976992 4.69270986745 0.0
589 2 6.40526976992 6.00028986745 0.0
590 2 3.69893976992 7.03004986745 0.0
591 2 8.61753976992 6.94793986745 0.0
592 2 10.8005997699 8.14159986745 0.0
593 2 8.42219976992 9.47701986745 0.0
594 2 14.5463997699 4.95254986745 0.0
595 2 16.0148997699 7.23717986745 0.0
596 2 13.4739997699 7.24581986745 0.0
597 2 19.5938997699 4.45875986745 0.0
598 2 20.8157997699 6.76792986745 0.0
599 2 18.4216997699 6.98306986745 0.0
600 2 24.7515997699 4.79495986745 0.0
601 2 26.0843997699 6.98294986745 0.0
602 2 23.4096997699 6.95147986745 0.0
603 2 28.9180997699 4.33626986745 0.0
604 2 31.1407997699 6.21682986745 0.0
605 2 28.6297997699 6.54058986745 0.0
606 2 35.0737997699 4.45449986745 0.0
607 2 36.4666997699 6.77523986745 0.0
608 2 33.8108997699 6.50191986745 0.0
609 2 40.7519997699 4.57760986745 0.0
610 2 38.6464997699 6.12548986745 0.0
611 2 46.4101997699 4.28459986745 0.0
612 2 47.2430997699 6.78360986745 0.0
613 2 44.8605997699 6.53894986745 0.0
614 2 50.9622997699 5.15663986745 0.0
615 2 52.3136997699 7.46212986745 0.0
616 2 49.7044997699 7.26086986745 0.0
617 2 56.1659997699 5.53562986745 0.0
618 2 57.6766997699 7.49626986745 0.0
619 2 54.9271997699 7.67912986745 0.0
620 2 61.4725997699 4.70203986745 0.0
621 2 59.6462997699 6.32730986745 0.0
622 2 66.8637997699 4.48831986745 0.0
623 2 68.0859997699 6.84229986745 0.0
624 2 65.5687997699 6.78854986745 0.0
625 2 71.7338997699 4.35479986745 0.0
626 2 72.9315997699 6.77651986745 0.0
627 2 70.5304997699 6.77628986745 0.0
628 2 2.43729976992 9.25412986745 0.0
629 2 3.80066976992 11.5060598675 0.0
630 2 1.21646976992 11.5321598675 0.0
631 2 8.88329976992 11.7444598675 0.0
632 2 6.37228976992 11.4631598675 0.0
633 2 12.6343997699 9.62668986745 0.0
634 2 13.9810997699 11.9696598675 0.0
635 2 11.4508997699 11.8161598675 0.0
636 2 17.3974997699 9.51846986745 0.0
637 2 18.7707997699 11.7960598675 0.0
638 2 16.3529997699 12.0364598675 0.0
639 2 22.2077997699 9.09239986745 0.0
640 2 23.6629997699 11.3935598675 0.0
641 2 21.2218997699 11.4947598675 0.0
642 2 28.5271997699 11.2004598675 0.0
643 2 28.2968997699 8.76641986745 0.0
644 2 30.7487997699 10.0199798675 0.0
645 2 32.4431997699 8.54096986745 0.0
646 2 33.0140997699 11.3341598675 0.0
647 2 38.1453997699 8.90860986745 0.0
648 2 39.7243997699 11.1746598675 0.0
649 2 37.4801997699 11.6024598675 0.0
650 2 43.4039997699 8.74670986745 0.0
651 2 44.5464997699 11.2805598675 0.0
652 2 42.1718997699 11.1591598675 0.0
653 2 47.0163997699 11.4987598675 0.0
654 2 49.6600997699 11.4971598675 0.0
655 2 48.2865997699 9.30485986745 0.0
656 2 53.6191997699 9.77025986745 0.0
657 2 55.1306997699 11.7866598675 0.0
658 2 52.3488997699 11.8424598675 0.0
659 2 59.2315997699 9.29153986745 0.0
660 2 60.3249997699 11.6626598675 0.0
661 2 57.7932997699 11.6223598675 0.0
662 2 63.9545997699 8.92361986745 0.0
663 2 65.1728997699 11.2764598675 0.0
664 2 62.7468997699 11.4663598675 0.0
665 2 69.2311997699 9.18672986745 0.0
666 2 70.3562997699 11.5222598675 0.0
667 2 67.7605997699 11.3842598675 0.0
668 2 74.1379997699 9.21599986745 0.0
669 2 75.4775997699 11.5091598675 0.0
670 2 72.9153997699 11.5098598675 0.0
671 2 76.8193997699 13.8066598675 0.0
672 2 1.37725976992 16.0491598675 0.0
673 2 75.6457997699 16.1418598675 0.0
674 2 5.17578976992 13.7642598675 0.0
675 2 3.96934976992 16.0501598675 0.0
676 2 6.57816976992 15.9861598675 0.0
677 2 9.27069976992 16.1915598675 0.0
678 2 12.0927997699 15.5750598675 0.0
679 2 10.3015997699 14.0171598675 0.0
680 2 14.1432997699 16.8887598675 0.0
681 2 16.1476997699 18.3674598675 0.0
682 2 13.7168997699 19.4737598675 0.0
683 2 20.9136997699 16.5695598675 0.0
684 2 20.6714997699 13.8791598675 0.0
685 2 22.9258997699 15.3553598675 0.0
686 2 24.6049997699 13.8602598675 0.0
687 2 25.6456997699 16.2302598675 0.0
688 2 28.5961997699 13.7180598675 0.0
689 2 30.8137997699 15.2035598675 0.0
690 2 28.2027997699 16.0042598675 0.0
691 2 35.2026997699 12.7626598675 0.0
692 2 33.0241997699 14.0268598675 0.0
693 2 40.9450997699 13.5747598675 0.0
694 2 41.9153997699 16.1414598675 0.0
695 2 39.3461997699 15.5039598675 0.0
696 2 46.4821997699 16.3887598675 0.0
697 2 46.2219997699 13.6811598675 0.0
698 2 48.5081997699 15.1150598675 0.0
699 2 50.5232997699 13.7450598675 0.0
700 2 51.2335997699 16.0318598675 0.0
701 2 55.9601997699 13.8308598675 0.0
702 2 55.9301997699 16.4644598675 0.0
703 2 53.8221997699 15.7278598675 0.0
704 2 61.4969997699 13.9987598675 0.0
705 2 62.8394997699 16.1403598675 0.0
706 2 60.3979997699 16.6376598675 0.0
707 2 66.5823997699 13.6174598675 0.0
708 2 68.0036997699 15.9660598675 0.0
709 2 65.4660997699 15.9187598675 0.0
710 2 71.7676997699 13.8105598675 0.0
711 2 73.1251997699 16.1527598675 0.0
712 2 70.5630997699 16.0493598675 0.0
713 2 2.63510976992 18.3169598675 0.0
714 2 3.92683976992 20.5674598675 0.0
715 2 1.47317976992 20.7731598675 0.0
716 2 7.80456976992 18.2442598675 0.0
717 2 8.96869976992 20.5939598675 0.0
718 2 6.46574976992 20.5211598675 0.0
719 2 13.9826997699 21.8556598675 0.0
720 2 11.5060997699 21.1812598675 0.0
721 2 17.7621997699 20.1385598675 0.0
722 2 19.2956997699 22.1334598675 0.0
723 2 16.5379997699 22.2340598675 0.0
724 2 21.6462997699 19.0388598675 0.0
725 2 21.7292997699 21.4134598675 0.0
726 2 24.0767997699 20.5414598675 0.0
727 2 27.5521997699 18.2854598675 0.0
728 2 29.5833997699 20.0378598675 0.0
729 2 26.8180997699 20.4289598675 0.0
730 2 32.7497997699 16.7950598675 0.0
731 2 34.6827997699 18.2798598675 0.0
732 2 32.1451997699 19.3659598675 0.0
733 2 36.6685997699 19.7036598675 0.0
734 2 38.5758997699 21.4856598675 0.0
735 2 36.4172997699 22.4980598675 0.0
736 2 42.5642997699 18.7343598675 0.0
737 2 43.6519997699 21.1375598675 0.0
738 2 41.1743997699 21.0122598675 0.0
739 2 46.8018997699 19.0391598675 0.0
740 2 48.6160997699 21.4184598675 0.0
741 2 46.1709997699 21.2375598675 0.0
742 2 53.0439997699 18.0894598675 0.0
743 2 55.2326997699 18.8309598675 0.0
744 2 53.2170997699 20.7818598675 0.0
745 2 59.4798997699 19.3290598675 0.0
746 2 60.9083997699 21.1884598675 0.0
747 2 58.4228997699 21.9630598675 0.0
748 2 64.4944997699 18.2406598675 0.0
749 2 66.0110997699 20.5557598675 0.0
750 2 63.5364997699 20.6034598675 0.0
751 2 69.5165997699 18.2953598675 0.0
752 2 70.9766997699 20.6915598675 0.0
753 2 68.5121997699 20.5987598675 0.0
754 2 74.5524997699 18.4724598675 0.0
755 2 75.9089997699 20.8709598675 0.0
756 2 73.4380997699 20.7843598675 0.0
757 2 0.55040976992 23.2261598675 0.0
758 2 76.3366997699 25.5482598675 0.0
759 2 2.02503976992 25.5564598675 0.0
760 2 5.25371976992 22.8359598675 0.0
761 2 7.00052976992 24.3244598675 0.0
762 2 4.45320976992 25.4049598675 0.0
763 2 9.23859976992 25.4558598675 0.0
764 2 11.4602997699 26.7868598675 0.0
765 2 9.19559976992 28.0457598675 0.0
766 2 15.3475997699 24.2634598675 0.0
767 2 17.0219997699 26.2828598675 0.0
768 2 14.2675997699 26.3518598675 0.0
769 2 20.9608997699 24.0063598675 0.0
770 2 22.5178997699 25.9568598675 0.0
771 2 19.7567997699 26.1719598675 0.0
772 2 25.7136997699 22.5808598675 0.0
773 2 27.4364997699 24.5751598675 0.0
774 2 24.9666997699 25.0890598675 0.0
775 2 31.2130997699 21.9244598675 0.0
776 2 32.3352997699 24.4566598675 0.0
777 2 29.9890997699 24.2860598675 0.0
778 2 37.0333997699 25.0399598675 0.0
779 2 34.6946997699 24.6992598675 0.0
780 2 40.4625997699 23.3805598675 0.0
781 2 41.9830997699 25.7650598675 0.0
782 2 39.4632997699 25.5369598675 0.0
783 2 45.1522997699 23.4742598675 0.0
784 2 47.0379997699 25.2282598675 0.0
785 2 44.4255997699 25.8796598675 0.0
786 2 51.1188997699 22.3740598675 0.0
787 2 49.1600997699 24.0441598675 0.0