# input file

1350 atoms
2 atom types

0.0 77.7247677265 xlo xhi
0.0 81.6473902898 ylo yhi
-10.0 10.0 zlo zhi
0.0 0.0 0.0 xy xz yz

Masses

1 28.0855 #Si
2 15.9994 #O

Atoms

1 1 3.00292164011 2.29991514488 0.0
2 1 8.01412164011 1.87560514488 0.0
3 1 13.3997216401 1.40749514488 0.0
4 1 18.6514216401 1.25883514488 0.0
5 1 23.7865216401 1.19462514488 0.0
6 1 29.0092216401 1.26473514488 0.0
7 1 34.1536216401 1.03156514488 0.0
8 1 39.5444216401 1.23850514488 0.0
9 1 44.3089216401 2.09628514488 0.0
10 1 49.1989216401 1.50557514488 0.0
11 1 54.3089216401 0.934265144884 0.0
12 1 59.7506216401 0.638009144884 0.0
13 1 64.9009216401 1.44993514488 0.0
14 1 70.0140216401 2.37376514488 0.0
15 1 75.5079216401 2.39281514488 0.0
16 1 0.581711640108 6.84908514488 0.0
17 1 5.85294164011 6.75894514488 0.0
18 1 10.9913216401 5.94114514488 0.0
19 1 16.2840216401 5.80769514488 0.0
20 1 21.3415216401 5.82193514488 0.0
21 1 26.6107216401 5.75584514488 0.0
22 1 31.9759216401 5.73914514488 0.0
23 1 37.0504216401 5.46864514488 0.0
24 1 41.6724216401 8.46877514488 0.0
25 1 47.0293216401 6.53664514488 0.0
26 1 52.1531216401 5.77169514488 0.0
27 1 57.4485216401 5.00168514488 0.0
28 1 61.3126216401 7.91188514488 0.0
29 1 67.0533216401 6.42918514488 0.0
30 1 72.7833216401 6.61296514488 0.0
31 1 3.22497164011 11.2951951449 0.0
32 1 10.2667216401 10.4005951449 0.0
33 1 13.2819216401 10.2704951449 0.0
34 1 18.5266216401 10.4597951449 0.0
35 1 23.8581216401 10.2727951449 0.0
36 1 29.3374216401 10.1638951449 0.0
37 1 34.9076216401 10.2631951449 0.0
38 1 40.2859216401 11.1412951449 0.0
39 1 45.2328216401 11.4040951449 0.0
40 1 50.4588216401 10.6382951449 0.0
41 1 55.6843216401 9.67369514488 0.0
42 1 59.4279216401 12.3915951449 0.0
43 1 64.8858216401 10.7313951449 0.0
44 1 70.4047216401 10.4598951449 0.0
45 1 75.6758216401 10.9516951449 0.0
46 1 0.187597640108 15.5794951449 0.0
47 1 5.17046164011 16.0510951449 0.0
48 1 10.2433216401 15.5033951449 0.0
49 1 15.7913216401 14.8884951449 0.0
50 1 21.0992216401 14.8102951449 0.0
51 1 26.3519216401 14.5092951449 0.0
52 1 32.0021216401 14.4179951449 0.0
53 1 37.5298216401 15.0566951449 0.0
54 1 42.6529216401 16.0019951449 0.0
55 1 48.0045216401 15.4860951449 0.0
56 1 53.2128216401 14.6203951449 0.0
57 1 58.2017216401 15.1339951449 0.0
58 1 62.5793216401 15.4079951449 0.0
59 1 67.7780216401 14.7272951449 0.0
60 1 72.8375216401 15.1321951449 0.0
61 1 2.15422164011 20.4647951449 0.0
62 1 8.12386164011 20.3434951449 0.0
63 1 13.4631216401 19.3576951449 0.0
64 1 18.5911216401 19.3329951449 0.0
65 1 23.6515216401 19.1814951449 0.0
66 1 29.0084216401 18.5230951449 0.0
67 1 34.3910216401 18.9173951449 0.0
68 1 39.6272216401 20.1141951449 0.0
69 1 46.1393216401 20.0747951449 0.0
70 1 51.4405216401 19.4531951449 0.0
71 1 56.0149216401 19.5021951449 0.0
72 1 60.7341216401 20.2624951449 0.0
73 1 65.6010216401 19.4402951449 0.0
74 1 69.3920216401 21.8757951449 0.0
75 1 74.6020216401 19.8797951449 0.0
76 1 76.9453216401 24.5449951449 0.0
77 1 3.50209164011 23.1546951449 0.0
78 1 10.6472216401 24.0956951449 0.0
79 1 15.8291216401 23.9534951449 0.0
80 1 20.7467216401 23.9177951449 0.0
81 1 27.8985216401 22.8320951449 0.0
82 1 30.9132216401 22.9608951449 0.0
83 1 36.2549216401 23.8155951449 0.0
84 1 40.8204216401 22.9132951449 0.0
85 1 48.3416216401 24.0428951449 0.0
86 1 54.4979216401 24.3461951449 0.0
87 1 57.4999216401 24.6165951449 0.0
88 1 64.2948216401 24.3955951449 0.0
89 1 67.2723216401 24.0034951449 0.0
90 1 72.0656216401 24.8835951449 0.0
91 1 1.77672164011 28.7559951449 0.0
92 1 7.09826164011 28.3535951449 0.0
93 1 12.3249216401 28.3946951449 0.0
94 1 17.5767216401 28.6402951449 0.0
95 1 22.9072216401 28.7711951449 0.0
96 1 27.8756216401 27.5943951449 0.0
97 1 33.5075216401 27.6959951449 0.0
98 1 40.3424216401 27.9036951449 0.0
99 1 43.3663216401 27.8836951449 0.0
100 1 48.4059216401 29.3785951449 0.0
101 1 53.5130216401 29.7535951449 0.0
102 1 58.8529216401 29.8559951449 0.0
103 1 63.7301216401 29.5505951449 0.0
104 1 68.8469216401 29.0962951449 0.0
105 1 74.2256216401 29.3951951449 0.0
106 1 76.3404216401 33.4328951449 0.0
107 1 4.15947164011 32.9528951449 0.0
108 1 9.53192164011 32.8736951449 0.0
109 1 14.6218216401 32.9539951449 0.0
110 1 18.7013216401 31.4393951449 0.0
111 1 25.7382216401 32.6815951449 0.0
112 1 30.7108216401 31.6734951449 0.0
113 1 34.2975216401 34.9744951449 0.0
114 1 39.8406216401 33.1530951449 0.0
115 1 45.5377216401 33.1861951449 0.0
116 1 50.7415216401 34.1836951449 0.0
117 1 56.2688216401 34.2461951449 0.0
118 1 62.0117216401 34.4172951449 0.0
119 1 67.4645216401 33.7219951449 0.0
120 1 73.4263216401 34.3576951449 0.0
121 1 2.05849164011 37.3409951449 0.0
122 1 7.32255164011 37.2572951449 0.0
123 1 12.4492216401 37.4930951449 0.0
124 1 17.7613216401 37.1410951449 0.0
125 1 23.2190216401 37.1630951449 0.0
126 1 28.6105216401 36.7238951449 0.0
127 1 32.5470216401 39.2373951449 0.0
128 1 38.0432216401 37.7418951449 0.0
129 1 42.9827216401 37.2717951449 0.0
130 1 47.9854216401 38.2672951449 0.0
131 1 53.4577216401 38.5344951449 0.0
132 1 58.9844216401 38.3698951449 0.0
133 1 65.3091216401 38.4269951449 0.0
134 1 70.6959216401 39.2907951449 0.0
135 1 74.9659216401 39.5273951449 0.0
136 1 1.65457164011 42.3400951449 0.0
137 1 4.59106164011 41.7353951449 0.0
138 1 9.78152164011 41.9607951449 0.0
139 1 14.9664216401 41.7519951449 0.0
140 1 20.4079216401 41.4760951449 0.0
141 1 25.7321216401 41.3446951449 0.0
142 1 30.8264216401 41.6711951449 0.0
143 1 36.0233216401 42.2982951449 0.0
144 1 40.7342216401 42.1824951449 0.0
145 1 45.5104216401 42.3392951449 0.0
146 1 49.1873216401 41.0854951449 0.0
147 1 56.0904216401 42.6016951449 0.0
148 1 60.6537216401 40.8670951449 0.0
149 1 67.4918216401 43.1119951449 0.0
150 1 72.3616216401 44.4637951449 0.0
151 1 1.91367164011 47.3278951449 0.0
152 1 6.75138164011 46.3474951449 0.0
153 1 11.9226216401 46.3829951449 0.0
154 1 17.4601216401 45.9075951449 0.0
155 1 22.8802216401 45.8433951449 0.0
156 1 29.6387216401 45.7255951449 0.0
157 1 32.5875216401 46.3052951449 0.0
158 1 37.9159216401 47.0249951449 0.0
159 1 42.9364216401 47.0541951449 0.0
160 1 48.1730216401 47.0238951449 0.0
161 1 53.4942216401 47.0852951449 0.0
162 1 58.9108216401 46.3705951449 0.0
163 1 63.6450216401 46.7203951449 0.0
164 1 68.8269216401 48.2903951449 0.0
165 1 74.7371216401 48.8445951449 0.0
166 1 0.151657640108 52.5123951449 0.0
167 1 4.86332164011 51.5088951449 0.0
168 1 9.48622164011 50.8759951449 0.0
169 1 13.2522216401 49.0807951449 0.0
170 1 20.0170216401 50.1242951449 0.0
171 1 23.6903216401 48.7372951449 0.0
172 1 29.8977216401 51.5309951449 0.0
173 1 35.1178216401 50.9691951449 0.0
174 1 40.2368216401 51.6798951449 0.0
175 1 45.3549216401 51.5276951449 0.0
176 1 49.4543216401 49.8147951449 0.0
177 1 56.6628216401 50.9543951449 0.0
178 1 60.5451216401 53.9316951449 0.0
179 1 65.6342216401 51.7370951449 0.0
180 1 70.1972216401 50.9703951449 0.0
181 1 2.94393164011 56.7481951449 0.0
182 1 7.87327164011 56.0336951449 0.0
183 1 12.6490216401 54.9304951449 0.0
184 1 17.6205216401 54.4040951449 0.0
185 1 22.6650216401 54.5793951449 0.0
186 1 27.5545216401 57.5543951449 0.0
187 1 32.9653216401 55.6181951449 0.0
188 1 37.2924216401 58.0894951449 0.0
189 1 42.8272216401 56.1839951449 0.0
190 1 48.3263216401 55.6515951449 0.0
191 1 53.9623216401 55.6127951449 0.0
192 1 59.5047216401 56.7635951449 0.0
193 1 64.7242216401 56.6257951449 0.0
194 1 70.2028216401 57.8773951449 0.0
195 1 75.7737216401 56.5933951449 0.0
196 1 0.724351640108 61.4189951449 0.0
197 1 5.78777164011 61.0528951449 0.0
198 1 11.1149216401 60.1687951449 0.0
199 1 16.0230216401 59.2411951449 0.0
200 1 20.8086216401 61.3791951449 0.0
201 1 26.5839216401 60.3925951449 0.0
202 1 31.8289216401 60.1308951449 0.0
203 1 36.1232216401 62.5690951449 0.0
204 1 41.4623216401 60.6406951449 0.0
205 1 45.9370216401 62.6178951449 0.0
206 1 51.0880216401 59.8934951449 0.0
207 1 56.4782216401 60.3987951449 0.0
208 1 63.1120216401 61.1140951449 0.0
209 1 70.5942216401 60.8409951449 0.0
210 1 73.5735216401 61.0588951449 0.0
211 1 3.47886164011 65.8873951449 0.0
212 1 8.84165164011 64.9352951449 0.0
213 1 14.0927216401 64.4018951449 0.0
214 1 19.3161216401 63.9976951449 0.0
215 1 24.1378216401 64.5924951449 0.0
216 1 28.9498216401 64.7394951449 0.0
217 1 34.1103216401 64.8115951449 0.0
218 1 39.0865216401 65.5902951449 0.0
219 1 44.9424216401 65.4830951449 0.0
220 1 49.6876216401 64.8890951449 0.0
221 1 54.2493216401 64.4432951449 0.0
222 1 58.1171216401 62.9672951449 0.0
223 1 65.1848216401 65.4623951449 0.0
224 1 70.4378216401 65.6439951449 0.0
225 1 75.8059216401 66.0041951449 0.0
226 1 0.435131640108 70.3352951449 0.0
227 1 7.94421164011 69.3011951449 0.0
228 1 10.9674216401 69.0756951449 0.0
229 1 17.7512216401 68.5643951449 0.0
230 1 20.7409216401 68.9300951449 0.0
231 1 25.7791216401 69.3878951449 0.0
232 1 30.8099216401 69.2429951449 0.0
233 1 35.9404216401 69.7498951449 0.0
234 1 40.5354216401 68.2030951449 0.0
235 1 47.2839216401 69.9548951449 0.0
236 1 52.1876216401 69.5824951449 0.0
237 1 57.1769216401 68.8053951449 0.0
238 1 62.1317216401 69.1322951449 0.0
239 1 67.4921216401 69.9531951449 0.0
240 1 72.7854216401 70.2377951449 0.0
241 1 2.48643164011 74.8286951449 0.0
242 1 7.37819164011 74.3595951449 0.0
243 1 12.6684216401 74.0840951449 0.0
244 1 17.6909216401 73.7962951449 0.0
245 1 23.0437216401 73.8099951449 0.0
246 1 28.2626216401 73.9760951449 0.0
247 1 33.3945216401 74.0013951449 0.0
248 1 38.8560216401 73.6270951449 0.0
249 1 44.0632216401 74.0198951449 0.0
250 1 49.2508216401 74.4190951449 0.0
251 1 54.5763216401 73.8188951449 0.0
252 1 59.9648216401 73.6693951449 0.0
253 1 65.2047216401 73.7649951449 0.0
254 1 69.6488216401 76.5694951449 0.0
255 1 75.0570216401 74.7007951449 0.0
256 1 0.422381640108 3.84558514488 0.0
257 1 5.64856164011 3.74622514488 0.0
258 1 10.8192216401 2.94898514488 0.0
259 1 16.0694216401 2.80556514488 0.0
260 1 21.2396216401 2.80600514488 0.0
261 1 26.3831216401 2.74416514488 0.0
262 1 31.6584216401 2.72758514488 0.0
263 1 36.7990216401 2.46618514488 0.0
264 1 41.6057216401 3.41451514488 0.0
265 1 46.9529216401 3.51936514488 0.0
266 1 51.9254216401 2.76981514488 0.0
267 1 57.0937216401 2.03235514488 0.0
268 1 62.0843216401 2.52295514488 0.0
269 1 67.1885216401 3.41944514488 0.0
270 1 72.7580216401 3.61459514488 0.0
271 1 3.24457164011 8.28035514488 0.0
272 1 8.67010164011 7.84550514488 0.0
273 1 13.6731216401 7.29316514488 0.0
274 1 18.8038216401 7.45381514488 0.0
275 1 23.9912216401 7.25968514488 0.0
276 1 29.2981216401 7.14482514488 0.0
277 1 34.6099216401 7.24680514488 0.0
278 1 40.0212216401 5.96468514488 0.0
279 1 44.6865216401 8.44531514488 0.0
280 1 49.8208216401 7.68644514488 0.0
281 1 54.9984216401 6.75236514488 0.0
282 1 60.4542216401 5.04932514488 0.0
283 1 64.3437216401 7.79274514488 0.0
284 1 69.8959216401 7.50139514488 0.0
285 1 75.4974216401 7.95077514488 0.0
286 1 0.492301640108 12.5771951449 0.0
287 1 5.65335164011 13.0858951449 0.0
288 1 8.66528164011 12.9371951449 0.0
289 1 15.8460216401 11.8697951449 0.0
290 1 21.2382216401 11.7945951449 0.0
291 1 26.6163216401 11.5053951449 0.0
292 1 32.1024216401 11.4068951449 0.0
293 1 37.3954216401 12.0227951449 0.0
294 1 42.6666216401 12.9892951449 0.0
295 1 48.0508216401 12.4698951449 0.0
296 1 53.3323216401 11.5969951449 0.0
297 1 58.7101216401 9.49109514488 0.0
298 1 62.4180216401 12.4307951449 0.0
299 1 67.7011216401 11.7448951449 0.0
300 1 72.9101216401 12.1284951449 0.0
301 1 2.52550164011 17.4760951449 0.0
302 1 7.87317164011 17.3578951449 0.0
303 1 13.1463216401 16.3569951449 0.0
304 1 18.4670216401 16.3091951449 0.0
305 1 23.8041216401 16.1586951449 0.0
306 1 29.1909216401 15.5305951449 0.0
307 1 34.6307216401 15.9189951449 0.0
308 1 39.8228216401 17.0781951449 0.0
309 1 45.4617216401 17.1337951449 0.0
310 1 50.8504216401 16.4934951449 0.0
311 1 55.5497216401 16.5173951449 0.0
312 1 60.2716216401 17.2999951449 0.0
313 1 65.3516216401 16.4716951449 0.0
314 1 70.1762216401 16.5029951449 0.0
315 1 75.2277216401 16.9387951449 0.0
316 1 77.0866216401 21.5486951449 0.0
317 1 6.47850164011 22.8587951449 0.0
318 1 11.0189216401 21.1153951449 0.0
319 1 16.0321216401 20.9368951449 0.0
320 1 21.1645216401 20.9145951449 0.0
321 1 26.4986216401 20.1729951449 0.0
322 1 31.6025216401 20.0395951449 0.0
323 1 36.7069216401 20.8412951449 0.0
324 1 45.5236216401 23.0145951449 0.0
325 1 48.9530216401 21.1129951449 0.0
326 1 53.7143216401 21.4245951449 0.0
327 1 58.1010216401 21.6690951449 0.0
328 1 63.4470216401 21.5253951449 0.0
329 1 68.5644216401 19.0245951449 0.0
330 1 72.3840216401 21.9081951449 0.0
331 1 1.96193164011 25.7450951449 0.0
332 1 7.96725164011 25.4631951449 0.0
333 1 13.2654216401 25.5398951449 0.0
334 1 18.2914216401 25.6905951449 0.0
335 1 23.1130216401 25.7735951449 0.0
336 1 26.0687216401 25.2030951449 0.0
337 1 33.3800216401 24.6976951449 0.0
338 1 38.9074216401 25.2364951449 0.0
339 1 43.1543216401 24.8472951449 0.0
340 1 49.7697216401 26.6911951449 0.0
341 1 52.7811216401 26.8268951449 0.0
342 1 59.4779216401 26.9031951449 0.0
343 1 62.4941216401 26.8036951449 0.0
344 1 69.3439216401 26.1502951449 0.0
345 1 74.6162216401 26.4274951449 0.0
346 1 77.0196216401 30.4962951449 0.0
347 1 4.53469164011 29.9587951449 0.0
348 1 9.69802164011 29.8683951449 0.0
349 1 14.8750216401 29.9582951449 0.0
350 1 21.6831216401 31.5186951449 0.0
351 1 25.7506216401 29.6938951449 0.0
352 1 30.6666216401 28.6798951449 0.0
353 1 35.6639216401 29.8017951449 0.0
354 1 38.6332216401 30.3794951449 0.0
355 1 45.4692216401 30.1242951449 0.0
356 1 50.8423216401 31.1682951449 0.0
357 1 56.1592216401 31.2198951449 0.0
358 1 61.4118216401 31.4595951449 0.0
359 1 66.4360216401 30.8799951449 0.0
360 1 71.4505216401 30.5751951449 0.0
361 1 1.48921164011 34.3906951449 0.0
362 1 6.87144164011 34.2824951449 0.0
363 1 12.0568216401 34.5114951449 0.0
364 1 17.3715216401 34.1455951449 0.0
365 1 23.1348216401 34.1516951449 0.0
366 1 28.5259216401 33.7320951449 0.0
367 1 33.6813216401 32.0550951449 0.0
368 1 37.3264216401 34.8442951449 0.0
369 1 42.6890216401 34.2590951449 0.0
370 1 47.8767216401 35.2045951449 0.0
371 1 53.4824216401 35.5072951449 0.0
372 1 59.1158216401 35.3644951449 0.0
373 1 64.9111216401 35.4146951449 0.0
374 1 70.5224216401 33.4353951449 0.0
375 1 72.9509216401 37.3170951449 0.0
376 1 0.224702640108 39.7081951449 0.0
377 1 4.71442164011 38.7360951449 0.0
378 1 9.81542164011 38.9482951449 0.0
379 1 15.1920216401 38.7439951449 0.0
380 1 20.4839216401 38.4590951449 0.0
381 1 26.0217216401 38.3305951449 0.0
382 1 31.6242216401 36.4118951449 0.0
383 1 35.5358216401 39.3617951449 0.0
384 1 40.6663216401 39.1794951449 0.0
385 1 45.1848216401 39.3313951449 0.0
386 1 52.1777216401 41.2814951449 0.0
387 1 56.2515216401 39.6014951449 0.0
388 1 63.6480216401 40.9521951449 0.0
389 1 67.8092216401 40.1052951449 0.0
390 1 72.7229216401 41.4964951449 0.0
391 1 0.135611640108 44.9213951449 0.0
392 1 7.11363164011 43.3648951449 0.0
393 1 12.4316216401 43.4050951449 0.0
394 1 17.7433216401 42.9134951449 0.0
395 1 23.1070216401 42.8364951449 0.0
396 1 28.1909216401 43.0862951449 0.0
397 1 33.2590216401 43.4102951449 0.0
398 1 38.4168216401 44.0730951449 0.0
399 1 43.0642216401 44.0561951449 0.0
400 1 48.0692216401 43.9320951449 0.0
401 1 53.4486216401 44.0388951449 0.0
402 1 58.9857216401 43.3709951449 0.0
403 1 64.5713216401 43.8313951449 0.0
404 1 69.5006216401 45.3595951449 0.0
405 1 75.0060216401 45.8641951449 0.0
406 1 77.6412216401 49.5437951449 0.0
407 1 4.66399164011 48.5016951449 0.0
408 1 9.32252164011 47.8711951449 0.0
409 1 16.1919216401 48.6331951449 0.0
410 1 20.1818216401 47.1253951449 0.0
411 1 26.4078216401 49.8996951449 0.0
412 1 29.1023216401 48.6562951449 0.0
413 1 35.0715216401 47.9819951449 0.0
414 1 40.4141216401 48.6835951449 0.0
415 1 45.5534216401 48.5169951449 0.0
416 1 52.4673216401 49.9552951449 0.0
417 1 56.3624216401 47.9599951449 0.0
418 1 61.1250216401 48.3931951449 0.0
419 1 65.8615216401 48.7482951449 0.0
420 1 73.1609216401 51.3930951449 0.0
421 1 2.86714164011 53.7491951449 0.0
422 1 7.43156164011 53.0544951449 0.0
423 1 12.2861216401 51.9323951449 0.0
424 1 17.3327216401 51.4123951449 0.0
425 1 22.6188216401 51.5616951449 0.0
426 1 27.1836216401 52.7790951449 0.0
427 1 32.6510216401 52.6538951449 0.0
428 1 37.4636216401 52.8245951449 0.0
429 1 42.8360216401 53.1782951449 0.0
430 1 48.1665216401 52.5928951449 0.0
431 1 54.0957216401 52.5450951449 0.0
432 1 59.6716216401 51.0529951449 0.0
433 1 63.5410216401 53.8720951449 0.0
434 1 68.2329216401 53.2363951449 0.0
435 1 75.1204216401 53.6670951449 0.0
436 1 0.447251640108 58.4145951449 0.0
437 1 5.64270164011 58.0484951449 0.0
438 1 10.6501216401 57.1834951449 0.0
439 1 15.3100216401 56.3173951449 0.0
440 1 20.0807216401 56.1325951449 0.0
441 1 25.5753216401 55.3043951449 0.0
442 1 30.5603216401 57.4158951449 0.0
443 1 35.9611216401 55.4208951449 0.0
444 1 40.3094216401 57.8742951449 0.0
445 1 45.6735216401 57.2322951449 0.0
446 1 51.1492216401 56.8508951449 0.0
447 1 56.5110216401 57.3550951449 0.0
448 1 62.1708216401 58.2425951449 0.0
449 1 67.7097216401 56.1977951449 0.0
450 1 73.1895216401 58.0843951449 0.0
451 1 3.37251164011 62.8651951449 0.0
452 1 8.66569164011 61.9349951449 0.0
453 1 13.8837216401 61.3810951449 0.0
454 1 19.0274216401 58.9590951449 0.0
455 1 23.8195216401 61.6074951449 0.0
456 1 29.2786216401 61.7528951449 0.0
457 1 34.8457216401 59.8684951449 0.0
458 1 39.1498216401 62.5968951449 0.0
459 1 44.4292216401 60.0139951449 0.0
460 1 48.8977216401 61.9913951449 0.0
461 1 53.6679216401 61.4801951449 0.0
462 1 61.0973216401 63.3549951449 0.0
463 1 65.7762216401 62.5293951449 0.0
464 1 68.7262216401 63.1552951449 0.0
465 1 75.8815216401 62.9897951449 0.0
466 1 0.803911640108 67.3339951449 0.0
467 1 6.40033164011 66.7097951449 0.0
468 1 11.6100216401 66.1297951449 0.0
469 1 16.8244216401 65.6863951449 0.0
470 1 21.5150216401 66.0344951449 0.0
471 1 26.4820216401 66.4565951449 0.0
472 1 31.4981216401 66.3087951449 0.0
473 1 36.3409216401 66.7901951449 0.0
474 1 43.5182216401 68.1515951449 0.0
475 1 47.5363216401 66.9670951449 0.0
476 1 52.1534216401 66.5773951449 0.0
477 1 56.9487216401 65.7636951449 0.0
478 1 62.2677216401 66.1296951449 0.0
479 1 67.7653216401 66.9896951449 0.0
480 1 73.0288216401 67.2181951449 0.0
481 1 3.03941164011 71.8736951449 0.0
482 1 6.05787164011 71.6521951449 0.0
483 1 13.1946216401 71.1235951449 0.0
484 1 16.2177216401 71.1522951449 0.0
485 1 23.1092216401 70.7932951449 0.0
486 1 28.3374216401 70.9642951449 0.0
487 1 33.2277216401 71.0130951449 0.0
488 1 38.7941216401 70.6416951449 0.0
489 1 44.4842216401 71.0192951449 0.0
490 1 49.8534216401 71.4762951449 0.0
491 1 54.9187216401 70.8168951449 0.0
492 1 59.5563216401 70.6709951449 0.0
493 1 64.6217216401 70.8241951449 0.0
494 1 70.0417216401 71.5344951449 0.0
495 1 75.4403216401 71.6970951449 0.0
496 1 77.6005216401 76.3198951449 0.0
497 1 5.09672164011 76.3094951449 0.0
498 1 10.1000216401 75.6484951449 0.0
499 1 15.2768216401 75.5888951449 0.0
500 1 20.3731216401 75.2134951449 0.0
501 1 25.6115216401 75.4053951449 0.0
502 1 30.8279216401 75.5564951449 0.0
503 1 36.2075216401 75.0489951449 0.0
504 1 41.3322216401 75.3113951449 0.0
505 1 46.5389216401 75.7567951449 0.0
506 1 52.0566216401 75.5039951449 0.0
507 1 57.3043216401 75.0955951449 0.0
508 1 62.5699216401 75.2232951449 0.0
509 1 68.2228216401 73.9390951449 0.0
510 1 72.6616216401 76.5470951449 0.0
511 1 5.28639164011 79.3035951449 0.0
512 1 10.4015216401 78.6510951449 0.0
513 1 15.6714216401 78.5700951449 0.0
514 1 20.8586216401 78.2025951449 0.0
515 1 26.0449216401 78.3927951449 0.0
516 1 31.3382216401 78.5202951449 0.0
517 1 36.6706216401 78.0118951449 0.0
518 1 41.2258216401 80.3982951449 0.0
519 1 46.5174216401 78.7791951449 0.0
520 1 51.7594216401 78.4989951449 0.0
521 1 57.1861216401 78.0989951449 0.0
522 1 62.7645216401 78.2320951449 0.0
523 1 68.0047216401 79.0913951449 0.0
524 1 72.9048216401 79.5442951449 0.0
525 1 0.239946640108 79.3119951449 0.0
526 1 2.77049164011 80.9433951449 0.0
527 1 8.03247164011 80.5133951449 0.0
528 1 13.0637216401 80.0649951449 0.0
529 1 18.3736216401 79.9054951449 0.0
530 1 23.4043216401 79.8434951449 0.0
531 1 28.6637216401 79.9132951449 0.0
532 1 34.1377216401 79.6645951449 0.0
533 1 39.6849216401 77.8352951449 0.0
534 1 44.2136216401 80.7330951449 0.0
535 1 49.2135216401 80.1328951449 0.0
536 1 54.5607216401 79.5897951449 0.0
537 1 59.9487216401 79.2969951449 0.0
538 1 65.1554216401 80.0833951449 0.0
539 1 70.2915216401 81.0326951449 0.0
540 1 75.5075216401 81.0361951449 0.0
541 2 1.71175164011 3.07134514488 0.0
542 2 4.31842164011 3.03248514488 0.0
543 2 2.88269164011 0.796845144884 0.0
544 2 8.01617164011 0.369934144884 0.0
545 2 9.42092164011 2.40813514488 0.0
546 2 6.83685164011 2.81350514488 0.0
547 2 13.2261216401 81.5611951449 0.0
548 2 14.7351216401 2.10412514488 0.0
549 2 12.1053216401 2.17568514488 0.0
550 2 18.5266216401 81.4048951449 0.0
551 2 19.9449216401 2.03069514488 0.0
552 2 17.3559216401 2.02747514488 0.0
553 2 23.5829216401 81.3452951449 0.0
554 2 25.0905216401 1.95987514488 0.0
555 2 22.5177216401 2.01052514488 0.0
556 2 28.8282216401 81.4132951449 0.0
557 2 27.7000216401 2.01153514488 0.0
558 2 30.3301216401 2.00085514488 0.0
559 2 34.1557216401 81.1729951449 0.0
560 2 35.4840216401 1.74007514488 0.0
561 2 32.9017216401 1.86857514488 0.0
562 2 40.3163216401 81.5974951449 0.0
563 2 40.5676216401 2.33385514488 0.0
564 2 38.1290216401 1.74983514488 0.0
565 2 44.3322216401 0.590571144884 0.0
566 2 45.6128216401 2.83584514488 0.0
567 2 42.9975216401 2.84118514488 0.0
568 2 49.1887216401 81.6443951449 0.0
569 2 50.5653216401 2.13635514488 0.0
570 2 48.0776216401 2.51379514488 0.0
571 2 54.4262216401 81.0870951449 0.0
572 2 55.7021216401 1.49162514488 0.0
573 2 53.1153216401 1.84511514488 0.0
574 2 59.8629216401 80.7960951449 0.0
575 2 60.9604216401 1.52117514488 0.0
576 2 58.3980216401 1.29211514488 0.0
577 2 65.0301216401 81.5917951449 0.0
578 2 66.0434216401 2.43661514488 0.0
579 2 63.5055216401 2.03681514488 0.0
580 2 70.1412216401 0.874635144884 0.0
581 2 71.3773216401 3.01248514488 0.0
582 2 68.6137216401 2.91983514488 0.0
583 2 74.1267216401 2.98958514488 0.0
584 2 76.8163216401 3.13664514488 0.0
585 2 75.5286216401 0.888025144884 0.0
586 2 0.524431640108 5.34351514488 0.0
587 2 1.90752164011 7.57276514488 0.0
588 2 76.9000216401 7.39402514488 0.0
589 2 5.75482164011 5.25005514488 0.0
590 2 7.23854164011 7.36856514488 0.0
591 2 4.55892164011 7.53540514488 0.0
592 2 10.9041216401 4.44688514488 0.0
593 2 12.3490216401 6.58292514488 0.0
594 2 9.78442164011 6.82993514488 0.0
595 2 16.1862216401 4.30696514488 0.0
596 2 17.5471216401 6.61970514488 0.0
597 2 14.9791216401 6.55675514488 0.0
598 2 21.2815216401 4.31360514488 0.0
599 2 22.6737216401 6.52509514488 0.0
600 2 20.0839216401 6.65588514488 0.0
601 2 26.4873216401 4.25017514488 0.0
602 2 27.9584216401 6.44038514488 0.0
603 2 25.3080216401 6.52249514488 0.0
604 2 31.8337216401 4.22913514488 0.0
605 2 33.2852216401 6.50385514488 0.0
606 2 30.6376216401 6.44668514488 0.0
607 2 36.8697216401 3.97019514488 0.0
608 2 38.5229216401 5.81164514488 0.0
609 2 35.8541216401 6.38296514488 0.0
610 2 40.8211216401 7.23193514488 0.0
611 2 43.1776216401 8.36463514488 0.0
612 2 40.9245216401 9.77439514488 0.0
613 2 46.9862216401 5.02608514488 0.0
614 2 48.4175216401 7.13211514488 0.0
615 2 45.8177216401 7.44372514488 0.0
616 2 52.0259216401 4.27052514488 0.0
617 2 53.5786216401 6.26257514488 0.0
618 2 50.9841216401 6.72017514488 0.0
619 2 57.2051216401 3.52230514488 0.0
620 2 58.9484216401 5.08329514488 0.0
621 2 56.2449216401 5.89906514488 0.0
622 2 60.9240216401 6.46315514488 0.0
623 2 62.8287216401 7.83891514488 0.0
624 2 60.0156216401 8.71065514488 0.0
625 2 67.0715216401 4.91887514488 0.0
626 2 68.4742216401 6.97878514488 0.0
627 2 65.6709216401 7.05388514488 0.0
628 2 72.8017216401 5.11162514488 0.0
629 2 74.1339216401 7.29673514488 0.0
630 2 71.3320216401 7.02284514488 0.0
631 2 3.25852164011 9.78869514488 0.0
632 2 4.47510164011 12.1449951449 0.0
633 2 1.85944164011 11.9416951449 0.0
634 2 9.46482164011 11.6683951449 0.0
635 2 9.40212164011 9.16387514488 0.0
636 2 11.7773216401 10.4310951449 0.0
637 2 13.5439216401 8.78677514488 0.0
638 2 14.5300216401 11.1188951449 0.0
639 2 18.6587216401 8.95317514488 0.0
640 2 19.8782216401 11.1352951449 0.0
641 2 17.1861216401 11.1624951449 0.0
642 2 23.9105216401 8.76428514488 0.0
643 2 25.2431216401 10.8745951449 0.0
644 2 22.5495216401 11.0352951449 0.0
645 2 29.3118216401 8.65350514488 0.0
646 2 30.7241216401 10.7749951449 0.0
647 2 27.9826216401 10.8482951449 0.0
648 2 34.7982216401 8.74788514488 0.0
649 2 36.1599216401 11.1308951449 0.0
650 2 33.5016216401 10.8333951449 0.0
651 2 41.4255216401 12.1349951449 0.0
652 2 38.8248216401 11.5091951449 0.0
653 2 45.0189216401 9.91539514488 0.0
654 2 46.6440216401 11.9230951449 0.0
655 2 43.9782216401 12.2409951449 0.0
656 2 50.1361216401 9.16100514488 0.0
657 2 51.9007216401 11.0923951449 0.0
658 2 49.2701216401 11.5785951449 0.0
659 2 55.2690216401 8.22515514488 0.0
660 2 54.5551216401 10.6945951449 0.0
661 2 57.1950216401 9.55789514488 0.0
662 2 59.0089216401 10.9647951449 0.0
663 2 60.9278216401 12.3282951449 0.0
664 2 58.7297216401 13.7244951449 0.0
665 2 64.6581216401 9.26196514488 0.0
666 2 66.3010216401 11.2164951449 0.0
667 2 63.6367216401 11.5670951449 0.0
668 2 70.1518216401 8.98651514488 0.0
669 2 71.6692216401 11.2743951449 0.0
670 2 69.0484216401 11.1077951449 0.0
671 2 75.5912216401 9.45305514488 0.0
672 2 76.9506216401 11.7532951449 0.0
673 2 74.2970216401 11.5560951449 0.0
674 2 0.343081640108 14.0804951449 0.0
675 2 1.35292164011 16.5328951449 0.0
676 2 76.5697216401 16.2659951449 0.0
677 2 5.33648164011 14.5591951449 0.0
678 2 6.50348164011 16.7440951449 0.0
679 2 3.86077164011 16.7843951449 0.0
680 2 9.51682164011 14.1802951449 0.0
681 2 11.7104216401 15.8668951449 0.0
682 2 9.10488164011 16.4978951449 0.0
683 2 15.8101216401 13.3781951449 0.0
684 2 17.1241216401 15.6075951449 0.0
685 2 14.4500216401 15.5925951449 0.0
686 2 21.1720216401 13.3023951449 0.0
687 2 22.4492216401 15.4882951449 0.0
688 2 19.7802216401 15.5531951449 0.0
689 2 26.4584216401 13.0049951449 0.0
690 2 27.7780216401 15.0086951449 0.0
691 2 25.0848216401 15.3415951449 0.0
692 2 32.0625216401 12.9142951449 0.0
693 2 33.3218216401 15.1584951449 0.0
694 2 30.5908216401 14.9658951449 0.0
695 2 37.4788216401 13.5372951449 0.0
696 2 38.6767216401 16.0648951449 0.0
697 2 36.0746216401 15.4864951449 0.0
698 2 42.6539216401 14.4921951449 0.0
699 2 44.0423216401 16.6108951449 0.0
700 2 41.2569216401 16.5776951449 0.0
701 2 48.0331216401 13.9764951449 0.0
702 2 49.4156216401 16.0311951449 0.0
703 2 46.7236216401 16.2919951449 0.0
704 2 53.3200216401 13.1151951449 0.0
705 2 54.3835216401 15.5747951449 0.0
706 2 51.9860216401 15.5013951449 0.0
707 2 59.1744216401 16.2803951449 0.0
708 2 56.8399216401 15.7460951449 0.0
709 2 62.5430216401 13.9219951449 0.0
710 2 63.9716216401 15.9277951449 0.0
711 2 61.4624216401 16.3883951449 0.0
712 2 67.7425216401 13.2408951449 0.0
713 2 69.0267216401 15.5397951449 0.0
714 2 66.5485216401 15.5805951449 0.0
715 2 72.8586216401 13.6331951449 0.0
716 2 74.0420216401 16.0187951449 0.0
717 2 71.5293216401 15.8748951449 0.0
718 2 2.39969164011 18.9792951449 0.0
719 2 2.89174164011 21.7760951449 0.0
720 2 0.724371640108 20.9342951449 0.0
721 2 7.92857164011 18.8580951449 0.0
722 2 9.58982164011 20.6580951449 0.0
723 2 7.23299164011 21.5561951449 0.0
724 2 13.3127216401 17.8601951449 0.0
725 2 14.7574216401 20.1278951449 0.0
726 2 12.2338216401 20.2349951449 0.0
727 2 18.5297216401 17.8221951449 0.0
728 2 19.8842216401 20.1117951449 0.0
729 2 17.3177216401 20.1478951449 0.0
730 2 23.7152216401 17.6694951449 0.0
731 2 25.0613216401 19.7361951449 0.0
732 2 22.4310216401 20.0777951449 0.0
733 2 29.1053216401 17.0317951449 0.0
734 2 30.3226216401 19.2531951449 0.0
735 2 27.7060216401 19.2684951449 0.0
736 2 34.5133216401 17.4226951449 0.0
737 2 35.5595216401 19.8646951449 0.0
738 2 32.9942216401 19.4795951449 0.0
739 2 39.7769216401 18.6012951449 0.0
740 2 40.3703216401 21.4540951449 0.0
741 2 38.1511216401 20.4350951449 0.0
742 2 45.6130216401 21.5003951449 0.0
743 2 47.5993216401 20.4594951449 0.0
744 2 45.7195216401 18.6296951449 0.0
745 2 51.2006216401 17.9658951449 0.0
746 2 52.5558216401 20.4603951449 0.0
747 2 50.1869216401 20.2808951449 0.0
748 2 55.7718216401 18.0132951449 0.0
749 2 57.1190216401 20.5274951449 0.0
750 2 54.8515216401 20.4467951449 0.0
751 2 60.4883216401 18.7787951449 0.0
752 2 62.0771216401 20.9203951449 0.0
753 2 59.4656216401 21.0485951449 0.0
754 2 65.3678216401 17.9594951449 0.0
755 2 67.0878216401 19.2741951449 0.0
756 2 64.5628216401 20.5144951449 0.0
757 2 69.0280216401 20.4345951449 0.0
758 2 70.8857216401 21.8400951449 0.0
759 2 68.2777216401 22.8797951449 0.0
760 2 74.8803216401 18.4050951449 0.0
761 2 75.8562216401 20.7038951449 0.0
762 2 73.4340216401 20.8352951449 0.0
763 2 76.9638216401 23.0455951449 0.0
764 2 0.571851640108 25.1787951449 0.0
765 2 75.7925216401 25.5004951449 0.0
766 2 4.99187164011 23.0046951449 0.0
767 2 2.83106164011 24.5059951449 0.0
768 2 10.8717216401 22.6113951449 0.0
769 2 11.9646216401 24.7973951449 0.0
770 2 9.35422164011 24.8615951449 0.0
771 2 15.9357216401 22.4465951449 0.0
772 2 17.0590216401 24.8204951449 0.0
773 2 14.5483216401 24.7555951449 0.0
774 2 20.9684216401 22.4203951449 0.0
775 2 21.9654216401 24.8107951449 0.0
776 2 19.5214216401 24.8100951449 0.0
777 2 26.9442216401 23.9881951449 0.0
778 2 27.1417216401 21.5340951449 0.0
779 2 29.4012216401 22.9939951449 0.0
780 2 31.3227216401 21.5132951449 0.0
781 2 32.1057216401 23.8894951449 0.0
782 2 36.4566216401 22.3234951449 0.0
783 2 37.5067216401 24.6616951449 0.0
784 2 34.8128216401 24.2347951449 0.0
785 2 42.0275216401 23.8315951449 0.0
786 2 39.8152216401 24.0393951449 0.0
787 2 48.8477216401 22.6177951449 0.0