ITEM: TIMESTEP
0
ITEM: NUMBER OF ATOMS
1350
ITEM: BOX BOUNDS xy xz yz pp pp pp
0.0 77.6445493749 0
0.0 81.6396816765 0
-10.0 10.0 0
ITEM: ATOMS id type x y z vx vy vz
1 1 1.62811246431 1.31657083826 0.0 0.0 0.0 0.0
2 1 7.12015246431 1.05042083826 0.0 0.0 0.0 0.0
3 1 12.2516124643 1.61279083826 0.0 0.0 0.0 0.0
4 1 17.5926124643 1.21882083826 0.0 0.0 0.0 0.0
5 1 23.2624124643 1.46815083826 0.0 0.0 0.0 0.0
6 1 28.1755124643 2.55627083826 0.0 0.0 0.0 0.0
7 1 32.8049124643 2.55614083826 0.0 0.0 0.0 0.0
8 1 38.2037124643 2.20478083826 0.0 0.0 0.0 0.0
9 1 43.5965124643 1.72076083826 0.0 0.0 0.0 0.0
10 1 48.9197124643 1.47003083826 0.0 0.0 0.0 0.0
11 1 54.2229124643 0.723060838256 0.0 0.0 0.0 0.0
12 1 59.7912124643 0.812740838256 0.0 0.0 0.0 0.0
13 1 66.0599124643 1.03666083826 0.0 0.0 0.0 0.0
14 1 69.0687124643 1.32696083826 0.0 0.0 0.0 0.0
15 1 74.0305124643 1.38431083826 0.0 0.0 0.0 0.0
16 1 76.9774124643 5.85708083826 0.0 0.0 0.0 0.0
17 1 4.95830246431 5.35771083826 0.0 0.0 0.0 0.0
18 1 9.88341246431 7.82314083826 0.0 0.0 0.0 0.0
19 1 16.5138124643 5.41503083826 0.0 0.0 0.0 0.0
20 1 19.5061124643 5.20423083826 0.0 0.0 0.0 0.0
21 1 24.3534124643 6.42343083826 0.0 0.0 0.0 0.0
22 1 30.1715124643 7.54049083826 0.0 0.0 0.0 0.0
23 1 35.7031124643 6.72633083826 0.0 0.0 0.0 0.0
24 1 41.2253124643 6.28877083826 0.0 0.0 0.0 0.0
25 1 46.4503124643 5.99178083826 0.0 0.0 0.0 0.0
26 1 51.7571124643 5.47308083826 0.0 0.0 0.0 0.0
27 1 57.0002124643 4.91145083826 0.0 0.0 0.0 0.0
28 1 61.1057124643 8.18920083826 0.0 0.0 0.0 0.0
29 1 66.4012124643 6.30928083826 0.0 0.0 0.0 0.0
30 1 71.7280124643 6.12991083826 0.0 0.0 0.0 0.0
31 1 2.55978246431 9.69284083826 0.0 0.0 0.0 0.0
32 1 8.13384246431 10.2808408383 0.0 0.0 0.0 0.0
33 1 13.0785124643 11.2628408383 0.0 0.0 0.0 0.0
34 1 17.9551124643 10.5976408383 0.0 0.0 0.0 0.0
35 1 22.4354124643 10.2742408383 0.0 0.0 0.0 0.0
36 1 28.0154124643 12.9453408383 0.0 0.0 0.0 0.0
37 1 33.3751124643 11.2565408383 0.0 0.0 0.0 0.0
38 1 39.0369124643 10.6626408383 0.0 0.0 0.0 0.0
39 1 44.3397124643 10.6137408383 0.0 0.0 0.0 0.0
40 1 49.2515124643 10.1305408383 0.0 0.0 0.0 0.0
41 1 54.5923124643 9.61532083826 0.0 0.0 0.0 0.0
42 1 59.7276124643 10.8556408383 0.0 0.0 0.0 0.0
43 1 64.2683124643 11.2397408383 0.0 0.0 0.0 0.0
44 1 69.4079124643 10.7225408383 0.0 0.0 0.0 0.0
45 1 75.1115124643 10.4795408383 0.0 0.0 0.0 0.0
46 1 0.507172464309 14.6274408383 0.0 0.0 0.0 0.0
47 1 4.88503246431 14.0420408383 0.0 0.0 0.0 0.0
48 1 8.99222246431 13.1584408383 0.0 0.0 0.0 0.0
49 1 15.6982124643 18.0244408383 0.0 0.0 0.0 0.0
50 1 20.7402124643 15.4702408383 0.0 0.0 0.0 0.0
51 1 26.3595124643 15.5414408383 0.0 0.0 0.0 0.0
52 1 31.7847124643 16.0308408383 0.0 0.0 0.0 0.0
53 1 36.8021124643 14.8717408383 0.0 0.0 0.0 0.0
54 1 42.0027124643 15.0483408383 0.0 0.0 0.0 0.0
55 1 47.7575124643 15.0005408383 0.0 0.0 0.0 0.0
56 1 52.7134124643 14.1248408383 0.0 0.0 0.0 0.0
57 1 56.8529124643 17.1272408383 0.0 0.0 0.0 0.0
58 1 62.2051124643 15.9531408383 0.0 0.0 0.0 0.0
59 1 67.0265124643 15.4810408383 0.0 0.0 0.0 0.0
60 1 70.9300124643 13.3444408383 0.0 0.0 0.0 0.0
61 1 4.52518246431 18.9308408383 0.0 0.0 0.0 0.0
62 1 7.53312246431 18.6586408383 0.0 0.0 0.0 0.0
63 1 13.2699124643 19.8132408383 0.0 0.0 0.0 0.0
64 1 19.0263124643 20.7331408383 0.0 0.0 0.0 0.0
65 1 23.6639124643 19.6892408383 0.0 0.0 0.0 0.0
66 1 27.3088124643 18.4336408383 0.0 0.0 0.0 0.0
67 1 34.7760124643 19.8981408383 0.0 0.0 0.0 0.0
68 1 39.5050124643 19.4108408383 0.0 0.0 0.0 0.0
69 1 43.5628124643 17.6094408383 0.0 0.0 0.0 0.0
70 1 50.5895124643 19.1632408383 0.0 0.0 0.0 0.0
71 1 55.4886124643 19.7920408383 0.0 0.0 0.0 0.0
72 1 60.4389124643 20.6310408383 0.0 0.0 0.0 0.0
73 1 65.4639124643 20.4112408383 0.0 0.0 0.0 0.0
74 1 70.1593124643 19.2260408383 0.0 0.0 0.0 0.0
75 1 75.5368124643 18.8905408383 0.0 0.0 0.0 0.0
76 1 77.1557124643 26.5287408383 0.0 0.0 0.0 0.0
77 1 4.47656246431 24.1165408383 0.0 0.0 0.0 0.0
78 1 9.68861246431 22.9390408383 0.0 0.0 0.0 0.0
79 1 14.5859124643 22.5127408383 0.0 0.0 0.0 0.0
80 1 21.6930124643 24.9979408383 0.0 0.0 0.0 0.0
81 1 26.5349124643 24.3149408383 0.0 0.0 0.0 0.0
82 1 31.9231124643 24.0241408383 0.0 0.0 0.0 0.0
83 1 37.4222124643 24.4367408383 0.0 0.0 0.0 0.0
84 1 42.5001124643 23.3429408383 0.0 0.0 0.0 0.0
85 1 47.4799124643 23.4267408383 0.0 0.0 0.0 0.0
86 1 52.2090124643 24.1025408383 0.0 0.0 0.0 0.0
87 1 57.1810124643 24.7585408383 0.0 0.0 0.0 0.0
88 1 62.5912124643 25.1130408383 0.0 0.0 0.0 0.0
89 1 68.4815124643 24.5942408383 0.0 0.0 0.0 0.0
90 1 73.1571124643 23.3837408383 0.0 0.0 0.0 0.0
91 1 2.82736246431 29.3692408383 0.0 0.0 0.0 0.0
92 1 9.29011246431 27.2393408383 0.0 0.0 0.0 0.0
93 1 12.2993124643 27.4084408383 0.0 0.0 0.0 0.0
94 1 17.7819124643 28.8259408383 0.0 0.0 0.0 0.0
95 1 23.8360124643 29.4329408383 0.0 0.0 0.0 0.0
96 1 31.0233124643 28.0086408383 0.0 0.0 0.0 0.0
97 1 34.0269124643 28.3549408383 0.0 0.0 0.0 0.0
98 1 41.4108124643 28.1307408383 0.0 0.0 0.0 0.0
99 1 44.4093124643 28.0090408383 0.0 0.0 0.0 0.0
100 1 49.1056124643 28.5523408383 0.0 0.0 0.0 0.0
101 1 54.2171124643 29.0395408383 0.0 0.0 0.0 0.0
102 1 59.6490124643 29.1773408383 0.0 0.0 0.0 0.0
103 1 64.1843124643 27.6493408383 0.0 0.0 0.0 0.0
104 1 71.2177124643 28.7356408383 0.0 0.0 0.0 0.0
105 1 76.0296124643 29.3242408383 0.0 0.0 0.0 0.0
106 1 0.226272464309 34.3557408383 0.0 0.0 0.0 0.0
107 1 5.02723246431 33.6636408383 0.0 0.0 0.0 0.0
108 1 9.71901246431 32.7689408383 0.0 0.0 0.0 0.0
109 1 14.6244124643 32.1196408383 0.0 0.0 0.0 0.0
110 1 19.0411124643 31.5846408383 0.0 0.0 0.0 0.0
111 1 25.9486124643 33.9561408383 0.0 0.0 0.0 0.0
112 1 30.6764124643 33.1562408383 0.0 0.0 0.0 0.0
113 1 35.9627124643 33.0282408383 0.0 0.0 0.0 0.0
114 1 40.8905124643 33.1238408383 0.0 0.0 0.0 0.0
115 1 46.3086124643 33.1478408383 0.0 0.0 0.0 0.0
116 1 51.3902124643 33.3594408383 0.0 0.0 0.0 0.0
117 1 57.0799124643 33.3649408383 0.0 0.0 0.0 0.0
118 1 62.6747124643 33.1173408383 0.0 0.0 0.0 0.0
119 1 67.9643124643 33.0016408383 0.0 0.0 0.0 0.0
120 1 72.9708124643 33.7763408383 0.0 0.0 0.0 0.0
121 1 4.71287246431 38.1279408383 0.0 0.0 0.0 0.0
122 1 7.72576246431 37.9694408383 0.0 0.0 0.0 0.0
123 1 12.8950124643 37.0706408383 0.0 0.0 0.0 0.0
124 1 17.4201124643 39.2804408383 0.0 0.0 0.0 0.0
125 1 23.0836124643 37.8078408383 0.0 0.0 0.0 0.0
126 1 30.0881124643 37.9172408383 0.0 0.0 0.0 0.0
127 1 33.0444124643 37.4606408383 0.0 0.0 0.0 0.0
128 1 37.9117124643 37.7443408383 0.0 0.0 0.0 0.0
129 1 43.3873124643 37.4803408383 0.0 0.0 0.0 0.0
130 1 49.0835124643 37.9047408383 0.0 0.0 0.0 0.0
131 1 54.4803124643 37.3432408383 0.0 0.0 0.0 0.0
132 1 59.9742124643 37.3600408383 0.0 0.0 0.0 0.0
133 1 64.9753124643 37.5049408383 0.0 0.0 0.0 0.0
134 1 70.0714124643 38.0344408383 0.0 0.0 0.0 0.0
135 1 75.0294124643 38.7897408383 0.0 0.0 0.0 0.0
136 1 76.9764124643 43.4682408383 0.0 0.0 0.0 0.0
137 1 4.68075246431 42.9038408383 0.0 0.0 0.0 0.0
138 1 10.3789124643 42.0283408383 0.0 0.0 0.0 0.0
139 1 15.9581124643 41.9415408383 0.0 0.0 0.0 0.0
140 1 20.5941124643 42.3054408383 0.0 0.0 0.0 0.0
141 1 25.3672124643 42.6675408383 0.0 0.0 0.0 0.0
142 1 30.0942124643 42.9764408383 0.0 0.0 0.0 0.0
143 1 35.0735124643 42.3439408383 0.0 0.0 0.0 0.0
144 1 40.6714124643 41.8253408383 0.0 0.0 0.0 0.0
145 1 44.9971124643 40.0272408383 0.0 0.0 0.0 0.0
146 1 51.7712124643 41.8812408383 0.0 0.0 0.0 0.0
147 1 56.9934124643 41.5384408383 0.0 0.0 0.0 0.0
148 1 61.9195124643 42.0855408383 0.0 0.0 0.0 0.0
149 1 66.8182124643 42.3059408383 0.0 0.0 0.0 0.0
150 1 71.7524124643 43.0624408383 0.0 0.0 0.0 0.0
151 1 2.30738246431 47.5227408383 0.0 0.0 0.0 0.0
152 1 7.81962246431 46.4284408383 0.0 0.0 0.0 0.0
153 1 13.3365124643 46.1805408383 0.0 0.0 0.0 0.0
154 1 18.7746124643 46.9754408383 0.0 0.0 0.0 0.0
155 1 23.6579124643 47.1508408383 0.0 0.0 0.0 0.0
156 1 28.3391124643 49.9704408383 0.0 0.0 0.0 0.0
157 1 33.5748124643 47.2866408383 0.0 0.0 0.0 0.0
158 1 38.6374124643 46.0515408383 0.0 0.0 0.0 0.0
159 1 44.3370124643 45.5597408383 0.0 0.0 0.0 0.0
160 1 49.4276124643 46.5128408383 0.0 0.0 0.0 0.0
161 1 54.6709124643 46.1365408383 0.0 0.0 0.0 0.0
162 1 59.0114124643 48.7380408383 0.0 0.0 0.0 0.0
163 1 64.3867124643 46.9454408383 0.0 0.0 0.0 0.0
164 1 68.9371124643 49.5207408383 0.0 0.0 0.0 0.0
165 1 74.3883124643 47.7647408383 0.0 0.0 0.0 0.0
166 1 77.6437124643 51.7906408383 0.0 0.0 0.0 0.0
167 1 5.39704246431 51.0625408383 0.0 0.0 0.0 0.0
168 1 10.6849124643 50.5347408383 0.0 0.0 0.0 0.0
169 1 16.2128124643 50.8010408383 0.0 0.0 0.0 0.0
170 1 21.8646124643 51.7914408383 0.0 0.0 0.0 0.0
171 1 27.0015124643 52.6939408383 0.0 0.0 0.0 0.0
172 1 32.0274124643 52.2025408383 0.0 0.0 0.0 0.0
173 1 38.7779124643 50.1853408383 0.0 0.0 0.0 0.0
174 1 41.7809124643 49.7175408383 0.0 0.0 0.0 0.0
175 1 45.8222124643 52.9290408383 0.0 0.0 0.0 0.0
176 1 53.7447124643 50.5007408383 0.0 0.0 0.0 0.0
177 1 56.8082124643 50.8216408383 0.0 0.0 0.0 0.0
178 1 61.9363124643 51.8942408383 0.0 0.0 0.0 0.0
179 1 67.5722124643 52.2170408383 0.0 0.0 0.0 0.0
180 1 72.5238124643 52.5057408383 0.0 0.0 0.0 0.0
181 1 3.19104246431 55.6828408383 0.0 0.0 0.0 0.0
182 1 8.05633246431 55.2070408383 0.0 0.0 0.0 0.0
183 1 13.1307124643 54.8301408383 0.0 0.0 0.0 0.0
184 1 18.5748124643 55.2024408383 0.0 0.0 0.0 0.0
185 1 23.7921124643 56.8663408383 0.0 0.0 0.0 0.0
186 1 31.1291124643 56.7239408383 0.0 0.0 0.0 0.0
187 1 34.1210124643 56.4132408383 0.0 0.0 0.0 0.0
188 1 39.0729124643 55.6553408383 0.0 0.0 0.0 0.0
189 1 44.2622124643 55.5444408383 0.0 0.0 0.0 0.0
190 1 48.5169124643 56.4156408383 0.0 0.0 0.0 0.0
191 1 52.9817124643 55.5957408383 0.0 0.0 0.0 0.0
192 1 58.3971124643 55.8156408383 0.0 0.0 0.0 0.0
193 1 64.5898124643 56.1588408383 0.0 0.0 0.0 0.0
194 1 70.0297124643 57.0788408383 0.0 0.0 0.0 0.0
195 1 75.7651124643 56.6366408383 0.0 0.0 0.0 0.0
196 1 0.987542464309 60.6569408383 0.0 0.0 0.0 0.0
197 1 5.76928246431 60.1848408383 0.0 0.0 0.0 0.0
198 1 10.7582124643 59.5888408383 0.0 0.0 0.0 0.0
199 1 15.9241124643 59.2219408383 0.0 0.0 0.0 0.0
200 1 19.7497124643 62.4021408383 0.0 0.0 0.0 0.0
201 1 24.7613124643 59.7738408383 0.0 0.0 0.0 0.0
202 1 33.2896124643 61.1884408383 0.0 0.0 0.0 0.0
203 1 38.2757124643 60.3050408383 0.0 0.0 0.0 0.0
204 1 41.2854124643 60.1457408383 0.0 0.0 0.0 0.0
205 1 45.6693124643 61.0187408383 0.0 0.0 0.0 0.0
206 1 50.7323124643 60.9177408383 0.0 0.0 0.0 0.0
207 1 55.7984124643 60.0082408383 0.0 0.0 0.0 0.0
208 1 59.7580124643 58.5037408383 0.0 0.0 0.0 0.0
209 1 66.7779124643 60.7312408383 0.0 0.0 0.0 0.0
210 1 71.4787124643 59.7248408383 0.0 0.0 0.0 0.0
211 1 3.43474246431 65.2111408383 0.0 0.0 0.0 0.0
212 1 8.78280246431 64.4882408383 0.0 0.0 0.0 0.0
213 1 14.0126124643 63.8437408383 0.0 0.0 0.0 0.0
214 1 17.2601124643 66.7853408383 0.0 0.0 0.0 0.0
215 1 22.9558124643 65.1424408383 0.0 0.0 0.0 0.0
216 1 28.4271124643 66.4789408383 0.0 0.0 0.0 0.0
217 1 33.1249124643 66.0694408383 0.0 0.0 0.0 0.0
218 1 37.7751124643 64.9411408383 0.0 0.0 0.0 0.0
219 1 43.1359124643 65.6450408383 0.0 0.0 0.0 0.0
220 1 48.2102124643 65.6176408383 0.0 0.0 0.0 0.0
221 1 53.8687124643 64.9628408383 0.0 0.0 0.0 0.0
222 1 59.1105124643 64.2421408383 0.0 0.0 0.0 0.0
223 1 63.8472124643 64.3239408383 0.0 0.0 0.0 0.0
224 1 68.3564124643 63.2718408383 0.0 0.0 0.0 0.0
225 1 75.5139124643 64.9259408383 0.0 0.0 0.0 0.0
226 1 0.680872464309 69.2598408383 0.0 0.0 0.0 0.0
227 1 7.81452246431 68.7838408383 0.0 0.0 0.0 0.0
228 1 10.8216124643 68.5590408383 0.0 0.0 0.0 0.0
229 1 15.5783124643 69.2977408383 0.0 0.0 0.0 0.0
230 1 20.3692124643 69.4277408383 0.0 0.0 0.0 0.0
231 1 24.3001124643 67.8474408383 0.0 0.0 0.0 0.0
232 1 31.1160124643 71.0741408383 0.0 0.0 0.0 0.0
233 1 36.1971124643 70.2185408383 0.0 0.0 0.0 0.0
234 1 39.9152124643 72.3959408383 0.0 0.0 0.0 0.0
235 1 46.6382124643 70.2483408383 0.0 0.0 0.0 0.0
236 1 51.9047124643 69.1900408383 0.0 0.0 0.0 0.0
237 1 57.3316124643 68.9766408383 0.0 0.0 0.0 0.0
238 1 62.4411124643 69.0157408383 0.0 0.0 0.0 0.0
239 1 67.6315124643 68.4570408383 0.0 0.0 0.0 0.0
240 1 72.5798124643 70.1451408383 0.0 0.0 0.0 0.0
241 1 2.30978246431 74.0477408383 0.0 0.0 0.0 0.0
242 1 7.36806246431 73.9345408383 0.0 0.0 0.0 0.0
243 1 12.7239124643 73.7390408383 0.0 0.0 0.0 0.0
244 1 19.7834124643 73.4956408383 0.0 0.0 0.0 0.0
245 1 22.7944124643 73.5621408383 0.0 0.0 0.0 0.0
246 1 27.7996124643 74.8808408383 0.0 0.0 0.0 0.0
247 1 33.0957124643 75.1221408383 0.0 0.0 0.0 0.0
248 1 38.2543124643 74.9118408383 0.0 0.0 0.0 0.0
249 1 42.5488124643 73.8351408383 0.0 0.0 0.0 0.0
250 1 51.4737124643 73.4078408383 0.0 0.0 0.0 0.0
251 1 54.4973124643 73.3752408383 0.0 0.0 0.0 0.0
252 1 59.8082124643 73.6322408383 0.0 0.0 0.0 0.0
253 1 65.0292124643 73.3396408383 0.0 0.0 0.0 0.0
254 1 72.2577124643 73.1258408383 0.0 0.0 0.0 0.0
255 1 75.2301124643 73.4469408383 0.0 0.0 0.0 0.0
256 1 76.6748124643 2.85291083826 0.0 0.0 0.0 0.0
257 1 4.43409246431 2.40288083826 0.0 0.0 0.0 0.0
258 1 9.50541246431 2.87589083826 0.0 0.0 0.0 0.0
259 1 15.0307124643 2.80161083826 0.0 0.0 0.0 0.0
260 1 20.3816124643 2.33848083826 0.0 0.0 0.0 0.0
261 1 25.3661124643 3.60689083826 0.0 0.0 0.0 0.0
262 1 30.4735124643 4.50550083826 0.0 0.0 0.0 0.0
263 1 35.5898124643 3.71739083826 0.0 0.0 0.0 0.0
264 1 41.0181124643 3.28827083826 0.0 0.0 0.0 0.0
265 1 46.3234124643 2.99222083826 0.0 0.0 0.0 0.0
266 1 51.7585124643 2.46539083826 0.0 0.0 0.0 0.0
267 1 56.9842124643 1.91432083826 0.0 0.0 0.0 0.0
268 1 61.8077124643 3.07032083826 0.0 0.0 0.0 0.0
269 1 64.7624124643 3.74780083826 0.0 0.0 0.0 0.0
270 1 71.5287124643 3.09820083826 0.0 0.0 0.0 0.0
271 1 2.24562246431 6.70563083826 0.0 0.0 0.0 0.0
272 1 7.98717246431 5.48339083826 0.0 0.0 0.0 0.0
273 1 12.8664124643 8.29387083826 0.0 0.0 0.0 0.0
274 1 15.8997124643 8.34864083826 0.0 0.0 0.0 0.0
275 1 21.5299124643 7.41203083826 0.0 0.0 0.0 0.0
276 1 25.2667124643 9.26879083826 0.0 0.0 0.0 0.0
277 1 33.1014124643 8.26707083826 0.0 0.0 0.0 0.0
278 1 38.5632124643 7.69775083826 0.0 0.0 0.0 0.0
279 1 43.9268124643 7.63206083826 0.0 0.0 0.0 0.0
280 1 49.2351124643 7.12434083826 0.0 0.0 0.0 0.0
281 1 54.5335124643 6.62033083826 0.0 0.0 0.0 0.0
282 1 59.9488124643 5.43228083826 0.0 0.0 0.0 0.0
283 1 64.1042124643 8.25318083826 0.0 0.0 0.0 0.0
284 1 69.1234124643 7.68912083826 0.0 0.0 0.0 0.0
285 1 74.4369124643 7.51897083826 0.0 0.0 0.0 0.0
286 1 0.255022464309 11.6188408383 0.0 0.0 0.0 0.0
287 1 5.23084246431 11.0535408383 0.0 0.0 0.0 0.0
288 1 11.8449124643 13.9738408383 0.0 0.0 0.0 0.0
289 1 15.7484124643 12.5944408383 0.0 0.0 0.0 0.0
290 1 20.3601124643 12.4464408383 0.0 0.0 0.0 0.0
291 1 28.2032124643 9.89824083826 0.0 0.0 0.0 0.0
292 1 31.0194124643 13.1415408383 0.0 0.0 0.0 0.0
293 1 36.3092124643 11.9256408383 0.0 0.0 0.0 0.0
294 1 41.7094124643 12.0596408383 0.0 0.0 0.0 0.0
295 1 46.9668124643 12.0885408383 0.0 0.0 0.0 0.0
296 1 52.0501124643 11.2037408383 0.0 0.0 0.0 0.0
297 1 56.8320124643 11.6015408383 0.0 0.0 0.0 0.0
298 1 61.8337124643 12.9791408383 0.0 0.0 0.0 0.0
299 1 66.9779124643 12.4811408383 0.0 0.0 0.0 0.0
300 1 73.9209124643 13.2543408383 0.0 0.0 0.0 0.0
301 1 2.97012246431 16.3404408383 0.0 0.0 0.0 0.0
302 1 7.38822246431 15.6698408383 0.0 0.0 0.0 0.0
303 1 14.5044124643 15.2989408383 0.0 0.0 0.0 0.0
304 1 18.7030124643 17.7343408383 0.0 0.0 0.0 0.0
305 1 23.5362124643 16.6518408383 0.0 0.0 0.0 0.0
306 1 30.2826124643 18.6126408383 0.0 0.0 0.0 0.0
307 1 34.6325124643 16.9149408383 0.0 0.0 0.0 0.0
308 1 39.3497124643 16.4223408383 0.0 0.0 0.0 0.0
309 1 46.5379124643 17.7469408383 0.0 0.0 0.0 0.0
310 1 50.5232124643 16.1602408383 0.0 0.0 0.0 0.0
311 1 55.6935124643 14.3710408383 0.0 0.0 0.0 0.0
312 1 59.7888124643 17.7090408383 0.0 0.0 0.0 0.0
313 1 64.7921124643 17.4785408383 0.0 0.0 0.0 0.0
314 1 69.9272124643 16.2063408383 0.0 0.0 0.0 0.0
315 1 75.4286124643 15.8700408383 0.0 0.0 0.0 0.0
316 1 77.6137124643 21.0887408383 0.0 0.0 0.0 0.0
317 1 2.96304246431 21.5000408383 0.0 0.0 0.0 0.0
318 1 10.2448124643 19.9894408383 0.0 0.0 0.0 0.0
319 1 17.4740124643 23.3128408383 0.0 0.0 0.0 0.0
320 1 21.7372124643 21.9875408383 0.0 0.0 0.0 0.0
321 1 26.2261124643 21.2656408383 0.0 0.0 0.0 0.0
322 1 32.0180124643 21.0416408383 0.0 0.0 0.0 0.0
323 1 37.3246124643 21.4488408383 0.0 0.0 0.0 0.0
324 1 42.3402124643 20.3472408383 0.0 0.0 0.0 0.0
325 1 47.8777124643 20.4377408383 0.0 0.0 0.0 0.0
326 1 52.8206124643 21.1564408383 0.0 0.0 0.0 0.0
327 1 57.6927124643 21.8147408383 0.0 0.0 0.0 0.0
328 1 63.0235124643 22.1488408383 0.0 0.0 0.0 0.0
329 1 68.2373124643 21.5700408383 0.0 0.0 0.0 0.0
330 1 72.9259124643 20.3881408383 0.0 0.0 0.0 0.0
331 1 2.50981246431 26.3927408383 0.0 0.0 0.0 0.0
332 1 7.40320246431 24.8797408383 0.0 0.0 0.0 0.0
333 1 12.2973124643 24.4228408383 0.0 0.0 0.0 0.0
334 1 18.8537124643 25.9987408383 0.0 0.0 0.0 0.0
335 1 24.3374124643 26.4304408383 0.0 0.0 0.0 0.0
336 1 29.3220124643 25.5144408383 0.0 0.0 0.0 0.0
337 1 34.5888124643 25.4174408383 0.0 0.0 0.0 0.0
338 1 40.2749124643 25.3548408383 0.0 0.0 0.0 0.0
339 1 44.9607124643 25.0517408383 0.0 0.0 0.0 0.0
340 1 49.5857124643 25.5695408383 0.0 0.0 0.0 0.0
341 1 54.4829124643 26.0524408383 0.0 0.0 0.0 0.0
342 1 59.8014124643 26.1915408383 0.0 0.0 0.0 0.0
343 1 67.1559124643 27.3104408383 0.0 0.0 0.0 0.0
344 1 71.2657124643 25.7191408383 0.0 0.0 0.0 0.0
345 1 76.1320124643 23.7099408383 0.0 0.0 0.0 0.0
346 1 0.582112464309 31.3632408383 0.0 0.0 0.0 0.0
347 1 5.48114246431 30.7153408383 0.0 0.0 0.0 0.0
348 1 8.39729246431 30.0874408383 0.0 0.0 0.0 0.0
349 1 14.7833124643 29.1215408383 0.0 0.0 0.0 0.0
350 1 22.0426124643 31.8975408383 0.0 0.0 0.0 0.0
351 1 26.3974124643 30.9888408383 0.0 0.0 0.0 0.0
352 1 29.3466124643 30.4802408383 0.0 0.0 0.0 0.0
353 1 36.5041124643 30.0865408383 0.0 0.0 0.0 0.0
354 1 39.5039124643 30.4431408383 0.0 0.0 0.0 0.0
355 1 46.5390124643 30.1333408383 0.0 0.0 0.0 0.0
356 1 51.5136124643 30.3530408383 0.0 0.0 0.0 0.0
357 1 56.9039124643 30.3782408383 0.0 0.0 0.0 0.0
358 1 62.4909124643 30.1263408383 0.0 0.0 0.0 0.0
359 1 68.4967124643 30.0138408383 0.0 0.0 0.0 0.0
360 1 73.4077124643 30.7885408383 0.0 0.0 0.0 0.0
361 1 2.88692246431 35.7383408383 0.0 0.0 0.0 0.0
362 1 7.70826246431 34.9786408383 0.0 0.0 0.0 0.0
363 1 12.3864124643 34.1077408383 0.0 0.0 0.0 0.0
364 1 17.0594124643 33.8707408383 0.0 0.0 0.0 0.0
365 1 23.0657124643 34.7658408383 0.0 0.0 0.0 0.0
366 1 28.6088124643 35.3190408383 0.0 0.0 0.0 0.0
367 1 33.3543124643 34.4814408383 0.0 0.0 0.0 0.0
368 1 38.3890124643 34.7829408383 0.0 0.0 0.0 0.0
369 1 43.5947124643 34.4687408383 0.0 0.0 0.0 0.0
370 1 48.7814124643 34.8911408383 0.0 0.0 0.0 0.0
371 1 54.2362124643 34.3605408383 0.0 0.0 0.0 0.0
372 1 59.9284124643 34.3598408383 0.0 0.0 0.0 0.0
373 1 65.3437124643 34.5078408383 0.0 0.0 0.0 0.0
374 1 70.2229124643 35.0112408383 0.0 0.0 0.0 0.0
375 1 75.2218124643 35.7783408383 0.0 0.0 0.0 0.0
376 1 77.5056124643 40.5133408383 0.0 0.0 0.0 0.0
377 1 2.88082246431 40.4925408383 0.0 0.0 0.0 0.0
378 1 10.5581124643 39.0146408383 0.0 0.0 0.0 0.0
379 1 15.9002124643 36.6777408383 0.0 0.0 0.0 0.0
380 1 20.4464124643 39.3064408383 0.0 0.0 0.0 0.0
381 1 25.5113124643 39.6697408383 0.0 0.0 0.0 0.0
382 1 28.4584124643 40.4167408383 0.0 0.0 0.0 0.0
383 1 35.3669124643 39.3511408383 0.0 0.0 0.0 0.0
384 1 40.7039124643 38.8297408383 0.0 0.0 0.0 0.0
385 1 47.9185124643 40.7044408383 0.0 0.0 0.0 0.0
386 1 51.9111124643 38.8842408383 0.0 0.0 0.0 0.0
387 1 57.2223124643 38.5541408383 0.0 0.0 0.0 0.0
388 1 62.4192124643 39.1078408383 0.0 0.0 0.0 0.0
389 1 67.3560124643 39.3394408383 0.0 0.0 0.0 0.0
390 1 72.2955124643 40.0805408383 0.0 0.0 0.0 0.0
391 1 2.14981246431 44.5370408383 0.0 0.0 0.0 0.0
392 1 7.67247246431 43.4180408383 0.0 0.0 0.0 0.0
393 1 13.1880124643 43.1643408383 0.0 0.0 0.0 0.0
394 1 18.1414124643 44.0203408383 0.0 0.0 0.0 0.0
395 1 22.8520124643 44.2658408383 0.0 0.0 0.0 0.0
396 1 27.6199124643 44.6589408383 0.0 0.0 0.0 0.0
397 1 32.8063124643 44.3395408383 0.0 0.0 0.0 0.0
398 1 37.9710124643 43.1383408383 0.0 0.0 0.0 0.0
399 1 43.5531124643 42.6609408383 0.0 0.0 0.0 0.0
400 1 49.2188124643 43.4592408383 0.0 0.0 0.0 0.0
401 1 54.4701124643 43.1514408383 0.0 0.0 0.0 0.0
402 1 59.2596124643 43.4900408383 0.0 0.0 0.0 0.0
403 1 64.2827124643 43.9324408383 0.0 0.0 0.0 0.0
404 1 69.0148124643 44.3537408383 0.0 0.0 0.0 0.0
405 1 74.2495124643 44.7563408383 0.0 0.0 0.0 0.0
406 1 77.2229124643 48.8153408383 0.0 0.0 0.0 0.0
407 1 5.27443246431 48.0646408383 0.0 0.0 0.0 0.0
408 1 10.6314124643 47.5281408383 0.0 0.0 0.0 0.0
409 1 15.8852124643 47.8147408383 0.0 0.0 0.0 0.0
410 1 21.1845124643 48.8373408383 0.0 0.0 0.0 0.0
411 1 26.6399124643 47.4958408383 0.0 0.0 0.0 0.0
412 1 31.2946124643 49.2947408383 0.0 0.0 0.0 0.0
413 1 36.5028124643 48.1664408383 0.0 0.0 0.0 0.0
414 1 41.5679124643 46.7318408383 0.0 0.0 0.0 0.0
415 1 46.5704124643 47.5940408383 0.0 0.0 0.0 0.0
416 1 52.1930124643 47.8697408383 0.0 0.0 0.0 0.0
417 1 57.6858124643 46.0568408383 0.0 0.0 0.0 0.0
418 1 62.0356124643 48.8825408383 0.0 0.0 0.0 0.0
419 1 67.4157124643 46.9261408383 0.0 0.0 0.0 0.0
420 1 71.9552124643 49.5562408383 0.0 0.0 0.0 0.0
421 1 2.86877246431 52.6969408383 0.0 0.0 0.0 0.0
422 1 8.17491246431 52.2039408383 0.0 0.0 0.0 0.0
423 1 13.3906124643 51.8473408383 0.0 0.0 0.0 0.0
424 1 18.8779124643 52.2301408383 0.0 0.0 0.0 0.0
425 1 24.1682124643 53.8210408383 0.0 0.0 0.0 0.0
426 1 29.6758124643 54.0902408383 0.0 0.0 0.0 0.0
427 1 34.7427124643 53.4803408383 0.0 0.0 0.0 0.0
428 1 37.7049124643 52.9842408383 0.0 0.0 0.0 0.0
429 1 44.8001124643 50.0782408383 0.0 0.0 0.0 0.0
430 1 48.8083124643 53.4227408383 0.0 0.0 0.0 0.0
431 1 51.7842124643 52.8219408383 0.0 0.0 0.0 0.0
432 1 59.0531124643 52.8682408383 0.0 0.0 0.0 0.0
433 1 64.6873124643 53.1510408383 0.0 0.0 0.0 0.0
434 1 69.9579124643 54.0698408383 0.0 0.0 0.0 0.0
435 1 75.2936124643 53.6691408383 0.0 0.0 0.0 0.0
436 1 0.936612464309 57.6542408383 0.0 0.0 0.0 0.0
437 1 5.78822246431 57.1752408383 0.0 0.0 0.0 0.0
438 1 10.7080124643 56.5917408383 0.0 0.0 0.0 0.0
439 1 15.7660124643 56.2408408383 0.0 0.0 0.0 0.0
440 1 20.8001124643 57.2101408383 0.0 0.0 0.0 0.0
441 1 27.7092124643 60.5753408383 0.0 0.0 0.0 0.0
442 1 30.6304124643 59.6811408383 0.0 0.0 0.0 0.0
443 1 36.8475124643 57.6682408383 0.0 0.0 0.0 0.0
444 1 41.6967124643 57.1329408383 0.0 0.0 0.0 0.0
445 1 45.9808124643 58.0139408383 0.0 0.0 0.0 0.0
446 1 51.0885124643 57.9309408383 0.0 0.0 0.0 0.0
447 1 55.6379124643 56.9937408383 0.0 0.0 0.0 0.0
448 1 62.7442124643 58.5304408383 0.0 0.0 0.0 0.0
449 1 67.1217124643 57.7589408383 0.0 0.0 0.0 0.0
450 1 74.4353124643 59.3257408383 0.0 0.0 0.0 0.0
451 1 3.54797246431 62.2066408383 0.0 0.0 0.0 0.0
452 1 8.45685246431 61.5067408383 0.0 0.0 0.0 0.0
453 1 13.4451124643 60.9072408383 0.0 0.0 0.0 0.0
454 1 18.9065124643 59.5386408383 0.0 0.0 0.0 0.0
455 1 22.7851124643 62.1292408383 0.0 0.0 0.0 0.0
456 1 28.4971124643 63.4784408383 0.0 0.0 0.0 0.0
457 1 31.4976124643 63.5709408383 0.0 0.0 0.0 0.0
458 1 36.1118124643 62.3847408383 0.0 0.0 0.0 0.0
459 1 43.0939124643 62.5885408383 0.0 0.0 0.0 0.0
460 1 48.2288124643 62.5995408383 0.0 0.0 0.0 0.0
461 1 53.5358124643 61.9811408383 0.0 0.0 0.0 0.0
462 1 58.5352124643 61.2618408383 0.0 0.0 0.0 0.0
463 1 63.8491124643 61.3226408383 0.0 0.0 0.0 0.0
464 1 71.2956124643 62.7405408383 0.0 0.0 0.0 0.0
465 1 75.9239124643 61.9374408383 0.0 0.0 0.0 0.0
466 1 0.594632464309 66.2541408383 0.0 0.0 0.0 0.0
467 1 6.29593246431 66.1894408383 0.0 0.0 0.0 0.0
468 1 11.5726124643 65.6395408383 0.0 0.0 0.0 0.0
469 1 17.0371124643 63.8058408383 0.0 0.0 0.0 0.0
470 1 20.2491124643 66.4564408383 0.0 0.0 0.0 0.0
471 1 27.0077124643 69.1166408383 0.0 0.0 0.0 0.0
472 1 30.9471124643 68.0882408383 0.0 0.0 0.0 0.0
473 1 35.8578124643 67.2432408383 0.0 0.0 0.0 0.0
474 1 40.2675124643 66.6679408383 0.0 0.0 0.0 0.0
475 1 45.7009124643 67.3316408383 0.0 0.0 0.0 0.0
476 1 51.1600124643 66.2892408383 0.0 0.0 0.0 0.0
477 1 56.6904124643 66.0319408383 0.0 0.0 0.0 0.0
478 1 61.4691124643 66.1426408383 0.0 0.0 0.0 0.0
479 1 66.5415124643 65.6543408383 0.0 0.0 0.0 0.0
480 1 72.5391124643 65.4897408383 0.0 0.0 0.0 0.0
481 1 3.04593246431 71.1333408383 0.0 0.0 0.0 0.0
482 1 6.06317246431 71.2210408383 0.0 0.0 0.0 0.0
483 1 12.9197124643 70.7186408383 0.0 0.0 0.0 0.0
484 1 17.9333124643 71.1419408383 0.0 0.0 0.0 0.0
485 1 23.1020124643 70.5938408383 0.0 0.0 0.0 0.0
486 1 28.2239124643 71.8889408383 0.0 0.0 0.0 0.0
487 1 33.8999124643 72.2080408383 0.0 0.0 0.0 0.0
488 1 39.1361124643 69.4978408383 0.0 0.0 0.0 0.0
489 1 45.4551124643 73.0431408383 0.0 0.0 0.0 0.0
490 1 49.5632124643 71.0640408383 0.0 0.0 0.0 0.0
491 1 54.6722124643 70.3779408383 0.0 0.0 0.0 0.0
492 1 59.8757124643 70.6089408383 0.0 0.0 0.0 0.0
493 1 65.2025124643 70.2999408383 0.0 0.0 0.0 0.0
494 1 70.6228124643 67.8581408383 0.0 0.0 0.0 0.0
495 1 75.5702124643 70.4690408383 0.0 0.0 0.0 0.0
496 1 77.3543124643 75.5578408383 0.0 0.0 0.0 0.0
497 1 4.87273246431 75.6055408383 0.0 0.0 0.0 0.0
498 1 10.0944124643 75.2286408383 0.0 0.0 0.0 0.0
499 1 15.0271124643 75.7009408383 0.0 0.0 0.0 0.0
500 1 18.0370124643 75.9095408383 0.0 0.0 0.0 0.0
501 1 24.8909124643 75.7140408383 0.0 0.0 0.0 0.0
502 1 30.3787124643 76.4769408383 0.0 0.0 0.0 0.0
503 1 35.7284124643 76.5779408383 0.0 0.0 0.0 0.0
504 1 40.8941124643 76.3389408383 0.0 0.0 0.0 0.0
505 1 46.8846124643 75.7117408383 0.0 0.0 0.0 0.0
506 1 49.8869124643 75.9440408383 0.0 0.0 0.0 0.0
507 1 57.0804124643 74.9583408383 0.0 0.0 0.0 0.0
508 1 62.5003124643 75.0325408383 0.0 0.0 0.0 0.0
509 1 67.4265124643 75.1890408383 0.0 0.0 0.0 0.0
510 1 70.4276124643 75.4960408383 0.0 0.0 0.0 0.0
511 1 4.53031246431 78.5841408383 0.0 0.0 0.0 0.0
512 1 9.95901246431 78.2491408383 0.0 0.0 0.0 0.0
513 1 14.8321124643 78.6988408383 0.0 0.0 0.0 0.0
514 1 20.0650124643 78.1390408383 0.0 0.0 0.0 0.0
515 1 24.8814124643 80.5764408383 0.0 0.0 0.0 0.0
516 1 30.3409124643 79.5057408383 0.0 0.0 0.0 0.0
517 1 35.4710124643 79.5878408383 0.0 0.0 0.0 0.0
518 1 40.8426124643 79.3415408383 0.0 0.0 0.0 0.0
519 1 46.1627124643 78.6401408383 0.0 0.0 0.0 0.0
520 1 51.3673124643 78.5542408383 0.0 0.0 0.0 0.0
521 1 56.9726124643 77.9782408383 0.0 0.0 0.0 0.0
522 1 62.3158124643 78.0662408383 0.0 0.0 0.0 0.0
523 1 67.0337124643 78.1672408383 0.0 0.0 0.0 0.0
524 1 71.8118124643 78.1826408383 0.0 0.0 0.0 0.0
525 1 76.8538124643 78.5235408383 0.0 0.0 0.0 0.0
526 1 1.84956246431 79.9584408383 0.0 0.0 0.0 0.0
527 1 7.31944246431 79.6986408383 0.0 0.0 0.0 0.0
528 1 12.2399124643 80.2289408383 0.0 0.0 0.0 0.0
529 1 17.6103124643 79.8694408383 0.0 0.0 0.0 0.0
530 1 23.1038124643 78.1447408383 0.0 0.0 0.0 0.0
531 1 27.8395124643 81.1987408383 0.0 0.0 0.0 0.0
532 1 32.8761124643 81.1592408383 0.0 0.0 0.0 0.0
533 1 38.2171124643 80.8345408383 0.0 0.0 0.0 0.0
534 1 43.6758124643 80.3530408383 0.0 0.0 0.0 0.0
535 1 48.7948124643 80.1127408383 0.0 0.0 0.0 0.0
536 1 54.2770124643 79.3537408383 0.0 0.0 0.0 0.0
537 1 59.6259124643 79.4368408383 0.0 0.0 0.0 0.0
538 1 64.6550124643 79.9877408383 0.0 0.0 0.0 0.0
539 1 69.4248124643 79.9861408383 0.0 0.0 0.0 0.0
540 1 74.2227124643 79.9967408383 0.0 0.0 0.0 0.0
541 2 1.72184246431 81.4542408383 0.0 0.0 0.0 0.0
542 2 0.332122464309 2.07945083826 0.0 0.0 0.0 0.0
543 2 3.02568246431 1.88187083826 0.0 0.0 0.0 0.0
544 2 7.25999246431 81.1994408383 0.0 0.0 0.0 0.0
545 2 8.34982246431 1.90785083826 0.0 0.0 0.0 0.0
546 2 5.74931246431 1.67185083826 0.0 0.0 0.0 0.0
547 2 10.9149124643 2.32475083826 0.0 0.0 0.0 0.0
548 2 13.6206124643 2.26709083826 0.0 0.0 0.0 0.0
549 2 12.2255124643 0.0989928382558 0.0 0.0 0.0 0.0
550 2 17.5904124643 81.3630408383 0.0 0.0 0.0 0.0
551 2 19.0096124643 1.72272083826 0.0 0.0 0.0 0.0
552 2 16.2853124643 1.95833083826 0.0 0.0 0.0 0.0
553 2 24.2812124643 2.57314083826 0.0 0.0 0.0 0.0
554 2 24.0126124643 0.169021838256 0.0 0.0 0.0 0.0
555 2 21.7988124643 1.83135083826 0.0 0.0 0.0 0.0
556 2 28.0847124643 1.05108083826 0.0 0.0 0.0 0.0
557 2 29.3088124643 3.53832083826 0.0 0.0 0.0 0.0
558 2 26.7868124643 3.14085083826 0.0 0.0 0.0 0.0
559 2 32.8029124643 1.03473083826 0.0 0.0 0.0 0.0
560 2 34.2083124643 3.12086083826 0.0 0.0 0.0 0.0
561 2 31.6745124643 3.56547083826 0.0 0.0 0.0 0.0
562 2 38.2065124643 0.699320838256 0.0 0.0 0.0 0.0
563 2 39.6070124643 2.75927083826 0.0 0.0 0.0 0.0
564 2 36.8987124643 2.96201083826 0.0 0.0 0.0 0.0
565 2 43.6609124643 0.218463838256 0.0 0.0 0.0 0.0
566 2 44.9580124643 2.36414083826 0.0 0.0 0.0 0.0
567 2 42.2974124643 2.48723083826 0.0 0.0 0.0 0.0
568 2 48.8309124643 81.6121408383 0.0 0.0 0.0 0.0
569 2 47.6281124643 2.24034083826 0.0 0.0 0.0 0.0
570 2 50.3371124643 1.96950083826 0.0 0.0 0.0 0.0
571 2 54.2431124643 80.8607408383 0.0 0.0 0.0 0.0
572 2 52.9868124643 1.59059083826 0.0 0.0 0.0 0.0
573 2 55.6132124643 1.29951083826 0.0 0.0 0.0 0.0
574 2 59.7501124643 80.9438408383 0.0 0.0 0.0 0.0
575 2 60.9037124643 1.84337083826 0.0 0.0 0.0 0.0
576 2 58.3709124643 1.33653083826 0.0 0.0 0.0 0.0
577 2 65.4080124643 2.38954083826 0.0 0.0 0.0 0.0
578 2 65.2629124643 81.3816408383 0.0 0.0 0.0 0.0
579 2 67.5580124643 1.26174083826 0.0 0.0 0.0 0.0
580 2 69.3430124643 81.4796408383 0.0 0.0 0.0 0.0
581 2 70.2388124643 2.28690083826 0.0 0.0 0.0 0.0
582 2 74.1048124643 81.5067408383 0.0 0.0 0.0 0.0
583 2 75.3541124643 2.12401083826 0.0 0.0 0.0 0.0
584 2 72.7797124643 2.23814083826 0.0 0.0 0.0 0.0
585 2 76.7987124643 4.35519083826 0.0 0.0 0.0 0.0
586 2 0.795162464309 6.26925083826 0.0 0.0 0.0 0.0
587 2 75.7140124643 6.69519083826 0.0 0.0 0.0 0.0
588 2 3.61947246431 6.06508083826 0.0 0.0 0.0 0.0
589 2 6.46975246431 5.53291083826 0.0 0.0 0.0 0.0
590 2 4.66398246431 3.88295083826 0.0 0.0 0.0 0.0
591 2 8.94374246431 6.64886083826 0.0 0.0 0.0 0.0
592 2 11.3980124643 7.89569083826 0.0 0.0 0.0 0.0
593 2 9.01559246431 9.06928083826 0.0 0.0 0.0 0.0
594 2 16.2102124643 6.87558083826 0.0 0.0 0.0 0.0
595 2 15.6408124643 4.18776083826 0.0 0.0 0.0 0.0
596 2 18.0133124643 5.29562083826 0.0 0.0 0.0 0.0
597 2 20.4355124643 6.38681083826 0.0 0.0 0.0 0.0
598 2 20.0421124643 3.80427083826 0.0 0.0 0.0 0.0