ITEM: TIMESTEP
0
ITEM: NUMBER OF ATOMS
1350
ITEM: BOX BOUNDS xy xz yz pp pp pp
0.0 77.7310110587 0
0.0 81.6531438801 0
-10.0 10.0 0
ITEM: ATOMS id type x y z vx vy vz
1 1 2.94299330622 0.471842940061 0.0 0.0 0.0 0.0
2 1 8.23415330622 1.45332194006 0.0 0.0 0.0 0.0
3 1 14.4952433062 2.24659194006 0.0 0.0 0.0 0.0
4 1 20.5331433062 1.34926194006 0.0 0.0 0.0 0.0
5 1 23.5265433062 1.16659194006 0.0 0.0 0.0 0.0
6 1 28.4364433062 1.44470194006 0.0 0.0 0.0 0.0
7 1 33.3481433062 2.04620194006 0.0 0.0 0.0 0.0
8 1 38.0340433062 1.98712194006 0.0 0.0 0.0 0.0
9 1 43.2574433062 1.50820194006 0.0 0.0 0.0 0.0
10 1 48.4394433062 0.933311940061 0.0 0.0 0.0 0.0
11 1 53.6083433062 1.15785194006 0.0 0.0 0.0 0.0
12 1 58.3783433062 1.26316194006 0.0 0.0 0.0 0.0
13 1 63.6970433062 1.90934194006 0.0 0.0 0.0 0.0
14 1 69.3638433062 1.90723194006 0.0 0.0 0.0 0.0
15 1 75.4609433062 0.783211940061 0.0 0.0 0.0 0.0
16 1 0.43333330622 5.08624194006 0.0 0.0 0.0 0.0
17 1 5.21852330622 5.25171194006 0.0 0.0 0.0 0.0
18 1 9.63934330622 4.11239194006 0.0 0.0 0.0 0.0
19 1 16.3096433062 7.07672194006 0.0 0.0 0.0 0.0
20 1 22.1493433062 6.26183194006 0.0 0.0 0.0 0.0
21 1 25.1404433062 5.92721194006 0.0 0.0 0.0 0.0
22 1 30.0931433062 6.35503194006 0.0 0.0 0.0 0.0
23 1 35.3435433062 6.88531194006 0.0 0.0 0.0 0.0
24 1 40.7382433062 6.23633194006 0.0 0.0 0.0 0.0
25 1 45.7763433062 5.73913194006 0.0 0.0 0.0 0.0
26 1 50.7413433062 5.57559194006 0.0 0.0 0.0 0.0
27 1 55.5330433062 6.04160194006 0.0 0.0 0.0 0.0
28 1 60.2624433062 5.84015194006 0.0 0.0 0.0 0.0
29 1 64.6181433062 4.77975194006 0.0 0.0 0.0 0.0
30 1 71.3616433062 4.13644194006 0.0 0.0 0.0 0.0
31 1 2.30124330622 9.91687194006 0.0 0.0 0.0 0.0
32 1 7.55832330622 9.55549194006 0.0 0.0 0.0 0.0
33 1 12.3697433062 10.3721719401 0.0 0.0 0.0 0.0
34 1 17.7081433062 11.9716719401 0.0 0.0 0.0 0.0
35 1 22.9401433062 11.8762719401 0.0 0.0 0.0 0.0
36 1 27.8262433062 10.8323719401 0.0 0.0 0.0 0.0
37 1 32.8028433062 12.8239719401 0.0 0.0 0.0 0.0
38 1 38.4687433062 10.8612719401 0.0 0.0 0.0 0.0
39 1 43.9429433062 10.5924719401 0.0 0.0 0.0 0.0
40 1 48.9119433062 10.2938719401 0.0 0.0 0.0 0.0
41 1 53.6606433062 12.8930719401 0.0 0.0 0.0 0.0
42 1 58.9317433062 10.6355719401 0.0 0.0 0.0 0.0
43 1 64.4212433062 11.8354719401 0.0 0.0 0.0 0.0
44 1 69.6547433062 9.54255194006 0.0 0.0 0.0 0.0
45 1 75.1540433062 9.34771194006 0.0 0.0 0.0 0.0
46 1 77.6619433062 14.3865719401 0.0 0.0 0.0 0.0
47 1 5.09360330622 14.1712719401 0.0 0.0 0.0 0.0
48 1 9.14889330622 17.0969719401 0.0 0.0 0.0 0.0
49 1 14.3109433062 15.2172719401 0.0 0.0 0.0 0.0
50 1 19.8429433062 16.3670719401 0.0 0.0 0.0 0.0
51 1 26.0348433062 16.0756719401 0.0 0.0 0.0 0.0
52 1 31.4725433062 15.5359719401 0.0 0.0 0.0 0.0
53 1 36.5364433062 15.1065719401 0.0 0.0 0.0 0.0
54 1 41.9299433062 14.9458719401 0.0 0.0 0.0 0.0
55 1 46.7777433062 15.1863719401 0.0 0.0 0.0 0.0
56 1 52.2677433062 15.5883719401 0.0 0.0 0.0 0.0
57 1 57.3454433062 15.6438719401 0.0 0.0 0.0 0.0
58 1 63.0820433062 14.5312719401 0.0 0.0 0.0 0.0
59 1 69.5639433062 13.7798719401 0.0 0.0 0.0 0.0
60 1 72.5762433062 13.6782719401 0.0 0.0 0.0 0.0
61 1 2.81579330622 18.8752719401 0.0 0.0 0.0 0.0
62 1 8.16566330622 19.9370719401 0.0 0.0 0.0 0.0
63 1 13.1833433062 20.0902719401 0.0 0.0 0.0 0.0
64 1 18.9958433062 20.7158719401 0.0 0.0 0.0 0.0
65 1 21.4294433062 18.9166719401 0.0 0.0 0.0 0.0
66 1 28.7481433062 20.1035719401 0.0 0.0 0.0 0.0
67 1 35.6664433062 19.4661719401 0.0 0.0 0.0 0.0
68 1 38.6574433062 19.2476719401 0.0 0.0 0.0 0.0
69 1 43.5394433062 19.8287719401 0.0 0.0 0.0 0.0
70 1 48.6341433062 19.6123719401 0.0 0.0 0.0 0.0
71 1 53.8777433062 20.1728719401 0.0 0.0 0.0 0.0
72 1 61.6429433062 18.5936719401 0.0 0.0 0.0 0.0
73 1 64.5750433062 19.2297719401 0.0 0.0 0.0 0.0
74 1 69.6335433062 19.3121719401 0.0 0.0 0.0 0.0
75 1 74.9132433062 18.6495719401 0.0 0.0 0.0 0.0
76 1 77.6887433062 22.8697719401 0.0 0.0 0.0 0.0
77 1 5.32931330622 23.7316719401 0.0 0.0 0.0 0.0
78 1 10.5564433062 24.7052719401 0.0 0.0 0.0 0.0
79 1 15.8153433062 25.4216719401 0.0 0.0 0.0 0.0
80 1 20.3930433062 25.6922719401 0.0 0.0 0.0 0.0
81 1 25.7129433062 24.3394719401 0.0 0.0 0.0 0.0
82 1 30.9138433062 25.0200719401 0.0 0.0 0.0 0.0
83 1 36.0286433062 24.2638719401 0.0 0.0 0.0 0.0
84 1 40.5314433062 26.2811719401 0.0 0.0 0.0 0.0
85 1 45.9899433062 24.3831719401 0.0 0.0 0.0 0.0
86 1 51.0561433062 24.3573719401 0.0 0.0 0.0 0.0
87 1 55.0654433062 22.9415719401 0.0 0.0 0.0 0.0
88 1 62.3218433062 23.6668719401 0.0 0.0 0.0 0.0
89 1 67.1608433062 23.8969719401 0.0 0.0 0.0 0.0
90 1 72.1502433062 23.4239719401 0.0 0.0 0.0 0.0
91 1 1.26183330622 27.3478719401 0.0 0.0 0.0 0.0
92 1 7.75907330622 28.6674719401 0.0 0.0 0.0 0.0
93 1 12.6726433062 29.5246719401 0.0 0.0 0.0 0.0
94 1 17.8090433062 30.4604719401 0.0 0.0 0.0 0.0
95 1 23.3361433062 29.2599719401 0.0 0.0 0.0 0.0
96 1 28.4757433062 29.1759719401 0.0 0.0 0.0 0.0
97 1 33.5615433062 29.1985719401 0.0 0.0 0.0 0.0
98 1 38.9233433062 28.8391719401 0.0 0.0 0.0 0.0
99 1 44.1420433062 29.1268719401 0.0 0.0 0.0 0.0
100 1 49.2032433062 28.9609719401 0.0 0.0 0.0 0.0
101 1 54.5934433062 28.5846719401 0.0 0.0 0.0 0.0
102 1 60.4262433062 28.3393719401 0.0 0.0 0.0 0.0
103 1 63.4702433062 28.3153719401 0.0 0.0 0.0 0.0
104 1 68.7212433062 28.1733719401 0.0 0.0 0.0 0.0
105 1 76.0021433062 27.1164719401 0.0 0.0 0.0 0.0
106 1 75.7252433062 32.0946719401 0.0 0.0 0.0 0.0
107 1 2.34860330622 30.1461719401 0.0 0.0 0.0 0.0
108 1 8.90092330622 33.6310719401 0.0 0.0 0.0 0.0
109 1 15.1528433062 34.4904719401 0.0 0.0 0.0 0.0
110 1 20.8488433062 33.8839719401 0.0 0.0 0.0 0.0
111 1 26.2370433062 33.7942719401 0.0 0.0 0.0 0.0
112 1 30.9668433062 33.8530719401 0.0 0.0 0.0 0.0
113 1 35.8188433062 33.3794719401 0.0 0.0 0.0 0.0
114 1 41.1079433062 33.4282719401 0.0 0.0 0.0 0.0
115 1 46.2075433062 33.6581719401 0.0 0.0 0.0 0.0
116 1 51.3253433062 33.1292719401 0.0 0.0 0.0 0.0
117 1 56.6229433062 34.3827719401 0.0 0.0 0.0 0.0
118 1 61.0779433062 33.8747719401 0.0 0.0 0.0 0.0
119 1 66.0650433062 32.8020719401 0.0 0.0 0.0 0.0
120 1 71.1939433062 32.8308719401 0.0 0.0 0.0 0.0
121 1 1.47161330622 35.7531719401 0.0 0.0 0.0 0.0
122 1 6.28938330622 38.3551719401 0.0 0.0 0.0 0.0
123 1 11.1216433062 38.5324719401 0.0 0.0 0.0 0.0
124 1 18.1928433062 38.0894719401 0.0 0.0 0.0 0.0
125 1 23.5544433062 38.1547719401 0.0 0.0 0.0 0.0
126 1 28.4751433062 38.7361719401 0.0 0.0 0.0 0.0
127 1 33.5383433062 38.4208719401 0.0 0.0 0.0 0.0
128 1 38.8452433062 37.7853719401 0.0 0.0 0.0 0.0
129 1 43.3481433062 40.2125719401 0.0 0.0 0.0 0.0
130 1 48.5145433062 37.9635719401 0.0 0.0 0.0 0.0
131 1 53.5296433062 37.9793719401 0.0 0.0 0.0 0.0
132 1 58.8589433062 39.0573719401 0.0 0.0 0.0 0.0
133 1 64.5337433062 37.8804719401 0.0 0.0 0.0 0.0
134 1 69.6875433062 37.1883719401 0.0 0.0 0.0 0.0
135 1 74.7657433062 37.1944719401 0.0 0.0 0.0 0.0
136 1 0.37417330622 41.2631719401 0.0 0.0 0.0 0.0
137 1 5.51587330622 41.2810719401 0.0 0.0 0.0 0.0
138 1 10.5714433062 41.5009719401 0.0 0.0 0.0 0.0
139 1 15.4245433062 42.6098719401 0.0 0.0 0.0 0.0
140 1 20.8630433062 42.4359719401 0.0 0.0 0.0 0.0
141 1 24.1659433062 45.4678719401 0.0 0.0 0.0 0.0
142 1 31.2499433062 43.2706719401 0.0 0.0 0.0 0.0
143 1 36.6104433062 42.5034719401 0.0 0.0 0.0 0.0
144 1 41.9290433062 42.8579719401 0.0 0.0 0.0 0.0
145 1 46.8118433062 43.0263719401 0.0 0.0 0.0 0.0
146 1 51.4697433062 42.5866719401 0.0 0.0 0.0 0.0
147 1 56.5770433062 42.6753719401 0.0 0.0 0.0 0.0
148 1 60.7139433062 41.4001719401 0.0 0.0 0.0 0.0
149 1 67.6433433062 41.9884719401 0.0 0.0 0.0 0.0
150 1 72.8058433062 41.7410719401 0.0 0.0 0.0 0.0
151 1 2.98400330622 45.9039719401 0.0 0.0 0.0 0.0
152 1 8.14903330622 46.0387719401 0.0 0.0 0.0 0.0
153 1 13.0565433062 48.7085719401 0.0 0.0 0.0 0.0
154 1 18.4548433062 46.8289719401 0.0 0.0 0.0 0.0
155 1 22.9273433062 49.4717719401 0.0 0.0 0.0 0.0
156 1 26.9223433062 46.6873719401 0.0 0.0 0.0 0.0
157 1 34.1139433062 47.1945719401 0.0 0.0 0.0 0.0
158 1 39.1892433062 47.0782719401 0.0 0.0 0.0 0.0
159 1 44.4215433062 47.6673719401 0.0 0.0 0.0 0.0
160 1 49.7950433062 47.6377719401 0.0 0.0 0.0 0.0
161 1 54.8724433062 47.0396719401 0.0 0.0 0.0 0.0
162 1 60.0817433062 46.8985719401 0.0 0.0 0.0 0.0
163 1 64.7658433062 46.4532719401 0.0 0.0 0.0 0.0
164 1 69.9255433062 46.3616719401 0.0 0.0 0.0 0.0
165 1 75.4193433062 45.9194719401 0.0 0.0 0.0 0.0
166 1 77.4033433062 50.3219719401 0.0 0.0 0.0 0.0
167 1 4.94113330622 50.5505719401 0.0 0.0 0.0 0.0
168 1 11.8052433062 51.4613719401 0.0 0.0 0.0 0.0
169 1 16.5923433062 51.7012719401 0.0 0.0 0.0 0.0
170 1 21.8802433062 52.2634719401 0.0 0.0 0.0 0.0
171 1 26.6017433062 52.4300719401 0.0 0.0 0.0 0.0
172 1 31.3930433062 51.5883719401 0.0 0.0 0.0 0.0
173 1 36.5233433062 51.7426719401 0.0 0.0 0.0 0.0
174 1 41.5613433062 51.8078719401 0.0 0.0 0.0 0.0
175 1 46.9622433062 51.9860719401 0.0 0.0 0.0 0.0
176 1 54.4174433062 51.2387719401 0.0 0.0 0.0 0.0
177 1 57.4195433062 51.4522719401 0.0 0.0 0.0 0.0
178 1 62.3782433062 51.5750719401 0.0 0.0 0.0 0.0
179 1 67.0091433062 50.9593719401 0.0 0.0 0.0 0.0
180 1 72.3489433062 50.3208719401 0.0 0.0 0.0 0.0
181 1 1.95375330622 54.8781719401 0.0 0.0 0.0 0.0
182 1 6.37896330622 53.2064719401 0.0 0.0 0.0 0.0
183 1 13.1517433062 56.2336719401 0.0 0.0 0.0 0.0
184 1 20.2910433062 56.0962719401 0.0 0.0 0.0 0.0
185 1 23.1570433062 57.0040719401 0.0 0.0 0.0 0.0
186 1 28.9227433062 56.7561719401 0.0 0.0 0.0 0.0
187 1 34.1811433062 56.2468719401 0.0 0.0 0.0 0.0
188 1 38.9245433062 56.4140719401 0.0 0.0 0.0 0.0
189 1 43.7037433062 56.1707719401 0.0 0.0 0.0 0.0
190 1 49.2655433062 56.3112719401 0.0 0.0 0.0 0.0
191 1 54.2374433062 56.1409719401 0.0 0.0 0.0 0.0
192 1 59.7604433062 56.2636719401 0.0 0.0 0.0 0.0
193 1 65.4306433062 56.1692719401 0.0 0.0 0.0 0.0
194 1 70.3682433062 54.9147719401 0.0 0.0 0.0 0.0
195 1 74.4765433062 57.3383719401 0.0 0.0 0.0 0.0
196 1 0.12461330622 59.8760719401 0.0 0.0 0.0 0.0
197 1 4.88942330622 58.8324719401 0.0 0.0 0.0 0.0
198 1 9.45274330622 59.1072719401 0.0 0.0 0.0 0.0
199 1 13.4589433062 59.2201719401 0.0 0.0 0.0 0.0
200 1 20.3191433062 61.4317719401 0.0 0.0 0.0 0.0
201 1 24.4135433062 59.7411719401 0.0 0.0 0.0 0.0
202 1 31.3054433062 60.8816719401 0.0 0.0 0.0 0.0
203 1 36.4657433062 61.1916719401 0.0 0.0 0.0 0.0
204 1 41.4703433062 61.1086719401 0.0 0.0 0.0 0.0
205 1 46.8134433062 60.2757719401 0.0 0.0 0.0 0.0
206 1 52.0407433062 60.8588719401 0.0 0.0 0.0 0.0
207 1 57.3739433062 60.3515719401 0.0 0.0 0.0 0.0
208 1 61.2230433062 58.9173719401 0.0 0.0 0.0 0.0
209 1 68.1482433062 60.1181719401 0.0 0.0 0.0 0.0
210 1 73.0394433062 59.9903719401 0.0 0.0 0.0 0.0
211 1 2.87009330622 64.0578719401 0.0 0.0 0.0 0.0
212 1 7.49337330622 63.8971719401 0.0 0.0 0.0 0.0
213 1 11.7082433062 67.0413719401 0.0 0.0 0.0 0.0
214 1 17.3705433062 65.6861719401 0.0 0.0 0.0 0.0
215 1 22.9768433062 65.4797719401 0.0 0.0 0.0 0.0
216 1 28.2867433062 65.1442719401 0.0 0.0 0.0 0.0
217 1 33.5401433062 65.5149719401 0.0 0.0 0.0 0.0
218 1 37.7198433062 63.9273719401 0.0 0.0 0.0 0.0
219 1 44.8433433062 64.8753719401 0.0 0.0 0.0 0.0
220 1 49.6707433062 66.8562719401 0.0 0.0 0.0 0.0
221 1 55.1679433062 64.8763719401 0.0 0.0 0.0 0.0
222 1 60.4761433062 64.7270719401 0.0 0.0 0.0 0.0
223 1 65.3514433062 64.7435719401 0.0 0.0 0.0 0.0
224 1 70.2039433062 64.7977719401 0.0 0.0 0.0 0.0
225 1 75.3948433062 64.7001719401 0.0 0.0 0.0 0.0
226 1 0.99364330622 68.7729719401 0.0 0.0 0.0 0.0
227 1 5.26468330622 71.4055719401 0.0 0.0 0.0 0.0
228 1 10.8707433062 69.9517719401 0.0 0.0 0.0 0.0
229 1 15.8714433062 69.8601719401 0.0 0.0 0.0 0.0
230 1 20.5978433062 71.8326719401 0.0 0.0 0.0 0.0
231 1 26.1030433062 69.7352719401 0.0 0.0 0.0 0.0
232 1 31.5412433062 69.7129719401 0.0 0.0 0.0 0.0
233 1 36.9847433062 69.5329719401 0.0 0.0 0.0 0.0
234 1 42.6699433062 69.5336719401 0.0 0.0 0.0 0.0
235 1 48.2174433062 69.4638719401 0.0 0.0 0.0 0.0
236 1 53.4807433062 69.3288719401 0.0 0.0 0.0 0.0
237 1 57.4418433062 71.7067719401 0.0 0.0 0.0 0.0
238 1 62.9084433062 69.6154719401 0.0 0.0 0.0 0.0
239 1 68.1437433062 69.6279719401 0.0 0.0 0.0 0.0
240 1 73.3634433062 69.2149719401 0.0 0.0 0.0 0.0
241 1 3.45866330622 73.8501719401 0.0 0.0 0.0 0.0
242 1 8.74346330622 74.5307719401 0.0 0.0 0.0 0.0
243 1 13.7892433062 74.5919719401 0.0 0.0 0.0 0.0
244 1 18.9968433062 74.3900719401 0.0 0.0 0.0 0.0
245 1 24.2415433062 74.3305719401 0.0 0.0 0.0 0.0
246 1 29.5360433062 73.9801719401 0.0 0.0 0.0 0.0
247 1 34.5975433062 73.9657719401 0.0 0.0 0.0 0.0
248 1 39.8321433062 73.5795719401 0.0 0.0 0.0 0.0
249 1 47.0106433062 73.3210719401 0.0 0.0 0.0 0.0
250 1 50.0115433062 73.7051719401 0.0 0.0 0.0 0.0
251 1 55.3560433062 73.9254719401 0.0 0.0 0.0 0.0
252 1 60.4749433062 74.4635719401 0.0 0.0 0.0 0.0
253 1 65.5957433062 74.2368719401 0.0 0.0 0.0 0.0
254 1 72.5841433062 73.4889719401 0.0 0.0 0.0 0.0
255 1 75.6335433062 73.3334719401 0.0 0.0 0.0 0.0
256 1 0.42762330622 2.08565194006 0.0 0.0 0.0 0.0
257 1 5.34865330622 2.25642194006 0.0 0.0 0.0 0.0
258 1 12.5942433062 4.59200194006 0.0 0.0 0.0 0.0
259 1 16.8661433062 4.12357194006 0.0 0.0 0.0 0.0
260 1 19.8732433062 4.26920194006 0.0 0.0 0.0 0.0
261 1 25.8768433062 3.01806194006 0.0 0.0 0.0 0.0
262 1 30.6844433062 3.41520194006 0.0 0.0 0.0 0.0
263 1 35.7095433062 3.89495194006 0.0 0.0 0.0 0.0
264 1 40.7768433062 3.21846194006 0.0 0.0 0.0 0.0
265 1 46.0051433062 2.72944194006 0.0 0.0 0.0 0.0
266 1 50.9569433062 2.57407194006 0.0 0.0 0.0 0.0
267 1 55.9444433062 3.04570194006 0.0 0.0 0.0 0.0
268 1 60.8695433062 2.90476194006 0.0 0.0 0.0 0.0
269 1 67.5678433062 4.31278194006 0.0 0.0 0.0 0.0
270 1 74.2849433062 3.56270194006 0.0 0.0 0.0 0.0
271 1 2.76102330622 6.95601194006 0.0 0.0 0.0 0.0
272 1 7.90592330622 6.56776194006 0.0 0.0 0.0 0.0
273 1 13.3412433062 7.51523194006 0.0 0.0 0.0 0.0
274 1 18.5376433062 9.09773194006 0.0 0.0 0.0 0.0
275 1 21.5434433062 9.20140194006 0.0 0.0 0.0 0.0
276 1 27.4649433062 7.83791194006 0.0 0.0 0.0 0.0
277 1 32.5542433062 8.07201194006 0.0 0.0 0.0 0.0
278 1 38.1969433062 7.86638194006 0.0 0.0 0.0 0.0
279 1 43.4222433062 7.61658194006 0.0 0.0 0.0 0.0
280 1 48.3149433062 7.34139194006 0.0 0.0 0.0 0.0
281 1 52.9594433062 7.59678194006 0.0 0.0 0.0 0.0
282 1 57.9774433062 7.78045194006 0.0 0.0 0.0 0.0
283 1 62.8945433062 7.25314194006 0.0 0.0 0.0 0.0
284 1 69.5767433062 6.53591194006 0.0 0.0 0.0 0.0
285 1 75.4535433062 6.34198194006 0.0 0.0 0.0 0.0
286 1 77.4024433062 11.3708719401 0.0 0.0 0.0 0.0
287 1 5.02029330622 11.1701719401 0.0 0.0 0.0 0.0
288 1 9.65924330622 11.6973719401 0.0 0.0 0.0 0.0
289 1 14.7135433062 12.2553719401 0.0 0.0 0.0 0.0
290 1 20.3522433062 13.4171719401 0.0 0.0 0.0 0.0
291 1 25.7354433062 13.0427719401 0.0 0.0 0.0 0.0
292 1 30.8416433062 10.5607719401 0.0 0.0 0.0 0.0
293 1 35.7685433062 12.2214719401 0.0 0.0 0.0 0.0
294 1 41.2769433062 12.0053719401 0.0 0.0 0.0 0.0
295 1 46.5373433062 12.1626719401 0.0 0.0 0.0 0.0
296 1 51.9249433062 10.4293719401 0.0 0.0 0.0 0.0
297 1 56.6906433062 12.7000719401 0.0 0.0 0.0 0.0
298 1 61.9371433062 10.1150719401 0.0 0.0 0.0 0.0
299 1 67.4584433062 11.6083719401 0.0 0.0 0.0 0.0
300 1 72.4559433062 10.6731719401 0.0 0.0 0.0 0.0
301 1 2.58739330622 15.8582719401 0.0 0.0 0.0 0.0
302 1 8.10075330622 14.2862719401 0.0 0.0 0.0 0.0
303 1 12.1378433062 17.2758719401 0.0 0.0 0.0 0.0
304 1 16.8674433062 16.7768719401 0.0 0.0 0.0 0.0
305 1 24.4481433062 18.6795719401 0.0 0.0 0.0 0.0
306 1 28.8788433062 17.0863719401 0.0 0.0 0.0 0.0
307 1 34.1367433062 16.9009719401 0.0 0.0 0.0 0.0
308 1 39.2709433062 16.3223719401 0.0 0.0 0.0 0.0
309 1 44.2527433062 16.8694719401 0.0 0.0 0.0 0.0
310 1 49.4140433062 16.6765719401 0.0 0.0 0.0 0.0
311 1 54.7788433062 17.2800719401 0.0 0.0 0.0 0.0
312 1 60.3705433062 15.8752719401 0.0 0.0 0.0 0.0
313 1 65.4585433062 16.3767719401 0.0 0.0 0.0 0.0
314 1 68.4529433062 16.5535719401 0.0 0.0 0.0 0.0
315 1 74.9017433062 15.6230719401 0.0 0.0 0.0 0.0
316 1 77.6884433062 19.8636719401 0.0 0.0 0.0 0.0
317 1 5.24617330622 20.7061719401 0.0 0.0 0.0 0.0
318 1 10.6310433062 21.6912719401 0.0 0.0 0.0 0.0
319 1 16.1659433062 19.6880719401 0.0 0.0 0.0 0.0
320 1 18.2296433062 23.6158719401 0.0 0.0 0.0 0.0
321 1 25.9774433062 21.3024719401 0.0 0.0 0.0 0.0
322 1 31.0687433062 22.0238719401 0.0 0.0 0.0 0.0
323 1 34.0708433062 21.9845719401 0.0 0.0 0.0 0.0
324 1 40.8608433062 21.2787719401 0.0 0.0 0.0 0.0
325 1 46.1471433062 21.3536719401 0.0 0.0 0.0 0.0
326 1 51.1008433062 21.3373719401 0.0 0.0 0.0 0.0
327 1 58.0460433062 23.0591719401 0.0 0.0 0.0 0.0
328 1 60.4712433062 21.3258719401 0.0 0.0 0.0 0.0
329 1 67.0737433062 20.8983719401 0.0 0.0 0.0 0.0
330 1 72.4400433062 20.4095719401 0.0 0.0 0.0 0.0
331 1 2.43831330622 24.5846719401 0.0 0.0 0.0 0.0
332 1 7.68731330622 25.6443719401 0.0 0.0 0.0 0.0
333 1 12.9894433062 26.5065719401 0.0 0.0 0.0 0.0
334 1 17.9917433062 27.4804719401 0.0 0.0 0.0 0.0
335 1 23.3516433062 26.2365719401 0.0 0.0 0.0 0.0
336 1 28.1309433062 26.1726719401 0.0 0.0 0.0 0.0
337 1 33.7004433062 26.1924719401 0.0 0.0 0.0 0.0
338 1 39.0163433062 23.6911719401 0.0 0.0 0.0 0.0
339 1 43.5554433062 26.1800719401 0.0 0.0 0.0 0.0
340 1 48.5411433062 26.0097719401 0.0 0.0 0.0 0.0
341 1 53.7688433062 25.6638719401 0.0 0.0 0.0 0.0
342 1 59.8900433062 25.4015719401 0.0 0.0 0.0 0.0
343 1 64.6481433062 25.5375719401 0.0 0.0 0.0 0.0
344 1 69.7891433062 25.3336719401 0.0 0.0 0.0 0.0
345 1 75.0331433062 24.2856719401 0.0 0.0 0.0 0.0
346 1 74.2064433062 29.5080719401 0.0 0.0 0.0 0.0
347 1 5.32469330622 30.4217719401 0.0 0.0 0.0 0.0
348 1 9.92404330622 30.7789719401 0.0 0.0 0.0 0.0
349 1 14.9721433062 31.4869719401 0.0 0.0 0.0 0.0
350 1 20.7906433062 30.8909719401 0.0 0.0 0.0 0.0
351 1 25.9382433062 30.7930719401 0.0 0.0 0.0 0.0
352 1 31.0120433062 30.8229719401 0.0 0.0 0.0 0.0
353 1 36.3209433062 30.3977719401 0.0 0.0 0.0 0.0
354 1 41.4485433062 30.4592719401 0.0 0.0 0.0 0.0
355 1 46.7168433062 30.6823719401 0.0 0.0 0.0 0.0
356 1 51.9826433062 30.1680719401 0.0 0.0 0.0 0.0
357 1 58.6124433062 32.1501719401 0.0 0.0 0.0 0.0
358 1 57.5585433062 29.3406719401 0.0 0.0 0.0 0.0
359 1 66.1246433062 29.7711719401 0.0 0.0 0.0 0.0
360 1 71.2263433062 29.8348719401 0.0 0.0 0.0 0.0
361 1 0.90726330622 32.7894719401 0.0 0.0 0.0 0.0
362 1 5.91611330622 33.3606719401 0.0 0.0 0.0 0.0
363 1 13.8119433062 37.1960719401 0.0 0.0 0.0 0.0
364 1 18.0968433062 35.0980719401 0.0 0.0 0.0 0.0
365 1 23.5649433062 35.1606719401 0.0 0.0 0.0 0.0
366 1 28.5780433062 35.7004719401 0.0 0.0 0.0 0.0
367 1 33.5570433062 35.3876719401 0.0 0.0 0.0 0.0
368 1 38.4478433062 34.8161719401 0.0 0.0 0.0 0.0
369 1 43.5686433062 35.1370719401 0.0 0.0 0.0 0.0
370 1 48.9143433062 34.9672719401 0.0 0.0 0.0 0.0
371 1 53.6879433062 34.9829719401 0.0 0.0 0.0 0.0
372 1 59.0733433062 36.0907719401 0.0 0.0 0.0 0.0
373 1 63.9051433062 34.9114719401 0.0 0.0 0.0 0.0
374 1 68.6338433062 34.3709719401 0.0 0.0 0.0 0.0
375 1 73.7763433062 34.3602719401 0.0 0.0 0.0 0.0
376 1 77.5686433062 38.2858719401 0.0 0.0 0.0 0.0
377 1 4.45423330622 35.9857719401 0.0 0.0 0.0 0.0
378 1 8.78739330622 36.6521719401 0.0 0.0 0.0 0.0
379 1 15.6115433062 39.6042719401 0.0 0.0 0.0 0.0
380 1 20.8501433062 39.4477719401 0.0 0.0 0.0 0.0
381 1 25.7947433062 40.1468719401 0.0 0.0 0.0 0.0
382 1 31.1012433062 40.2381719401 0.0 0.0 0.0 0.0
383 1 36.3623433062 39.5039719401 0.0 0.0 0.0 0.0
384 1 41.8583433062 37.6225719401 0.0 0.0 0.0 0.0
385 1 46.3473433062 40.0579719401 0.0 0.0 0.0 0.0
386 1 51.0207433062 39.6166719401 0.0 0.0 0.0 0.0
387 1 55.9543433062 39.7463719401 0.0 0.0 0.0 0.0
388 1 63.6256433062 40.7613719401 0.0 0.0 0.0 0.0
389 1 67.3144433062 39.0035719401 0.0 0.0 0.0 0.0
390 1 72.2341433062 38.7912719401 0.0 0.0 0.0 0.0
391 1 2.94034330622 42.8656719401 0.0 0.0 0.0 0.0
392 1 7.97002330622 43.0228719401 0.0 0.0 0.0 0.0
393 1 12.6150433062 43.7074719401 0.0 0.0 0.0 0.0
394 1 18.1811433062 43.8377719401 0.0 0.0 0.0 0.0
395 1 23.8853433062 42.4921719401 0.0 0.0 0.0 0.0
396 1 29.8448433062 45.9611719401 0.0 0.0 0.0 0.0
397 1 34.1152433062 44.1859719401 0.0 0.0 0.0 0.0
398 1 39.1796433062 44.0676719401 0.0 0.0 0.0 0.0
399 1 44.3086433062 44.6747719401 0.0 0.0 0.0 0.0
400 1 49.3184433062 44.6677719401 0.0 0.0 0.0 0.0
401 1 54.0060433062 44.1782719401 0.0 0.0 0.0 0.0
402 1 59.2643433062 44.0108719401 0.0 0.0 0.0 0.0
403 1 65.0204433062 43.4385719401 0.0 0.0 0.0 0.0
404 1 70.2916433062 43.3834719401 0.0 0.0 0.0 0.0
405 1 75.5784433062 42.9126719401 0.0 0.0 0.0 0.0
406 1 0.32797330622 47.3724719401 0.0 0.0 0.0 0.0
407 1 5.52320330622 47.5692719401 0.0 0.0 0.0 0.0
408 1 11.1630433062 46.3556719401 0.0 0.0 0.0 0.0
409 1 16.0901433062 48.7303719401 0.0 0.0 0.0 0.0
410 1 21.4801433062 46.8620719401 0.0 0.0 0.0 0.0
411 1 25.9264433062 49.5118719401 0.0 0.0 0.0 0.0
412 1 31.4268433062 48.5469719401 0.0 0.0 0.0 0.0
413 1 36.6852433062 48.7406719401 0.0 0.0 0.0 0.0
414 1 41.6459433062 48.8093719401 0.0 0.0 0.0 0.0
415 1 47.1146433062 48.9940719401 0.0 0.0 0.0 0.0
416 1 52.5328433062 48.8963719401 0.0 0.0 0.0 0.0
417 1 57.5258433062 48.4529719401 0.0 0.0 0.0 0.0
418 1 62.5918433062 48.5497719401 0.0 0.0 0.0 0.0
419 1 67.3655433062 47.9614719401 0.0 0.0 0.0 0.0
420 1 72.7622433062 47.3512719401 0.0 0.0 0.0 0.0
421 1 2.23479330622 51.8798719401 0.0 0.0 0.0 0.0
422 1 9.38374330622 53.2635719401 0.0 0.0 0.0 0.0
423 1 14.1111433062 53.3898719401 0.0 0.0 0.0 0.0
424 1 19.0997433062 53.3479719401 0.0 0.0 0.0 0.0
425 1 24.1788433062 54.1911719401 0.0 0.0 0.0 0.0
426 1 29.2826433062 53.7536719401 0.0 0.0 0.0 0.0
427 1 33.9188433062 53.2388719401 0.0 0.0 0.0 0.0
428 1 39.0207433062 53.4098719401 0.0 0.0 0.0 0.0
429 1 44.2123433062 53.2124719401 0.0 0.0 0.0 0.0
430 1 49.6373433062 53.3496719401 0.0 0.0 0.0 0.0
431 1 52.6243433062 53.6132719401 0.0 0.0 0.0 0.0
432 1 59.8565433062 53.2388719401 0.0 0.0 0.0 0.0
433 1 64.9411433062 53.1672719401 0.0 0.0 0.0 0.0
434 1 69.8309433062 51.9652719401 0.0 0.0 0.0 0.0
435 1 74.8605433062 51.9558719401 0.0 0.0 0.0 0.0
436 1 77.4542433062 56.9096719401 0.0 0.0 0.0 0.0
437 1 4.81573330622 55.8053719401 0.0 0.0 0.0 0.0
438 1 10.1570433062 56.1733719401 0.0 0.0 0.0 0.0
439 1 16.3055433062 60.0652719401 0.0 0.0 0.0 0.0
440 1 18.9787433062 58.7633719401 0.0 0.0 0.0 0.0
441 1 27.3854433062 59.3632719401 0.0 0.0 0.0 0.0
442 1 31.6846433062 57.9072719401 0.0 0.0 0.0 0.0
443 1 36.4967433062 58.1730719401 0.0 0.0 0.0 0.0
444 1 41.3989433062 58.1007719401 0.0 0.0 0.0 0.0
445 1 46.4598433062 57.3205719401 0.0 0.0 0.0 0.0
446 1 51.8115433062 57.8843719401 0.0 0.0 0.0 0.0
447 1 56.9760433062 57.3718719401 0.0 0.0 0.0 0.0
448 1 64.2207433062 58.9553719401 0.0 0.0 0.0 0.0
449 1 68.2905433062 57.1006719401 0.0 0.0 0.0 0.0
450 1 73.3559433062 54.5680719401 0.0 0.0 0.0 0.0
451 1 2.86609330622 61.0504719401 0.0 0.0 0.0 0.0
452 1 7.06119330622 60.9041719401 0.0 0.0 0.0 0.0
453 1 11.4021433062 61.3973719401 0.0 0.0 0.0 0.0
454 1 17.6291433062 62.7256719401 0.0 0.0 0.0 0.0
455 1 23.1251433062 62.4642719401 0.0 0.0 0.0 0.0
456 1 28.5836433062 62.1327719401 0.0 0.0 0.0 0.0
457 1 33.7907433062 62.5298719401 0.0 0.0 0.0 0.0
458 1 40.6997433062 64.0211719401 0.0 0.0 0.0 0.0
459 1 44.3329433062 61.9307719401 0.0 0.0 0.0 0.0
460 1 49.2716433062 61.9590719401 0.0 0.0 0.0 0.0
461 1 54.8302433062 61.9152719401 0.0 0.0 0.0 0.0
462 1 60.0552433062 61.7107719401 0.0 0.0 0.0 0.0
463 1 65.5686433062 61.6811719401 0.0 0.0 0.0 0.0
464 1 70.6283433062 61.8018719401 0.0 0.0 0.0 0.0
465 1 75.4870433062 61.7082719401 0.0 0.0 0.0 0.0
466 1 0.44059330622 65.8238719401 0.0 0.0 0.0 0.0
467 1 5.23858330622 65.9027719401 0.0 0.0 0.0 0.0
468 1 10.4810433062 64.2780719401 0.0 0.0 0.0 0.0
469 1 14.7178433062 67.0958719401 0.0 0.0 0.0 0.0
470 1 20.2016433062 66.7200719401 0.0 0.0 0.0 0.0
471 1 25.7233433062 66.7413719401 0.0 0.0 0.0 0.0
472 1 30.8254433062 66.7864719401 0.0 0.0 0.0 0.0
473 1 36.3333433062 66.5956719401 0.0 0.0 0.0 0.0
474 1 42.3647433062 66.5354719401 0.0 0.0 0.0 0.0
475 1 47.8033433062 64.5535719401 0.0 0.0 0.0 0.0
476 1 52.6314433062 66.4664719401 0.0 0.0 0.0 0.0
477 1 57.8485433062 66.2219719401 0.0 0.0 0.0 0.0
478 1 62.9049433062 66.5509719401 0.0 0.0 0.0 0.0
479 1 67.7681433062 66.5932719401 0.0 0.0 0.0 0.0
480 1 72.8324433062 66.2594719401 0.0 0.0 0.0 0.0
481 1 4.01162330622 68.6681719401 0.0 0.0 0.0 0.0
482 1 8.29634330622 71.5519719401 0.0 0.0 0.0 0.0
483 1 13.4132433062 71.5985719401 0.0 0.0 0.0 0.0
484 1 18.8540433062 69.4098719401 0.0 0.0 0.0 0.0
485 1 23.5888433062 71.4101719401 0.0 0.0 0.0 0.0
486 1 28.8381433062 71.0490719401 0.0 0.0 0.0 0.0
487 1 34.3115433062 70.9589719401 0.0 0.0 0.0 0.0
488 1 39.8288433062 70.5750719401 0.0 0.0 0.0 0.0
489 1 45.4781433062 70.7120719401 0.0 0.0 0.0 0.0
490 1 50.8865433062 70.8498719401 0.0 0.0 0.0 0.0
491 1 56.4532433062 68.8896719401 0.0 0.0 0.0 0.0
492 1 60.4685433062 71.4564719401 0.0 0.0 0.0 0.0
493 1 65.5269433062 71.1873719401 0.0 0.0 0.0 0.0
494 1 70.9015433062 70.9552719401 0.0 0.0 0.0 0.0
495 1 76.1551433062 70.3667719401 0.0 0.0 0.0 0.0
496 1 0.55486330622 74.8314719401 0.0 0.0 0.0 0.0
497 1 5.92434330622 75.5979719401 0.0 0.0 0.0 0.0
498 1 11.2534433062 76.2183719401 0.0 0.0 0.0 0.0
499 1 16.4466433062 76.0240719401 0.0 0.0 0.0 0.0
500 1 21.6316433062 75.8098719401 0.0 0.0 0.0 0.0
501 1 26.9795433062 75.5452719401 0.0 0.0 0.0 0.0
502 1 32.0738433062 75.6094719401 0.0 0.0 0.0 0.0
503 1 37.3263433062 75.2478719401 0.0 0.0 0.0 0.0
504 1 42.2194433062 75.4035719401 0.0 0.0 0.0 0.0
505 1 45.2031433062 75.7071719401 0.0 0.0 0.0 0.0
506 1 52.5987433062 75.2569719401 0.0 0.0 0.0 0.0
507 1 57.7391433062 75.7512719401 0.0 0.0 0.0 0.0
508 1 63.0885433062 75.9455719401 0.0 0.0 0.0 0.0
509 1 67.9124433062 76.1926719401 0.0 0.0 0.0 0.0
510 1 70.9388433062 76.0258719401 0.0 0.0 0.0 0.0
511 1 5.83531330622 78.5988719401 0.0 0.0 0.0 0.0
512 1 11.3669433062 79.2400719401 0.0 0.0 0.0 0.0
513 1 16.2956433062 79.0533719401 0.0 0.0 0.0 0.0
514 1 21.4758433062 78.7866719401 0.0 0.0 0.0 0.0
515 1 26.8949433062 78.5350719401 0.0 0.0 0.0 0.0
516 1 31.8994433062 78.6231719401 0.0 0.0 0.0 0.0
517 1 38.2773433062 78.1041719401 0.0 0.0 0.0 0.0
518 1 41.2718433062 78.2474719401 0.0 0.0 0.0 0.0
519 1 46.1255433062 78.5665719401 0.0 0.0 0.0 0.0
520 1 51.6145433062 78.1262719401 0.0 0.0 0.0 0.0
521 1 56.8578433062 78.6193719401 0.0 0.0 0.0 0.0
522 1 62.2261433062 78.8469719401 0.0 0.0 0.0 0.0
523 1 67.2190433062 79.1355719401 0.0 0.0 0.0 0.0
524 1 72.2646433062 78.7429719401 0.0 0.0 0.0 0.0
525 1 0.10764430622 77.8328719401 0.0 0.0 0.0 0.0
526 1 2.85291330622 79.1294719401 0.0 0.0 0.0 0.0
527 1 8.47099330622 80.1086719401 0.0 0.0 0.0 0.0
528 1 13.9059433062 80.9110719401 0.0 0.0 0.0 0.0
529 1 18.9730433062 80.4366719401 0.0 0.0 0.0 0.0
530 1 24.2437433062 79.9227719401 0.0 0.0 0.0 0.0
531 1 29.3570433062 80.2342719401 0.0 0.0 0.0 0.0
532 1 33.9998433062 80.7692719401 0.0 0.0 0.0 0.0
533 1 36.9959433062 80.8152719401 0.0 0.0 0.0 0.0
534 1 43.5762433062 80.1728719401 0.0 0.0 0.0 0.0
535 1 48.9567433062 79.6045719401 0.0 0.0 0.0 0.0
536 1 54.0939433062 79.8377719401 0.0 0.0 0.0 0.0
537 1 59.4670433062 80.1070719401 0.0 0.0 0.0 0.0
538 1 64.6163433062 80.6808719401 0.0 0.0 0.0 0.0
539 1 69.8618433062 80.5849719401 0.0 0.0 0.0 0.0
540 1 75.2266433062 79.4173719401 0.0 0.0 0.0 0.0
541 2 2.86186330622 80.6380719401 0.0 0.0 0.0 0.0
542 2 4.17436330622 1.32958194006 0.0 0.0 0.0 0.0
543 2 1.68353330622 1.27973194006 0.0 0.0 0.0 0.0
544 2 6.77309330622 1.80677194006 0.0 0.0 0.0 0.0
545 2 9.02378330622 2.73696194006 0.0 0.0 0.0 0.0
546 2 8.41172330622 81.6187719401 0.0 0.0 0.0 0.0
547 2 14.1843433062 0.759311940061 0.0 0.0 0.0 0.0
548 2 15.7803433062 3.07114194006 0.0 0.0 0.0 0.0
549 2 13.4901433062 3.38151194006 0.0 0.0 0.0 0.0
550 2 20.2039433062 2.80463194006 0.0 0.0 0.0 0.0
551 2 19.6292433062 0.146238940061 0.0 0.0 0.0 0.0
552 2 22.0353433062 1.26802194006 0.0 0.0 0.0 0.0
553 2 23.9844433062 81.3936719401 0.0 0.0 0.0 0.0
554 2 24.6573433062 2.14106194006 0.0 0.0 0.0 0.0
555 2 28.9110433062 0.0185959400611 0.0 0.0 0.0 0.0
556 2 29.5602433062 2.43377194006 0.0 0.0 0.0 0.0
557 2 27.1448433062 2.21417194006 0.0 0.0 0.0 0.0
558 2 33.5943433062 0.567096940061 0.0 0.0 0.0 0.0
559 2 34.5087433062 2.99303194006 0.0 0.0 0.0 0.0
560 2 32.0192433062 2.73594194006 0.0 0.0 0.0 0.0
561 2 37.5963433062 0.542703940061 0.0 0.0 0.0 0.0
562 2 36.9244433062 3.00587194006 0.0 0.0 0.0 0.0
563 2 39.4269433062 2.54862194006 0.0 0.0 0.0 0.0
564 2 43.3738433062 0.00686994006109 0.0 0.0 0.0 0.0
565 2 44.6267433062 2.12471194006 0.0 0.0 0.0 0.0
566 2 42.0128433062 2.35515194006 0.0 0.0 0.0 0.0
567 2 48.7101433062 81.1016719401 0.0 0.0 0.0 0.0
568 2 49.7011433062 1.75609194006 0.0 0.0 0.0 0.0
569 2 47.2028433062 1.80859194006 0.0 0.0 0.0 0.0
570 2 53.8604433062 81.3276719401 0.0 0.0 0.0 0.0
571 2 54.7598433062 2.11923194006 0.0 0.0 0.0 0.0
572 2 52.2719433062 1.84719194006 0.0 0.0 0.0 0.0
573 2 58.9175433062 81.5129719401 0.0 0.0 0.0 0.0
574 2 59.6282433062 2.08722194006 0.0 0.0 0.0 0.0
575 2 57.1596433062 2.14780194006 0.0 0.0 0.0 0.0
576 2 64.2403433062 0.499069940061 0.0 0.0 0.0 0.0
577 2 62.2371433062 2.30024194006 0.0 0.0 0.0 0.0
578 2 64.2027433062 3.32843194006 0.0 0.0 0.0 0.0
579 2 69.6283433062 0.429232940061 0.0 0.0 0.0 0.0
580 2 70.4666433062 2.93221194006 0.0 0.0 0.0 0.0
581 2 68.2844433062 2.97969194006 0.0 0.0 0.0 0.0
582 2 75.3085433062 80.9381719401 0.0 0.0 0.0 0.0
583 2 76.8528433062 1.36198194006 0.0 0.0 0.0 0.0
584 2 74.7648433062 2.13435194006 0.0 0.0 0.0 0.0
585 2 0.45581330622 3.58685194006 0.0 0.0 0.0 0.0
586 2 76.8544433062 5.79882194006 0.0 0.0 0.0 0.0
587 2 1.60187330622 6.01071194006 0.0 0.0 0.0 0.0
588 2 5.21571330622 3.75307194006 0.0 0.0 0.0 0.0
589 2 6.54199330622 5.94171194006 0.0 0.0 0.0 0.0
590 2 4.01443330622 6.13797194006 0.0 0.0 0.0 0.0
591 2 11.1195433062 4.31417194006 0.0 0.0 0.0 0.0
592 2 8.85013330622 5.39851194006 0.0 0.0 0.0 0.0
593 2 16.5480433062 5.59683194006 0.0 0.0 0.0 0.0
594 2 17.4540433062 8.05468194006 0.0 0.0 0.0 0.0
595 2 14.8453433062 7.40113194006 0.0 0.0 0.0 0.0
596 2 21.9069433062 7.74461194006 0.0 0.0 0.0 0.0
597 2 20.9972433062 5.28053194006 0.0 0.0 0.0 0.0
598 2 23.6450433062 6.07545194006 0.0 0.0 0.0 0.0