ITEM: TIMESTEP
0
ITEM: NUMBER OF ATOMS
1350
ITEM: BOX BOUNDS xy xz yz pp pp pp
0.0 77.5375063268 0
0.0 81.7986784875 0
-10.0 10.0 0
ITEM: ATOMS id type x y z vx vy vz
1 1 3.35973094025 0.526817243767 0.0 0.0 0.0 0.0
2 1 6.72389094025 3.04486924377 0.0 0.0 0.0 0.0
3 1 12.0841909403 1.17255924377 0.0 0.0 0.0 0.0
4 1 17.0106909403 1.19256924377 0.0 0.0 0.0 0.0
5 1 22.0358909403 2.01709924377 0.0 0.0 0.0 0.0
6 1 27.7348909403 1.81423924377 0.0 0.0 0.0 0.0
7 1 33.5660909403 2.30254924377 0.0 0.0 0.0 0.0
8 1 38.8453909403 2.28502924377 0.0 0.0 0.0 0.0
9 1 43.9708909403 2.35412924377 0.0 0.0 0.0 0.0
10 1 51.7027909403 1.74092924377 0.0 0.0 0.0 0.0
11 1 56.6057909403 0.171400243767 0.0 0.0 0.0 0.0
12 1 59.6084909403 81.7060392438 0.0 0.0 0.0 0.0
13 1 65.2925909403 1.00643924377 0.0 0.0 0.0 0.0
14 1 70.5067909403 2.21927924377 0.0 0.0 0.0 0.0
15 1 75.8249909403 2.25959924377 0.0 0.0 0.0 0.0
16 1 2.10189094025 5.70127924377 0.0 0.0 0.0 0.0
17 1 5.12028094025 5.59090924377 0.0 0.0 0.0 0.0
18 1 10.0969909403 5.97469924377 0.0 0.0 0.0 0.0
19 1 14.1299909403 8.31974924377 0.0 0.0 0.0 0.0
20 1 19.1034909403 6.18057924377 0.0 0.0 0.0 0.0
21 1 23.4102909403 4.68657924377 0.0 0.0 0.0 0.0
22 1 30.4643909403 5.77747924377 0.0 0.0 0.0 0.0
23 1 35.7029909403 6.68964924377 0.0 0.0 0.0 0.0
24 1 41.4972909403 7.10307924377 0.0 0.0 0.0 0.0
25 1 46.6149909403 6.94126924377 0.0 0.0 0.0 0.0
26 1 51.3074909403 6.38874924377 0.0 0.0 0.0 0.0
27 1 56.2840909403 5.00509924377 0.0 0.0 0.0 0.0
28 1 61.8323909403 4.20563924377 0.0 0.0 0.0 0.0
29 1 67.0040909403 5.95328924377 0.0 0.0 0.0 0.0
30 1 72.5569909403 6.69698924377 0.0 0.0 0.0 0.0
31 1 2.04111094025 10.9916392438 0.0 0.0 0.0 0.0
32 1 7.36075094025 10.4708392438 0.0 0.0 0.0 0.0
33 1 12.5435909403 10.8585392438 0.0 0.0 0.0 0.0
34 1 17.2730909403 11.4321392438 0.0 0.0 0.0 0.0
35 1 22.4520909403 10.2358392438 0.0 0.0 0.0 0.0
36 1 27.5442909403 10.1381392438 0.0 0.0 0.0 0.0
37 1 32.5283909403 10.5537392438 0.0 0.0 0.0 0.0
38 1 37.0862909403 9.34030924377 0.0 0.0 0.0 0.0
39 1 44.7338909403 11.5586392438 0.0 0.0 0.0 0.0
40 1 49.8484909403 11.4356392438 0.0 0.0 0.0 0.0
41 1 55.1262909403 10.0550392438 0.0 0.0 0.0 0.0
42 1 61.3775909403 7.81002924377 0.0 0.0 0.0 0.0
43 1 63.2771909403 12.3586392438 0.0 0.0 0.0 0.0
44 1 68.8159909403 10.4488392438 0.0 0.0 0.0 0.0
45 1 74.2016909403 11.3383392438 0.0 0.0 0.0 0.0
46 1 75.6369909403 13.9927392438 0.0 0.0 0.0 0.0
47 1 5.33706094025 15.0952392438 0.0 0.0 0.0 0.0
48 1 10.2773909403 15.1421392438 0.0 0.0 0.0 0.0
49 1 15.3804909403 17.7164392438 0.0 0.0 0.0 0.0
50 1 20.4493909403 15.1559392438 0.0 0.0 0.0 0.0
51 1 25.4671909403 14.7445392438 0.0 0.0 0.0 0.0
52 1 30.2600909403 14.9710392438 0.0 0.0 0.0 0.0
53 1 35.5147909403 14.7211392438 0.0 0.0 0.0 0.0
54 1 39.8463909403 12.8544392438 0.0 0.0 0.0 0.0
55 1 46.5766909403 15.9902392438 0.0 0.0 0.0 0.0
56 1 54.2161909403 14.6186392438 0.0 0.0 0.0 0.0
57 1 57.2028909403 14.3642392438 0.0 0.0 0.0 0.0
58 1 62.0342909403 15.1002392438 0.0 0.0 0.0 0.0
59 1 66.7970909403 15.0925392438 0.0 0.0 0.0 0.0
60 1 71.6153909403 15.1378392438 0.0 0.0 0.0 0.0
61 1 2.27421094025 19.4522392438 0.0 0.0 0.0 0.0
62 1 7.66585094025 19.8695392438 0.0 0.0 0.0 0.0
63 1 15.6363909403 20.7068392438 0.0 0.0 0.0 0.0
64 1 20.0090909403 19.7632392438 0.0 0.0 0.0 0.0
65 1 22.9926909403 19.5561392438 0.0 0.0 0.0 0.0
66 1 27.6656909403 19.6611392438 0.0 0.0 0.0 0.0
67 1 32.8894909403 19.2928392438 0.0 0.0 0.0 0.0
68 1 38.3228909403 18.6006392438 0.0 0.0 0.0 0.0
69 1 43.2066909403 19.5968392438 0.0 0.0 0.0 0.0
70 1 47.4582909403 18.8558392438 0.0 0.0 0.0 0.0
71 1 54.3705909403 19.9894392438 0.0 0.0 0.0 0.0
72 1 59.2308909403 19.4670392438 0.0 0.0 0.0 0.0
73 1 64.2401909403 19.8963392438 0.0 0.0 0.0 0.0
74 1 69.6017909403 19.8662392438 0.0 0.0 0.0 0.0
75 1 74.5550909403 19.6463392438 0.0 0.0 0.0 0.0
76 1 76.8053909403 24.0419392438 0.0 0.0 0.0 0.0
77 1 4.45323094025 24.0186392438 0.0 0.0 0.0 0.0
78 1 9.54459094025 24.6464392438 0.0 0.0 0.0 0.0
79 1 14.4437909403 24.8964392438 0.0 0.0 0.0 0.0
80 1 19.6778909403 24.8453392438 0.0 0.0 0.0 0.0
81 1 25.0149909403 24.4989392438 0.0 0.0 0.0 0.0
82 1 30.0088909403 23.9461392438 0.0 0.0 0.0 0.0
83 1 35.3533909403 23.1972392438 0.0 0.0 0.0 0.0
84 1 40.5994909403 23.8041392438 0.0 0.0 0.0 0.0
85 1 46.1437909403 24.2939392438 0.0 0.0 0.0 0.0
86 1 51.2500909403 24.4771392438 0.0 0.0 0.0 0.0
87 1 56.4719909403 24.4108392438 0.0 0.0 0.0 0.0
88 1 61.2377909403 24.2939392438 0.0 0.0 0.0 0.0
89 1 66.6064909403 24.1890392438 0.0 0.0 0.0 0.0
90 1 71.6849909403 24.4663392438 0.0 0.0 0.0 0.0
91 1 1.80241094025 28.5845392438 0.0 0.0 0.0 0.0
92 1 7.08054094025 28.8794392438 0.0 0.0 0.0 0.0
93 1 12.3376909403 29.4569392438 0.0 0.0 0.0 0.0
94 1 17.5924909403 29.3189392438 0.0 0.0 0.0 0.0
95 1 22.9019909403 29.0726392438 0.0 0.0 0.0 0.0
96 1 27.9497909403 28.9029392438 0.0 0.0 0.0 0.0
97 1 33.0665909403 27.9048392438 0.0 0.0 0.0 0.0
98 1 37.8764909403 29.7801392438 0.0 0.0 0.0 0.0
99 1 43.6075909403 28.2586392438 0.0 0.0 0.0 0.0
100 1 50.2999909403 28.5806392438 0.0 0.0 0.0 0.0
101 1 53.3260909403 28.8769392438 0.0 0.0 0.0 0.0
102 1 58.6690909403 29.1814392438 0.0 0.0 0.0 0.0
103 1 64.2448909403 28.5527392438 0.0 0.0 0.0 0.0
104 1 68.8439909403 30.9374392438 0.0 0.0 0.0 0.0
105 1 74.1347909403 28.8551392438 0.0 0.0 0.0 0.0
106 1 76.9837909403 33.2427392438 0.0 0.0 0.0 0.0
107 1 4.71619094025 33.1463392438 0.0 0.0 0.0 0.0
108 1 9.97579094025 33.5613392438 0.0 0.0 0.0 0.0
109 1 15.2669909403 33.8371392438 0.0 0.0 0.0 0.0
110 1 20.1951909403 33.6278392438 0.0 0.0 0.0 0.0
111 1 25.3094909403 33.7014392438 0.0 0.0 0.0 0.0
112 1 30.9598909403 32.9564392438 0.0 0.0 0.0 0.0
113 1 36.4616909403 32.4304392438 0.0 0.0 0.0 0.0
114 1 41.1615909403 32.4799392438 0.0 0.0 0.0 0.0
115 1 44.5966909403 35.6467392438 0.0 0.0 0.0 0.0
116 1 49.9221909403 33.9886392438 0.0 0.0 0.0 0.0
117 1 56.2003909403 33.4809392438 0.0 0.0 0.0 0.0
118 1 61.7060909403 33.0130392438 0.0 0.0 0.0 0.0
119 1 67.2554909403 33.4958392438 0.0 0.0 0.0 0.0
120 1 72.1025909403 33.8369392438 0.0 0.0 0.0 0.0
121 1 2.51593094025 37.6011392438 0.0 0.0 0.0 0.0
122 1 7.58583094025 37.7574392438 0.0 0.0 0.0 0.0
123 1 12.9298909403 38.0928392438 0.0 0.0 0.0 0.0
124 1 18.1775909403 38.4415392438 0.0 0.0 0.0 0.0
125 1 23.0166909403 38.2348392438 0.0 0.0 0.0 0.0
126 1 26.7840909403 36.3456392438 0.0 0.0 0.0 0.0
127 1 33.5835909403 36.8487392438 0.0 0.0 0.0 0.0
128 1 38.4808909403 37.2743392438 0.0 0.0 0.0 0.0
129 1 43.0808909403 38.2207392438 0.0 0.0 0.0 0.0
130 1 48.0562909403 38.7832392438 0.0 0.0 0.0 0.0
131 1 51.7135909403 36.4465392438 0.0 0.0 0.0 0.0
132 1 58.7311909403 37.4302392438 0.0 0.0 0.0 0.0
133 1 63.8384909403 37.3586392438 0.0 0.0 0.0 0.0
134 1 69.0945909403 38.3903392438 0.0 0.0 0.0 0.0
135 1 74.8504909403 38.2556392438 0.0 0.0 0.0 0.0
136 1 0.111636940252 42.3537392438 0.0 0.0 0.0 0.0
137 1 5.15436094025 42.2681392438 0.0 0.0 0.0 0.0
138 1 10.0859909403 42.2652392438 0.0 0.0 0.0 0.0
139 1 15.3815909403 42.7184392438 0.0 0.0 0.0 0.0
140 1 21.5354909403 43.0209392438 0.0 0.0 0.0 0.0
141 1 26.4135909403 42.2394392438 0.0 0.0 0.0 0.0
142 1 31.1613909403 41.4749392438 0.0 0.0 0.0 0.0
143 1 35.9083909403 41.7349392438 0.0 0.0 0.0 0.0
144 1 39.8979909403 44.9212392438 0.0 0.0 0.0 0.0
145 1 45.3936909403 43.0847392438 0.0 0.0 0.0 0.0
146 1 50.7691909403 42.4289392438 0.0 0.0 0.0 0.0
147 1 55.6563909403 41.8143392438 0.0 0.0 0.0 0.0
148 1 60.8169909403 41.9325392438 0.0 0.0 0.0 0.0
149 1 66.1414909403 42.1801392438 0.0 0.0 0.0 0.0
150 1 70.4207909403 41.0813392438 0.0 0.0 0.0 0.0
151 1 2.57217094025 46.9088392438 0.0 0.0 0.0 0.0
152 1 7.81354094025 46.9590392438 0.0 0.0 0.0 0.0
153 1 12.7403909403 46.8473392438 0.0 0.0 0.0 0.0
154 1 16.9451909403 45.2797392438 0.0 0.0 0.0 0.0
155 1 23.9348909403 47.3684392438 0.0 0.0 0.0 0.0
156 1 30.3694909403 46.4161392438 0.0 0.0 0.0 0.0
157 1 33.3964909403 46.4651392438 0.0 0.0 0.0 0.0
158 1 38.5983909403 47.6256392438 0.0 0.0 0.0 0.0
159 1 43.8837909403 47.5463392438 0.0 0.0 0.0 0.0
160 1 48.3278909403 49.3270392438 0.0 0.0 0.0 0.0
161 1 53.5250909403 46.8887392438 0.0 0.0 0.0 0.0
162 1 58.4083909403 46.4360392438 0.0 0.0 0.0 0.0
163 1 63.7171909403 46.3927392438 0.0 0.0 0.0 0.0
164 1 69.0657909403 46.5938392438 0.0 0.0 0.0 0.0
165 1 74.5919909403 46.4823392438 0.0 0.0 0.0 0.0
166 1 0.151640940252 50.8506392438 0.0 0.0 0.0 0.0
167 1 5.64854094025 51.3609392438 0.0 0.0 0.0 0.0
168 1 11.0642909403 51.5154392438 0.0 0.0 0.0 0.0
169 1 16.2335909403 50.8540392438 0.0 0.0 0.0 0.0
170 1 20.2649909403 53.6105392438 0.0 0.0 0.0 0.0
171 1 25.5062909403 52.4739392438 0.0 0.0 0.0 0.0
172 1 30.3621909403 51.8688392438 0.0 0.0 0.0 0.0
173 1 35.8032909403 51.5152392438 0.0 0.0 0.0 0.0
174 1 40.9838909403 52.0470392438 0.0 0.0 0.0 0.0
175 1 46.5527909403 51.7663392438 0.0 0.0 0.0 0.0
176 1 51.9063909403 51.8956392438 0.0 0.0 0.0 0.0
177 1 56.8158909403 51.3640392438 0.0 0.0 0.0 0.0
178 1 61.8663909403 50.7172392438 0.0 0.0 0.0 0.0
179 1 66.7276909403 52.8501392438 0.0 0.0 0.0 0.0
180 1 72.1977909403 50.7211392438 0.0 0.0 0.0 0.0
181 1 3.11063094025 55.2947392438 0.0 0.0 0.0 0.0
182 1 8.66489094025 55.7553392438 0.0 0.0 0.0 0.0
183 1 13.6237909403 55.7442392438 0.0 0.0 0.0 0.0
184 1 18.7570909403 56.2177392438 0.0 0.0 0.0 0.0
185 1 23.3920909403 57.3955392438 0.0 0.0 0.0 0.0
186 1 28.2133909403 56.9364392438 0.0 0.0 0.0 0.0
187 1 33.3011909403 56.0227392438 0.0 0.0 0.0 0.0
188 1 38.3687909403 56.3836392438 0.0 0.0 0.0 0.0
189 1 43.5421909403 56.0931392438 0.0 0.0 0.0 0.0
190 1 49.0193909403 56.1706392438 0.0 0.0 0.0 0.0
191 1 54.4251909403 56.3639392438 0.0 0.0 0.0 0.0
192 1 59.9280909403 55.6398392438 0.0 0.0 0.0 0.0
193 1 65.5715909403 55.6267392438 0.0 0.0 0.0 0.0
194 1 70.4451909403 55.2828392438 0.0 0.0 0.0 0.0
195 1 75.5943909403 54.9447392438 0.0 0.0 0.0 0.0
196 1 0.307330940252 59.7218392438 0.0 0.0 0.0 0.0
197 1 5.77713094025 59.6301392438 0.0 0.0 0.0 0.0
198 1 11.1767909403 60.5165392438 0.0 0.0 0.0 0.0
199 1 16.1289909403 60.5518392438 0.0 0.0 0.0 0.0
200 1 20.7280909403 63.6941392438 0.0 0.0 0.0 0.0
201 1 26.2979909403 61.9666392438 0.0 0.0 0.0 0.0
202 1 31.5457909403 60.9756392438 0.0 0.0 0.0 0.0
203 1 36.5888909403 62.8897392438 0.0 0.0 0.0 0.0
204 1 41.7998909403 60.7532392438 0.0 0.0 0.0 0.0
205 1 46.7339909403 60.3473392438 0.0 0.0 0.0 0.0
206 1 50.8204909403 62.7079392438 0.0 0.0 0.0 0.0
207 1 57.8825909403 60.1651392438 0.0 0.0 0.0 0.0
208 1 63.3875909403 59.6612392438 0.0 0.0 0.0 0.0
209 1 69.9226909403 59.6021392438 0.0 0.0 0.0 0.0
210 1 72.9188909403 59.5984392438 0.0 0.0 0.0 0.0
211 1 3.47724094025 63.8859392438 0.0 0.0 0.0 0.0
212 1 8.29209094025 66.1844392438 0.0 0.0 0.0 0.0
213 1 13.9035909403 65.3299392438 0.0 0.0 0.0 0.0
214 1 19.2473909403 66.3420392438 0.0 0.0 0.0 0.0
215 1 24.2256909403 66.6351392438 0.0 0.0 0.0 0.0
216 1 29.4610909403 65.9525392438 0.0 0.0 0.0 0.0
217 1 36.7981909403 65.8917392438 0.0 0.0 0.0 0.0
218 1 39.8048909403 65.8064392438 0.0 0.0 0.0 0.0
219 1 44.5091909403 65.3381392438 0.0 0.0 0.0 0.0
220 1 49.5440909403 65.4033392438 0.0 0.0 0.0 0.0
221 1 53.6425909403 63.6610392438 0.0 0.0 0.0 0.0
222 1 60.5844909403 64.0683392438 0.0 0.0 0.0 0.0
223 1 65.3516909403 64.5220392438 0.0 0.0 0.0 0.0
224 1 70.1696909403 64.8970392438 0.0 0.0 0.0 0.0
225 1 75.3781909403 64.3820392438 0.0 0.0 0.0 0.0
226 1 0.560240940252 68.1919392438 0.0 0.0 0.0 0.0
227 1 6.03929094025 68.1825392438 0.0 0.0 0.0 0.0
228 1 10.9113909403 69.8042392438 0.0 0.0 0.0 0.0
229 1 16.1840909403 70.2413392438 0.0 0.0 0.0 0.0
230 1 21.5799909403 71.2126392438 0.0 0.0 0.0 0.0
231 1 27.2233909403 70.8042392438 0.0 0.0 0.0 0.0
232 1 31.6763909403 72.6261392438 0.0 0.0 0.0 0.0
233 1 36.5955909403 70.8421392438 0.0 0.0 0.0 0.0
234 1 42.9570909403 70.4249392438 0.0 0.0 0.0 0.0
235 1 47.8878909403 69.9045392438 0.0 0.0 0.0 0.0
236 1 52.9391909403 69.2842392438 0.0 0.0 0.0 0.0
237 1 58.2083909403 68.4819392438 0.0 0.0 0.0 0.0
238 1 63.2335909403 69.0179392438 0.0 0.0 0.0 0.0
239 1 67.9474909403 71.5546392438 0.0 0.0 0.0 0.0
240 1 72.9770909403 69.1586392438 0.0 0.0 0.0 0.0
241 1 2.38046094025 72.2759392438 0.0 0.0 0.0 0.0
242 1 7.10707094025 73.2829392438 0.0 0.0 0.0 0.0
243 1 11.6845909403 72.7124392438 0.0 0.0 0.0 0.0
244 1 18.4545909403 74.9312392438 0.0 0.0 0.0 0.0
245 1 23.0202909403 73.8735392438 0.0 0.0 0.0 0.0
246 1 30.3400909403 75.2830392438 0.0 0.0 0.0 0.0
247 1 35.3419909403 75.9834392438 0.0 0.0 0.0 0.0
248 1 38.6132909403 73.1194392438 0.0 0.0 0.0 0.0
249 1 45.7007909403 74.8650392438 0.0 0.0 0.0 0.0
250 1 52.2297909403 73.7079392438 0.0 0.0 0.0 0.0
251 1 55.1975909403 73.1692392438 0.0 0.0 0.0 0.0
252 1 60.6954909403 73.3672392438 0.0 0.0 0.0 0.0
253 1 66.2375909403 74.0259392438 0.0 0.0 0.0 0.0
254 1 71.1441909403 74.3996392438 0.0 0.0 0.0 0.0
255 1 76.9895909403 72.9219392438 0.0 0.0 0.0 0.0
256 1 1.28587094025 2.77807924377 0.0 0.0 0.0 0.0
257 1 6.36931094025 0.0768032437673 0.0 0.0 0.0 0.0
258 1 9.71119094025 3.01113924377 0.0 0.0 0.0 0.0
259 1 14.5250909403 2.89956924377 0.0 0.0 0.0 0.0
260 1 19.2626909403 3.17197924377 0.0 0.0 0.0 0.0
261 1 26.3903909403 4.50625924377 0.0 0.0 0.0 0.0
262 1 30.5910909403 2.78160924377 0.0 0.0 0.0 0.0
263 1 36.2105909403 3.74161924377 0.0 0.0 0.0 0.0
264 1 41.3892909403 4.00996924377 0.0 0.0 0.0 0.0
265 1 46.5781909403 3.92831924377 0.0 0.0 0.0 0.0
266 1 49.6071909403 3.89443924377 0.0 0.0 0.0 0.0
267 1 54.6537909403 2.45822924377 0.0 0.0 0.0 0.0
268 1 62.2920909403 1.26330924377 0.0 0.0 0.0 0.0
269 1 67.5807909403 2.99259924377 0.0 0.0 0.0 0.0
270 1 73.1460909403 3.71946924377 0.0 0.0 0.0 0.0
271 1 0.561080940252 8.32360924377 0.0 0.0 0.0 0.0
272 1 7.47747094025 7.46795924377 0.0 0.0 0.0 0.0
273 1 13.0671909403 5.53681924377 0.0 0.0 0.0 0.0
274 1 17.1163909403 8.43615924377 0.0 0.0 0.0 0.0
275 1 21.8963909403 7.27916924377 0.0 0.0 0.0 0.0
276 1 27.8068909403 7.14648924377 0.0 0.0 0.0 0.0
277 1 32.8468909403 7.57768924377 0.0 0.0 0.0 0.0
278 1 40.0363909403 9.79683924377 0.0 0.0 0.0 0.0
279 1 44.1183909403 8.60016924377 0.0 0.0 0.0 0.0
280 1 49.1864909403 8.50461924377 0.0 0.0 0.0 0.0
281 1 54.2180909403 7.18597924377 0.0 0.0 0.0 0.0
282 1 59.2331909403 5.69585924377 0.0 0.0 0.0 0.0
283 1 63.9856909403 6.30094924377 0.0 0.0 0.0 0.0
284 1 69.6077909403 7.52677924377 0.0 0.0 0.0 0.0
285 1 75.0565909403 8.44423924377 0.0 0.0 0.0 0.0
286 1 1.08746094025 13.8599392438 0.0 0.0 0.0 0.0
287 1 4.84563094025 12.1074392438 0.0 0.0 0.0 0.0
288 1 9.84339094025 12.1616392438 0.0 0.0 0.0 0.0
289 1 14.6825909403 12.9567392438 0.0 0.0 0.0 0.0
290 1 20.1682909403 12.1799392438 0.0 0.0 0.0 0.0
291 1 25.0331909403 11.7695392438 0.0 0.0 0.0 0.0
292 1 29.9045909403 11.9911392438 0.0 0.0 0.0 0.0
293 1 35.2768909403 11.7317392438 0.0 0.0 0.0 0.0
294 1 42.6934909403 13.7681392438 0.0 0.0 0.0 0.0
295 1 47.3333909403 13.0786392438 0.0 0.0 0.0 0.0
296 1 52.8081909403 11.9744392438 0.0 0.0 0.0 0.0
297 1 57.8156909403 11.4241392438 0.0 0.0 0.0 0.0
298 1 60.7485909403 10.7321392438 0.0 0.0 0.0 0.0
299 1 66.2922909403 12.1239392438 0.0 0.0 0.0 0.0
300 1 71.3076909403 12.1454392438 0.0 0.0 0.0 0.0
301 1 2.64858094025 16.4453392438 0.0 0.0 0.0 0.0
302 1 7.79668094025 16.8493392438 0.0 0.0 0.0 0.0
303 1 13.2537909403 15.5986392438 0.0 0.0 0.0 0.0
304 1 18.3399909403 17.2682392438 0.0 0.0 0.0 0.0
305 1 23.0929909403 16.5615392438 0.0 0.0 0.0 0.0
306 1 27.7805909403 16.6551392438 0.0 0.0 0.0 0.0
307 1 32.9530909403 16.2907392438 0.0 0.0 0.0 0.0
308 1 38.3986909403 15.5483392438 0.0 0.0 0.0 0.0
309 1 43.6445909403 16.6120392438 0.0 0.0 0.0 0.0
310 1 50.4383909403 18.8991392438 0.0 0.0 0.0 0.0
311 1 52.9843909403 17.3418392438 0.0 0.0 0.0 0.0
312 1 59.3522909403 16.4593392438 0.0 0.0 0.0 0.0
313 1 64.4116909403 16.9070392438 0.0 0.0 0.0 0.0
314 1 69.1968909403 16.8905392438 0.0 0.0 0.0 0.0
315 1 74.2143909403 16.6412392438 0.0 0.0 0.0 0.0
316 1 77.2284909403 21.0417392438 0.0 0.0 0.0 0.0
317 1 4.86218094025 21.0233392438 0.0 0.0 0.0 0.0
318 1 10.0869909403 21.6917392438 0.0 0.0 0.0 0.0
319 1 13.0589909403 22.2185392438 0.0 0.0 0.0 0.0
320 1 18.2660909403 22.1852392438 0.0 0.0 0.0 0.0
321 1 25.2794909403 21.4964392438 0.0 0.0 0.0 0.0
322 1 30.3729909403 20.9577392438 0.0 0.0 0.0 0.0
323 1 35.7537909403 20.2107392438 0.0 0.0 0.0 0.0
324 1 40.4400909403 20.7732392438 0.0 0.0 0.0 0.0
325 1 45.7003909403 21.2959392438 0.0 0.0 0.0 0.0
326 1 51.8196909403 21.5437392438 0.0 0.0 0.0 0.0
327 1 56.9760909403 21.4460392438 0.0 0.0 0.0 0.0
328 1 61.5940909403 21.3092392438 0.0 0.0 0.0 0.0
329 1 66.9260909403 21.2178392438 0.0 0.0 0.0 0.0
330 1 72.1453909403 21.4745392438 0.0 0.0 0.0 0.0
331 1 1.86527094025 25.5673392438 0.0 0.0 0.0 0.0
332 1 6.81641094025 25.8840392438 0.0 0.0 0.0 0.0
333 1 11.9168909403 26.4919392438 0.0 0.0 0.0 0.0
334 1 17.0850909403 26.3580392438 0.0 0.0 0.0 0.0
335 1 22.4431909403 26.0792392438 0.0 0.0 0.0 0.0
336 1 27.6922909403 25.8882392438 0.0 0.0 0.0 0.0
337 1 32.8526909403 24.9026392438 0.0 0.0 0.0 0.0
338 1 37.7910909403 24.9521392438 0.0 0.0 0.0 0.0
339 1 43.2759909403 25.2598392438 0.0 0.0 0.0 0.0
340 1 48.6700909403 26.0068392438 0.0 0.0 0.0 0.0
341 1 53.8788909403 25.9272392438 0.0 0.0 0.0 0.0
342 1 58.8931909403 26.1768392438 0.0 0.0 0.0 0.0
343 1 63.9445909403 25.5726392438 0.0 0.0 0.0 0.0
344 1 69.0364909403 25.9404392438 0.0 0.0 0.0 0.0
345 1 74.3654909403 25.8398392438 0.0 0.0 0.0 0.0
346 1 76.8136909403 30.2323392438 0.0 0.0 0.0 0.0
347 1 4.36830094025 30.1638392438 0.0 0.0 0.0 0.0
348 1 9.56239094025 30.5894392438 0.0 0.0 0.0 0.0
349 1 15.0068909403 30.8461392438 0.0 0.0 0.0 0.0
350 1 20.3104909403 30.6189392438 0.0 0.0 0.0 0.0
351 1 25.4830909403 30.6660392438 0.0 0.0 0.0 0.0
352 1 30.7940909403 29.9308392438 0.0 0.0 0.0 0.0
353 1 36.0496909403 27.4227392438 0.0 0.0 0.0 0.0
354 1 40.8629909403 29.5071392438 0.0 0.0 0.0 0.0
355 1 45.8779909403 30.2707392438 0.0 0.0 0.0 0.0
356 1 48.7740909403 31.1738392438 0.0 0.0 0.0 0.0
357 1 55.9114909403 30.4727392438 0.0 0.0 0.0 0.0
358 1 61.5871909403 30.0126392438 0.0 0.0 0.0 0.0
359 1 67.2683909403 28.3942392438 0.0 0.0 0.0 0.0
360 1 71.8535909403 30.8414392438 0.0 0.0 0.0 0.0
361 1 2.11149094025 34.6287392438 0.0 0.0 0.0 0.0
362 1 7.23953094025 34.7812392438 0.0 0.0 0.0 0.0
363 1 12.5546909403 35.1139392438 0.0 0.0 0.0 0.0
364 1 17.8072909403 35.4498392438 0.0 0.0 0.0 0.0
365 1 22.7278909403 35.2330392438 0.0 0.0 0.0 0.0
366 1 29.7110909403 35.7222392438 0.0 0.0 0.0 0.0
367 1 33.8191909403 33.8538392438 0.0 0.0 0.0 0.0
368 1 38.7933909403 34.3031392438 0.0 0.0 0.0 0.0
369 1 44.1315909403 32.7045392438 0.0 0.0 0.0 0.0
370 1 47.5749909403 35.8385392438 0.0 0.0 0.0 0.0
371 1 54.6944909403 36.1047392438 0.0 0.0 0.0 0.0
372 1 59.0506909403 34.4392392438 0.0 0.0 0.0 0.0
373 1 64.3762909403 34.3992392438 0.0 0.0 0.0 0.0
374 1 69.5545909403 35.4268392438 0.0 0.0 0.0 0.0
375 1 74.7420909403 35.2503392438 0.0 0.0 0.0 0.0
376 1 0.0949129402515 39.3578392438 0.0 0.0 0.0 0.0
377 1 5.00512094025 39.2731392438 0.0 0.0 0.0 0.0
378 1 10.1739909403 39.2730392438 0.0 0.0 0.0 0.0
379 1 15.4626909403 39.7187392438 0.0 0.0 0.0 0.0
380 1 20.6807909403 40.1240392438 0.0 0.0 0.0 0.0
381 1 25.8524909403 39.2383392438 0.0 0.0 0.0 0.0
382 1 31.0440909403 38.4362392438 0.0 0.0 0.0 0.0
383 1 35.8811909403 38.7446392438 0.0 0.0 0.0 0.0
384 1 40.4087909403 39.5512392438 0.0 0.0 0.0 0.0
385 1 45.3861909403 40.1110392438 0.0 0.0 0.0 0.0
386 1 50.9730909403 39.4007392438 0.0 0.0 0.0 0.0
387 1 56.0551909403 38.8024392438 0.0 0.0 0.0 0.0
388 1 61.2992909403 38.9667392438 0.0 0.0 0.0 0.0
389 1 66.2120909403 39.1846392438 0.0 0.0 0.0 0.0
390 1 73.3992909403 40.8858392438 0.0 0.0 0.0 0.0
391 1 2.65992094025 43.9166392438 0.0 0.0 0.0 0.0
392 1 7.62452094025 43.9639392438 0.0 0.0 0.0 0.0
393 1 12.6161909403 43.8570392438 0.0 0.0 0.0 0.0
394 1 19.9199909403 45.5522392438 0.0 0.0 0.0 0.0
395 1 24.2401909403 44.3456392438 0.0 0.0 0.0 0.0
396 1 29.0855909403 43.6569392438 0.0 0.0 0.0 0.0
397 1 33.4539909403 43.4444392438 0.0 0.0 0.0 0.0
398 1 38.8707909403 42.1209392438 0.0 0.0 0.0 0.0
399 1 42.8871909403 44.7306392438 0.0 0.0 0.0 0.0
400 1 48.2216909403 44.0945392438 0.0 0.0 0.0 0.0
401 1 53.4219909403 43.8582392438 0.0 0.0 0.0 0.0
402 1 58.2044909403 43.4260392438 0.0 0.0 0.0 0.0
403 1 63.4193909403 43.4194392438 0.0 0.0 0.0 0.0
404 1 68.7847909403 43.5975392438 0.0 0.0 0.0 0.0
405 1 74.8827909403 43.4934392438 0.0 0.0 0.0 0.0
406 1 77.2670909403 47.8801392438 0.0 0.0 0.0 0.0
407 1 5.18529094025 48.3962392438 0.0 0.0 0.0 0.0
408 1 10.3248909403 48.6050392438 0.0 0.0 0.0 0.0
409 1 15.5285909403 47.9290392438 0.0 0.0 0.0 0.0
410 1 21.0690909403 48.3331392438 0.0 0.0 0.0 0.0
411 1 26.0627909403 49.5095392438 0.0 0.0 0.0 0.0
412 1 29.0580909403 49.1392392438 0.0 0.0 0.0 0.0
413 1 35.6914909403 48.4767392438 0.0 0.0 0.0 0.0
414 1 41.2614909403 49.0544392438 0.0 0.0 0.0 0.0
415 1 46.8055909403 46.7643392438 0.0 0.0 0.0 0.0
416 1 51.3211909403 48.9537392438 0.0 0.0 0.0 0.0
417 1 56.1353909403 48.4109392438 0.0 0.0 0.0 0.0
418 1 61.0780909403 47.8223392438 0.0 0.0 0.0 0.0
419 1 66.3290909403 47.8713392438 0.0 0.0 0.0 0.0
420 1 71.8554909403 47.7376392438 0.0 0.0 0.0 0.0
421 1 2.79361094025 52.3122392438 0.0 0.0 0.0 0.0
422 1 8.32698094025 52.7675392438 0.0 0.0 0.0 0.0
423 1 13.8390909403 52.7228392438 0.0 0.0 0.0 0.0
424 1 19.2591909403 50.7718392438 0.0 0.0 0.0 0.0
425 1 23.1736909403 54.3841392438 0.0 0.0 0.0 0.0
426 1 28.1463909403 53.9183392438 0.0 0.0 0.0 0.0
427 1 33.1668909403 53.0000392438 0.0 0.0 0.0 0.0
428 1 38.2423909403 53.3424392438 0.0 0.0 0.0 0.0
429 1 43.8187909403 53.0892392438 0.0 0.0 0.0 0.0
430 1 49.1922909403 53.1932392438 0.0 0.0 0.0 0.0
431 1 54.5380909403 53.3461392438 0.0 0.0 0.0 0.0
432 1 59.5536909403 52.6449392438 0.0 0.0 0.0 0.0
433 1 64.8716909403 50.5045392438 0.0 0.0 0.0 0.0
434 1 69.6972909403 52.3897392438 0.0 0.0 0.0 0.0
435 1 74.9218909403 52.0211392438 0.0 0.0 0.0 0.0
436 1 0.473840940252 56.7218392438 0.0 0.0 0.0 0.0
437 1 5.79704094025 56.6398392438 0.0 0.0 0.0 0.0
438 1 11.1489909403 57.4796392438 0.0 0.0 0.0 0.0
439 1 16.0486909403 57.5288392438 0.0 0.0 0.0 0.0
440 1 20.6232909403 58.5719392438 0.0 0.0 0.0 0.0
441 1 25.9699909403 58.9559392438 0.0 0.0 0.0 0.0
442 1 31.0239909403 58.0030392438 0.0 0.0 0.0 0.0
443 1 35.7084909403 57.8392392438 0.0 0.0 0.0 0.0
444 1 41.0521909403 57.8101392438 0.0 0.0 0.0 0.0
445 1 46.2595909403 57.3872392438 0.0 0.0 0.0 0.0
446 1 51.6539909403 57.6175392438 0.0 0.0 0.0 0.0
447 1 57.3330909403 57.2078392438 0.0 0.0 0.0 0.0
448 1 62.7625909403 56.7152392438 0.0 0.0 0.0 0.0
449 1 68.1369909403 57.1904392438 0.0 0.0 0.0 0.0
450 1 73.1231909403 56.6178392438 0.0 0.0 0.0 0.0
451 1 3.06255094025 60.9181392438 0.0 0.0 0.0 0.0
452 1 8.25651094025 61.3244392438 0.0 0.0 0.0 0.0
453 1 13.6487909403 62.2939392438 0.0 0.0 0.0 0.0
454 1 19.0878909403 61.1639392438 0.0 0.0 0.0 0.0
455 1 23.7653909403 63.6594392438 0.0 0.0 0.0 0.0
456 1 29.1925909403 62.9234392438 0.0 0.0 0.0 0.0
457 1 34.5640909403 60.6517392438 0.0 0.0 0.0 0.0
458 1 39.5931909403 62.8041392438 0.0 0.0 0.0 0.0
459 1 44.4138909403 62.2954392438 0.0 0.0 0.0 0.0
460 1 49.7295909403 59.9416392438 0.0 0.0 0.0 0.0
461 1 56.5067909403 62.8399392438 0.0 0.0 0.0 0.0
462 1 60.7405909403 61.0764392438 0.0 0.0 0.0 0.0
463 1 65.7304909403 61.5608392438 0.0 0.0 0.0 0.0
464 1 68.6515909403 62.2938392438 0.0 0.0 0.0 0.0
465 1 75.3322909403 61.3774392438 0.0 0.0 0.0 0.0
466 1 0.746610940252 65.1986392438 0.0 0.0 0.0 0.0
467 1 6.50714094025 63.7790392438 0.0 0.0 0.0 0.0
468 1 11.2567909403 66.8118392438 0.0 0.0 0.0 0.0
469 1 16.3211909403 67.1949392438 0.0 0.0 0.0 0.0
470 1 21.6416909403 68.1938392438 0.0 0.0 0.0 0.0
471 1 27.0139909403 67.7794392438 0.0 0.0 0.0 0.0
472 1 31.9545909403 67.6763392438 0.0 0.0 0.0 0.0
473 1 34.9499909403 68.2737392438 0.0 0.0 0.0 0.0
474 1 42.3387909403 67.4463392438 0.0 0.0 0.0 0.0
475 1 47.0202909403 67.0133392438 0.0 0.0 0.0 0.0
476 1 52.3759909403 66.3608392438 0.0 0.0 0.0 0.0
477 1 57.9495909403 65.4772392438 0.0 0.0 0.0 0.0
478 1 62.8008909403 66.0616392438 0.0 0.0 0.0 0.0
479 1 67.6266909403 66.4692392438 0.0 0.0 0.0 0.0
480 1 72.9160909403 66.1374392438 0.0 0.0 0.0 0.0
481 1 3.29572094025 69.4146392438 0.0 0.0 0.0 0.0
482 1 7.98567094025 70.4345392438 0.0 0.0 0.0 0.0
483 1 14.6715909403 72.8726392438 0.0 0.0 0.0 0.0
484 1 18.6695909403 71.9310392438 0.0 0.0 0.0 0.0
485 1 26.0351909403 73.6281392438 0.0 0.0 0.0 0.0
486 1 30.1451909403 70.0794392438 0.0 0.0 0.0 0.0
487 1 34.6193909403 73.0789392438 0.0 0.0 0.0 0.0
488 1 41.6084909403 73.1290392438 0.0 0.0 0.0 0.0
489 1 45.6094909403 71.8501392438 0.0 0.0 0.0 0.0
490 1 50.6178909403 71.1734392438 0.0 0.0 0.0 0.0
491 1 55.7707909403 70.2288392438 0.0 0.0 0.0 0.0
492 1 60.5613909403 70.3650392438 0.0 0.0 0.0 0.0
493 1 66.2276909403 69.1152392438 0.0 0.0 0.0 0.0
494 1 70.9512909403 71.3997392438 0.0 0.0 0.0 0.0
495 1 75.8151909403 70.1553392438 0.0 0.0 0.0 0.0
496 1 76.2077909403 75.8279392438 0.0 0.0 0.0 0.0
497 1 4.37578094025 74.4981392438 0.0 0.0 0.0 0.0
498 1 9.61829094025 74.9050392438 0.0 0.0 0.0 0.0
499 1 15.5712909403 75.7630392438 0.0 0.0 0.0 0.0
500 1 21.1469909403 76.2644392438 0.0 0.0 0.0 0.0
501 1 27.5298909403 76.2841392438 0.0 0.0 0.0 0.0
502 1 32.6234909403 77.2068392438 0.0 0.0 0.0 0.0
503 1 38.3185909403 76.1477392438 0.0 0.0 0.0 0.0
504 1 42.8771909403 75.8889392438 0.0 0.0 0.0 0.0
505 1 47.7909909403 77.0308392438 0.0 0.0 0.0 0.0
506 1 50.7107909403 76.2970392438 0.0 0.0 0.0 0.0
507 1 57.8975909403 74.4837392438 0.0 0.0 0.0 0.0
508 1 63.3354909403 74.8315392438 0.0 0.0 0.0 0.0
509 1 68.5555909403 75.9282392438 0.0 0.0 0.0 0.0
510 1 73.2885909403 76.4934392438 0.0 0.0 0.0 0.0
511 1 4.97065094025 77.4247392438 0.0 0.0 0.0 0.0
512 1 8.97002094025 80.2464392438 0.0 0.0 0.0 0.0
513 1 14.8131909403 78.6990392438 0.0 0.0 0.0 0.0
514 1 20.5588909403 79.2404392438 0.0 0.0 0.0 0.0
515 1 28.5196909403 79.1741392438 0.0 0.0 0.0 0.0
516 1 31.5041909403 79.9685392438 0.0 0.0 0.0 0.0
517 1 39.3101909403 79.0119392438 0.0 0.0 0.0 0.0
518 1 42.3339909403 78.8824392438 0.0 0.0 0.0 0.0
519 1 47.2327909403 80.0030392438 0.0 0.0 0.0 0.0
520 1 52.2509909403 78.8665392438 0.0 0.0 0.0 0.0
521 1 57.6082909403 77.4596392438 0.0 0.0 0.0 0.0
522 1 63.1422909403 77.8338392438 0.0 0.0 0.0 0.0
523 1 68.2806909403 78.9176392438 0.0 0.0 0.0 0.0
524 1 73.0207909403 79.4865392438 0.0 0.0 0.0 0.0
525 1 77.3561909403 78.6101392438 0.0 0.0 0.0 0.0
526 1 2.70652094025 79.3990392438 0.0 0.0 0.0 0.0
527 1 7.98277094025 77.4240392438 0.0 0.0 0.0 0.0
528 1 12.0197909403 79.9786392438 0.0 0.0 0.0 0.0
529 1 17.5798909403 80.0166392438 0.0 0.0 0.0 0.0
530 1 23.0724909403 80.9799392438 0.0 0.0 0.0 0.0
531 1 26.1306909403 81.0472392438 0.0 0.0 0.0 0.0
532 1 34.3213909403 81.2058392438 0.0 0.0 0.0 0.0
533 1 37.3993909403 81.3814392438 0.0 0.0 0.0 0.0
534 1 44.4017909403 81.1257392438 0.0 0.0 0.0 0.0
535 1 50.1058909403 80.9783392438 0.0 0.0 0.0 0.0
536 1 55.2326909403 79.2951392438 0.0 0.0 0.0 0.0
537 1 60.2939909403 78.7911392438 0.0 0.0 0.0 0.0
538 1 65.4195909403 79.8040392438 0.0 0.0 0.0 0.0
539 1 70.4397909403 81.0066392438 0.0 0.0 0.0 0.0
540 1 75.5832909403 81.0463392438 0.0 0.0 0.0 0.0
541 2 2.93086094025 80.8765392438 0.0 0.0 0.0 0.0
542 2 4.85107094025 0.235793243767 0.0 0.0 0.0 0.0
543 2 2.34600094025 1.67149924377 0.0 0.0 0.0 0.0
544 2 6.51489094025 1.57142924377 0.0 0.0 0.0 0.0
545 2 8.22220094025 2.99773924377 0.0 0.0 0.0 0.0
546 2 5.84672094025 4.26166924377 0.0 0.0 0.0 0.0
547 2 10.8353909403 2.01878924377 0.0 0.0 0.0 0.0
548 2 13.3279909403 1.99283924377 0.0 0.0 0.0 0.0
549 2 12.1362909403 81.4842392438 0.0 0.0 0.0 0.0
550 2 17.2961909403 81.5145392438 0.0 0.0 0.0 0.0
551 2 15.7729909403 2.06374924377 0.0 0.0 0.0 0.0
552 2 18.1438909403 2.18097924377 0.0 0.0 0.0 0.0
553 2 22.5680909403 0.613862243767 0.0 0.0 0.0 0.0
554 2 22.7771909403 3.32801924377 0.0 0.0 0.0 0.0
555 2 20.6170909403 2.52565924377 0.0 0.0 0.0 0.0
556 2 26.9046909403 0.562193243767 0.0 0.0 0.0 0.0
557 2 29.2260909403 2.13470924377 0.0 0.0 0.0 0.0
558 2 27.0409909403 3.15551924377 0.0 0.0 0.0 0.0
559 2 33.9482909403 0.860379243767 0.0 0.0 0.0 0.0
560 2 34.8570909403 3.07739924377 0.0 0.0 0.0 0.0
561 2 32.0699909403 2.49714924377 0.0 0.0 0.0 0.0
562 2 38.2080909403 0.889059243767 0.0 0.0 0.0 0.0
563 2 40.1334909403 3.11521924377 0.0 0.0 0.0 0.0
564 2 37.5552909403 3.08451924377 0.0 0.0 0.0 0.0
565 2 42.6823909403 3.17647924377 0.0 0.0 0.0 0.0
566 2 45.3026909403 3.11156924377 0.0 0.0 0.0 0.0
567 2 44.1383909403 0.830659243767 0.0 0.0 0.0 0.0
568 2 50.6390909403 2.80288924377 0.0 0.0 0.0 0.0
569 2 50.9016909403 0.462101243767 0.0 0.0 0.0 0.0
570 2 53.1771909403 2.10636924377 0.0 0.0 0.0 0.0
571 2 55.6485909403 1.32544924377 0.0 0.0 0.0 0.0
572 2 55.8781909403 80.6521392438 0.0 0.0 0.0 0.0
573 2 58.1183909403 0.153246243767 0.0 0.0 0.0 0.0
574 2 59.9778909403 80.2523392438 0.0 0.0 0.0 0.0
575 2 60.9438909403 0.598814243767 0.0 0.0 0.0 0.0
576 2 65.3912909403 81.3018392438 0.0 0.0 0.0 0.0
577 2 66.4348909403 1.99491924377 0.0 0.0 0.0 0.0
578 2 63.7870909403 1.13023924377 0.0 0.0 0.0 0.0
579 2 70.4791909403 0.705762243767 0.0 0.0 0.0 0.0
580 2 71.8229909403 2.96276924377 0.0 0.0 0.0 0.0
581 2 69.0527909403 2.64659924377 0.0 0.0 0.0 0.0
582 2 75.7039909403 0.745419243767 0.0 0.0 0.0 0.0
583 2 77.3131909403 2.57030924377 0.0 0.0 0.0 0.0
584 2 74.5137909403 3.04091924377 0.0 0.0 0.0 0.0
585 2 1.31483094025 6.99908924377 0.0 0.0 0.0 0.0
586 2 1.65833094025 4.25155924377 0.0 0.0 0.0 0.0
587 2 3.62189094025 5.71353924377 0.0 0.0 0.0 0.0
588 2 6.23452094025 6.61334924377 0.0 0.0 0.0 0.0
589 2 9.90789094025 4.48928924377 0.0 0.0 0.0 0.0
590 2 11.5954909403 5.85635924377 0.0 0.0 0.0 0.0
591 2 8.83535094025 6.79961924377 0.0 0.0 0.0 0.0
592 2 13.6392909403 6.91643924377 0.0 0.0 0.0 0.0
593 2 15.6229909403 8.32599924377 0.0 0.0 0.0 0.0
594 2 13.2450909403 9.53098924377 0.0 0.0 0.0 0.0
595 2 19.0999909403 4.67465924377 0.0 0.0 0.0 0.0
596 2 20.4781909403 6.78691924377 0.0 0.0 0.0 0.0
597 2 18.0641909403 7.27195924377 0.0 0.0 0.0 0.0
598 2 24.9002909403 4.60497924377 0.0 0.0 0.0 0.0