ITEM: TIMESTEP
0
ITEM: NUMBER OF ATOMS
1350
ITEM: BOX BOUNDS xy xz yz pp pp pp
0.0 77.7712926547 0
0.0 81.5511382477 0
-10.0 10.0 0
ITEM: ATOMS id type x y z vx vy vz
1 1 3.05510410419 1.38840912385 0.0 0.0 0.0 0.0
2 1 8.37226410419 1.37723912385 0.0 0.0 0.0 0.0
3 1 13.7604841042 0.847269123847 0.0 0.0 0.0 0.0
4 1 19.2527841042 0.546878123847 0.0 0.0 0.0 0.0
5 1 23.8676841042 1.39137912385 0.0 0.0 0.0 0.0
6 1 28.7170841042 1.92441912385 0.0 0.0 0.0 0.0
7 1 33.6025841042 2.34699912385 0.0 0.0 0.0 0.0
8 1 39.2421841042 2.43150912385 0.0 0.0 0.0 0.0
9 1 46.4785841042 1.33070912385 0.0 0.0 0.0 0.0
10 1 49.4742841042 1.13400912385 0.0 0.0 0.0 0.0
11 1 54.3050841042 2.06774912385 0.0 0.0 0.0 0.0
12 1 59.6584841042 2.02870912385 0.0 0.0 0.0 0.0
13 1 65.0112841042 1.82229912385 0.0 0.0 0.0 0.0
14 1 70.2690841042 1.15794912385 0.0 0.0 0.0 0.0
15 1 75.4997841042 1.27374912385 0.0 0.0 0.0 0.0
16 1 0.360224104187 5.75216912385 0.0 0.0 0.0 0.0
17 1 5.64911410419 5.82927912385 0.0 0.0 0.0 0.0
18 1 12.8134841042 4.97244912385 0.0 0.0 0.0 0.0
19 1 15.8261841042 4.87909912385 0.0 0.0 0.0 0.0
20 1 20.3299841042 5.68568912385 0.0 0.0 0.0 0.0
21 1 25.4372841042 6.27032912385 0.0 0.0 0.0 0.0
22 1 30.5122841042 6.81430912385 0.0 0.0 0.0 0.0
23 1 34.7962841042 5.12210912385 0.0 0.0 0.0 0.0
24 1 41.6564841042 6.79314912385 0.0 0.0 0.0 0.0
25 1 46.3475841042 6.49292912385 0.0 0.0 0.0 0.0
26 1 51.6498841042 6.25912912385 0.0 0.0 0.0 0.0
27 1 57.0594841042 6.37851912385 0.0 0.0 0.0 0.0
28 1 60.9672841042 4.77491912385 0.0 0.0 0.0 0.0
29 1 67.8786841042 5.91707912385 0.0 0.0 0.0 0.0
30 1 73.0901841042 5.72022912385 0.0 0.0 0.0 0.0
31 1 2.27371410419 10.1841691238 0.0 0.0 0.0 0.0
32 1 7.65352410419 10.2372691238 0.0 0.0 0.0 0.0
33 1 12.8419841042 10.1260691238 0.0 0.0 0.0 0.0
34 1 17.8204841042 10.2529691238 0.0 0.0 0.0 0.0
35 1 23.0009841042 10.4880691238 0.0 0.0 0.0 0.0
36 1 27.9612841042 12.8037691238 0.0 0.0 0.0 0.0
37 1 33.5402841042 10.8061691238 0.0 0.0 0.0 0.0
38 1 38.9531841042 10.9288691238 0.0 0.0 0.0 0.0
39 1 44.0637841042 11.4713691238 0.0 0.0 0.0 0.0
40 1 49.2246841042 10.7426691238 0.0 0.0 0.0 0.0
41 1 54.6278841042 10.5754691238 0.0 0.0 0.0 0.0
42 1 59.9366841042 10.6309691238 0.0 0.0 0.0 0.0
43 1 65.0965841042 10.5113691238 0.0 0.0 0.0 0.0
44 1 70.3361841042 10.3054691238 0.0 0.0 0.0 0.0
45 1 75.4970841042 10.4064691238 0.0 0.0 0.0 0.0
46 1 77.6151841042 15.3124691238 0.0 0.0 0.0 0.0
47 1 4.81095410419 14.5030691238 0.0 0.0 0.0 0.0
48 1 10.3320841042 14.6527691238 0.0 0.0 0.0 0.0
49 1 15.1010841042 14.9408691238 0.0 0.0 0.0 0.0
50 1 20.5212841042 14.9430691238 0.0 0.0 0.0 0.0
51 1 26.1846841042 15.2478691238 0.0 0.0 0.0 0.0
52 1 31.4572841042 15.3756691238 0.0 0.0 0.0 0.0
53 1 36.9102841042 15.1511691238 0.0 0.0 0.0 0.0
54 1 42.2079841042 15.6889691238 0.0 0.0 0.0 0.0
55 1 47.3784841042 15.5258691238 0.0 0.0 0.0 0.0
56 1 52.5298841042 14.9020691238 0.0 0.0 0.0 0.0
57 1 56.5023841042 17.3982691238 0.0 0.0 0.0 0.0
58 1 62.1499841042 15.2432691238 0.0 0.0 0.0 0.0
59 1 69.4486841042 14.5008691238 0.0 0.0 0.0 0.0
60 1 72.4713841042 14.8816691238 0.0 0.0 0.0 0.0
61 1 4.63005410419 18.8262691238 0.0 0.0 0.0 0.0
62 1 7.67208410419 18.7132691238 0.0 0.0 0.0 0.0
63 1 12.2479841042 21.6324691238 0.0 0.0 0.0 0.0
64 1 17.5232841042 19.3061691238 0.0 0.0 0.0 0.0
65 1 23.1378841042 19.2066691238 0.0 0.0 0.0 0.0
66 1 28.7454841042 19.7470691238 0.0 0.0 0.0 0.0
67 1 34.2194841042 19.5159691238 0.0 0.0 0.0 0.0
68 1 39.6877841042 19.8395691238 0.0 0.0 0.0 0.0
69 1 46.4672841042 19.7606691238 0.0 0.0 0.0 0.0
70 1 49.5054841042 19.6897691238 0.0 0.0 0.0 0.0
71 1 54.5537841042 19.7845691238 0.0 0.0 0.0 0.0
72 1 59.3037841042 19.9015691238 0.0 0.0 0.0 0.0
73 1 64.4939841042 19.6456691238 0.0 0.0 0.0 0.0
74 1 69.6791841042 19.5661691238 0.0 0.0 0.0 0.0
75 1 74.9296841042 19.7801691238 0.0 0.0 0.0 0.0
76 1 77.5267841042 24.2033691238 0.0 0.0 0.0 0.0
77 1 4.90844410419 23.6223691238 0.0 0.0 0.0 0.0
78 1 10.7004841042 24.2416691238 0.0 0.0 0.0 0.0
79 1 16.5887841042 24.0598691238 0.0 0.0 0.0 0.0
80 1 21.4598841042 25.5173691238 0.0 0.0 0.0 0.0
81 1 26.5694841042 23.4714691238 0.0 0.0 0.0 0.0
82 1 32.0472841042 23.8357691238 0.0 0.0 0.0 0.0
83 1 36.8935841042 23.9174691238 0.0 0.0 0.0 0.0
84 1 40.9162841042 26.9464691238 0.0 0.0 0.0 0.0
85 1 46.3113841042 25.0299691238 0.0 0.0 0.0 0.0
86 1 51.4121841042 24.4839691238 0.0 0.0 0.0 0.0
87 1 56.1671841042 24.6261691238 0.0 0.0 0.0 0.0
88 1 61.0995841042 24.1077691238 0.0 0.0 0.0 0.0
89 1 66.3776841042 24.0047691238 0.0 0.0 0.0 0.0
90 1 72.1682841042 24.3387691238 0.0 0.0 0.0 0.0
91 1 2.95412410419 28.4004691238 0.0 0.0 0.0 0.0
92 1 8.11329410419 27.8301691238 0.0 0.0 0.0 0.0
93 1 12.3364841042 26.7955691238 0.0 0.0 0.0 0.0
94 1 19.9254841042 28.0891691238 0.0 0.0 0.0 0.0
95 1 26.4037841042 27.8693691238 0.0 0.0 0.0 0.0
96 1 29.3935841042 27.8709691238 0.0 0.0 0.0 0.0
97 1 34.3265841042 28.6740691238 0.0 0.0 0.0 0.0
98 1 39.2821841042 29.4711691238 0.0 0.0 0.0 0.0
99 1 44.0203841042 29.8519691238 0.0 0.0 0.0 0.0
100 1 49.2014841042 29.4694691238 0.0 0.0 0.0 0.0
101 1 54.4057841042 29.3941691238 0.0 0.0 0.0 0.0
102 1 59.6527841042 28.9048691238 0.0 0.0 0.0 0.0
103 1 64.8653841042 28.2111691238 0.0 0.0 0.0 0.0
104 1 70.1465841042 29.9380691238 0.0 0.0 0.0 0.0
105 1 75.3285841042 28.6351691238 0.0 0.0 0.0 0.0
106 1 1.00548410419 32.7608691238 0.0 0.0 0.0 0.0
107 1 6.09875410419 32.6061691238 0.0 0.0 0.0 0.0
108 1 11.2342841042 32.3495691238 0.0 0.0 0.0 0.0
109 1 17.8463841042 32.1933691238 0.0 0.0 0.0 0.0
110 1 20.7157841042 33.1038691238 0.0 0.0 0.0 0.0
111 1 25.8397841042 33.2071691238 0.0 0.0 0.0 0.0
112 1 31.3925841042 32.9321691238 0.0 0.0 0.0 0.0
113 1 36.3941841042 33.7308691238 0.0 0.0 0.0 0.0
114 1 41.5002841042 34.4694691238 0.0 0.0 0.0 0.0
115 1 46.6482841042 34.1375691238 0.0 0.0 0.0 0.0
116 1 50.4045841042 32.2800691238 0.0 0.0 0.0 0.0
117 1 57.4696841042 33.5758691238 0.0 0.0 0.0 0.0
118 1 62.5424841042 32.9899691238 0.0 0.0 0.0 0.0
119 1 68.2883841042 32.3741691238 0.0 0.0 0.0 0.0
120 1 73.6835841042 33.5519691238 0.0 0.0 0.0 0.0
121 1 3.28734410419 37.2570691238 0.0 0.0 0.0 0.0
122 1 8.24745410419 37.0273691238 0.0 0.0 0.0 0.0
123 1 13.0228841042 37.4349691238 0.0 0.0 0.0 0.0
124 1 17.8042841042 37.5167691238 0.0 0.0 0.0 0.0
125 1 24.8031841042 37.2774691238 0.0 0.0 0.0 0.0
126 1 27.7971841042 37.0591691238 0.0 0.0 0.0 0.0
127 1 32.9643841042 37.8782691238 0.0 0.0 0.0 0.0
128 1 39.3624841042 38.5729691238 0.0 0.0 0.0 0.0
129 1 44.7641841042 38.7743691238 0.0 0.0 0.0 0.0
130 1 49.6576841042 38.2328691238 0.0 0.0 0.0 0.0
131 1 54.4975841042 37.9601691238 0.0 0.0 0.0 0.0
132 1 59.8167841042 37.8672691238 0.0 0.0 0.0 0.0
133 1 64.9503841042 36.5077691238 0.0 0.0 0.0 0.0
134 1 69.1072841042 35.2855691238 0.0 0.0 0.0 0.0
135 1 76.0460841042 37.6161691238 0.0 0.0 0.0 0.0
136 1 0.238716104187 41.9819691238 0.0 0.0 0.0 0.0
137 1 5.43185410419 41.8054691238 0.0 0.0 0.0 0.0
138 1 10.3353841042 42.0245691238 0.0 0.0 0.0 0.0
139 1 15.1950841042 42.2930691238 0.0 0.0 0.0 0.0
140 1 20.0044841042 42.4644691238 0.0 0.0 0.0 0.0
141 1 24.6796841042 42.3031691238 0.0 0.0 0.0 0.0
142 1 29.8503841042 41.8930691238 0.0 0.0 0.0 0.0
143 1 34.4435841042 40.4942691238 0.0 0.0 0.0 0.0
144 1 42.0836841042 42.9866691238 0.0 0.0 0.0 0.0
145 1 47.0784841042 43.2825691238 0.0 0.0 0.0 0.0
146 1 52.0300841042 42.9714691238 0.0 0.0 0.0 0.0
147 1 56.8269841042 42.3608691238 0.0 0.0 0.0 0.0
148 1 64.4834841042 41.0058691238 0.0 0.0 0.0 0.0
149 1 67.4920841042 40.8961691238 0.0 0.0 0.0 0.0
150 1 72.5213841042 41.6469691238 0.0 0.0 0.0 0.0
151 1 2.72272410419 46.3863691238 0.0 0.0 0.0 0.0
152 1 7.75009410419 46.6381691238 0.0 0.0 0.0 0.0
153 1 12.6739841042 46.9151691238 0.0 0.0 0.0 0.0
154 1 17.7657841042 47.1530691238 0.0 0.0 0.0 0.0
155 1 22.9782841042 47.2103691238 0.0 0.0 0.0 0.0
156 1 27.8821841042 46.5703691238 0.0 0.0 0.0 0.0
157 1 32.9620841042 45.9005691238 0.0 0.0 0.0 0.0
158 1 38.2682841042 46.1992691238 0.0 0.0 0.0 0.0
159 1 43.4112841042 47.6739691238 0.0 0.0 0.0 0.0
160 1 49.3846841042 47.9003691238 0.0 0.0 0.0 0.0
161 1 55.2214841042 47.4759691238 0.0 0.0 0.0 0.0
162 1 59.9482841042 46.5897691238 0.0 0.0 0.0 0.0
163 1 64.8362841042 48.5052691238 0.0 0.0 0.0 0.0
164 1 69.7697841042 45.8938691238 0.0 0.0 0.0 0.0
165 1 75.1359841042 46.0329691238 0.0 0.0 0.0 0.0
166 1 0.0894841041875 50.5422691238 0.0 0.0 0.0 0.0
167 1 5.08885410419 51.1431691238 0.0 0.0 0.0 0.0
168 1 9.91488410419 51.4867691238 0.0 0.0 0.0 0.0
169 1 15.1581841042 51.6210691238 0.0 0.0 0.0 0.0
170 1 20.5593841042 51.6591691238 0.0 0.0 0.0 0.0
171 1 26.0966841042 51.5688691238 0.0 0.0 0.0 0.0
172 1 31.1560841042 50.7539691238 0.0 0.0 0.0 0.0
173 1 35.9478841042 50.3959691238 0.0 0.0 0.0 0.0
174 1 40.1194841042 53.5644691238 0.0 0.0 0.0 0.0
175 1 44.4798841042 50.4936691238 0.0 0.0 0.0 0.0
176 1 51.2283841042 50.2760691238 0.0 0.0 0.0 0.0
177 1 58.3207841042 51.7735691238 0.0 0.0 0.0 0.0
178 1 63.5497841042 51.2162691238 0.0 0.0 0.0 0.0
179 1 68.1960841042 51.1620691238 0.0 0.0 0.0 0.0
180 1 72.7986841042 50.2936691238 0.0 0.0 0.0 0.0
181 1 1.84255410419 55.3968691238 0.0 0.0 0.0 0.0
182 1 6.86484410419 56.0604691238 0.0 0.0 0.0 0.0
183 1 12.1976841042 56.0059691238 0.0 0.0 0.0 0.0
184 1 17.7321841042 55.9642691238 0.0 0.0 0.0 0.0
185 1 23.0506841042 55.7822691238 0.0 0.0 0.0 0.0
186 1 30.6148841042 55.2040691238 0.0 0.0 0.0 0.0
187 1 33.6316841042 55.3844691238 0.0 0.0 0.0 0.0
188 1 38.7703841042 56.2559691238 0.0 0.0 0.0 0.0
189 1 44.0358841042 56.0517691238 0.0 0.0 0.0 0.0
190 1 49.5104841042 55.6279691238 0.0 0.0 0.0 0.0
191 1 55.0203841042 56.0071691238 0.0 0.0 0.0 0.0
192 1 62.2481841042 55.7088691238 0.0 0.0 0.0 0.0
193 1 65.2448841042 56.0001691238 0.0 0.0 0.0 0.0
194 1 71.7785841042 55.3945691238 0.0 0.0 0.0 0.0
195 1 74.7353841042 54.9550691238 0.0 0.0 0.0 0.0
196 1 77.1468841042 59.8897691238 0.0 0.0 0.0 0.0
197 1 3.96836410419 62.3322691238 0.0 0.0 0.0 0.0
198 1 9.44328410419 60.4331691238 0.0 0.0 0.0 0.0
199 1 14.9462841042 60.1577691238 0.0 0.0 0.0 0.0
200 1 20.5867841042 60.2735691238 0.0 0.0 0.0 0.0
201 1 25.5216841042 60.3911691238 0.0 0.0 0.0 0.0
202 1 30.5358841042 62.5778691238 0.0 0.0 0.0 0.0
203 1 35.9080841042 60.3952691238 0.0 0.0 0.0 0.0
204 1 41.3141841042 60.6395691238 0.0 0.0 0.0 0.0
205 1 46.6221841042 60.1341691238 0.0 0.0 0.0 0.0
206 1 52.0707841042 60.1160691238 0.0 0.0 0.0 0.0
207 1 57.1463841042 61.0429691238 0.0 0.0 0.0 0.0
208 1 61.7638841042 60.6418691238 0.0 0.0 0.0 0.0
209 1 67.0218841042 60.9741691238 0.0 0.0 0.0 0.0
210 1 71.9119841042 60.7500691238 0.0 0.0 0.0 0.0
211 1 2.46041410419 64.9366691238 0.0 0.0 0.0 0.0
212 1 7.46982410419 65.1166691238 0.0 0.0 0.0 0.0
213 1 12.5857841042 64.4880691238 0.0 0.0 0.0 0.0
214 1 17.9474841042 64.2321691238 0.0 0.0 0.0 0.0
215 1 23.3714841042 65.0415691238 0.0 0.0 0.0 0.0
216 1 28.9723841042 65.1590691238 0.0 0.0 0.0 0.0
217 1 33.7059841042 65.3002691238 0.0 0.0 0.0 0.0
218 1 38.7983841042 64.9045691238 0.0 0.0 0.0 0.0
219 1 44.0350841042 64.8426691238 0.0 0.0 0.0 0.0
220 1 49.3329841042 64.4389691238 0.0 0.0 0.0 0.0
221 1 54.5501841042 65.1402691238 0.0 0.0 0.0 0.0
222 1 61.2724841042 65.2950691238 0.0 0.0 0.0 0.0
223 1 64.2906841042 65.2591691238 0.0 0.0 0.0 0.0
224 1 69.3679841042 65.6125691238 0.0 0.0 0.0 0.0
225 1 74.8125841042 64.7641691238 0.0 0.0 0.0 0.0
226 1 77.5861841042 69.1982691238 0.0 0.0 0.0 0.0
227 1 5.02122410419 69.6643691238 0.0 0.0 0.0 0.0
228 1 10.3873841042 69.3119691238 0.0 0.0 0.0 0.0
229 1 15.7417841042 68.6702691238 0.0 0.0 0.0 0.0
230 1 20.9511841042 70.3195691238 0.0 0.0 0.0 0.0
231 1 26.5862841042 69.2376691238 0.0 0.0 0.0 0.0
232 1 31.1146841042 70.1011691238 0.0 0.0 0.0 0.0
233 1 35.9039841042 69.6654691238 0.0 0.0 0.0 0.0
234 1 41.0443841042 69.3772691238 0.0 0.0 0.0 0.0
235 1 47.9018841042 68.8557691238 0.0 0.0 0.0 0.0
236 1 50.9061841042 69.1386691238 0.0 0.0 0.0 0.0
237 1 55.7523841042 70.0665691238 0.0 0.0 0.0 0.0
238 1 60.8190841042 70.6578691238 0.0 0.0 0.0 0.0
239 1 67.0176841042 70.1095691238 0.0 0.0 0.0 0.0
240 1 72.4194841042 69.4339691238 0.0 0.0 0.0 0.0
241 1 2.50653410419 73.9222691238 0.0 0.0 0.0 0.0
242 1 7.65737410419 73.8342691238 0.0 0.0 0.0 0.0
243 1 12.7398841042 73.2886691238 0.0 0.0 0.0 0.0
244 1 20.8024841042 73.2954691238 0.0 0.0 0.0 0.0
245 1 23.7698841042 73.5702691238 0.0 0.0 0.0 0.0
246 1 28.3573841042 74.6224691238 0.0 0.0 0.0 0.0
247 1 33.6476841042 74.7127691238 0.0 0.0 0.0 0.0
248 1 38.3409841042 74.0744691238 0.0 0.0 0.0 0.0
249 1 42.6056841042 76.7672691238 0.0 0.0 0.0 0.0
250 1 47.6352841042 73.7880691238 0.0 0.0 0.0 0.0
251 1 53.3702841042 74.3103691238 0.0 0.0 0.0 0.0
252 1 58.5063841042 74.9012691238 0.0 0.0 0.0 0.0
253 1 62.6357841042 73.0803691238 0.0 0.0 0.0 0.0
254 1 69.9074841042 74.0649691238 0.0 0.0 0.0 0.0
255 1 75.1347841042 73.8732691238 0.0 0.0 0.0 0.0
256 1 0.362164104187 2.74255912385 0.0 0.0 0.0 0.0
257 1 5.71743410419 2.81576912385 0.0 0.0 0.0 0.0
258 1 11.2072841042 2.43450912385 0.0 0.0 0.0 0.0
259 1 16.5671841042 1.94893912385 0.0 0.0 0.0 0.0
260 1 21.2133841042 2.80603912385 0.0 0.0 0.0 0.0
261 1 26.0989841042 3.36369912385 0.0 0.0 0.0 0.0
262 1 30.9986841042 3.84326912385 0.0 0.0 0.0 0.0
263 1 37.7886841042 5.09114912385 0.0 0.0 0.0 0.0
264 1 41.9126841042 3.80598912385 0.0 0.0 0.0 0.0
265 1 44.9084841042 3.86584912385 0.0 0.0 0.0 0.0
266 1 51.5632841042 3.27277912385 0.0 0.0 0.0 0.0
267 1 56.9881841042 3.38249912385 0.0 0.0 0.0 0.0
268 1 63.9651841042 4.68872912385 0.0 0.0 0.0 0.0
269 1 67.8177841042 2.89999912385 0.0 0.0 0.0 0.0
270 1 72.8571841042 2.71303912385 0.0 0.0 0.0 0.0
271 1 2.97199410419 7.24530912385 0.0 0.0 0.0 0.0
272 1 8.27670410419 7.31066912385 0.0 0.0 0.0 0.0
273 1 11.2865841042 7.54458912385 0.0 0.0 0.0 0.0
274 1 17.7370841042 7.21754912385 0.0 0.0 0.0 0.0
275 1 22.7082841042 7.50557912385 0.0 0.0 0.0 0.0
276 1 27.7929841042 8.10730912385 0.0 0.0 0.0 0.0
277 1 33.3511841042 7.78644912385 0.0 0.0 0.0 0.0
278 1 38.8872841042 7.90577912385 0.0 0.0 0.0 0.0
279 1 44.1203841042 8.48294912385 0.0 0.0 0.0 0.0
280 1 49.0596841042 7.75185912385 0.0 0.0 0.0 0.0
281 1 54.3287841042 7.60031912385 0.0 0.0 0.0 0.0
282 1 59.8043841042 7.58620912385 0.0 0.0 0.0 0.0
283 1 65.2803841042 7.44280912385 0.0 0.0 0.0 0.0
284 1 70.5379841042 7.30832912385 0.0 0.0 0.0 0.0
285 1 75.6015841042 7.38811912385 0.0 0.0 0.0 0.0
286 1 0.0872061041875 12.2767691238 0.0 0.0 0.0 0.0
287 1 4.94908410419 11.5191691238 0.0 0.0 0.0 0.0
288 1 10.2824841042 11.6725691238 0.0 0.0 0.0 0.0
289 1 15.2841841042 11.9042691238 0.0 0.0 0.0 0.0
290 1 20.3487841042 11.9251691238 0.0 0.0 0.0 0.0
291 1 26.0172841042 10.5329691238 0.0 0.0 0.0 0.0
292 1 30.9687841042 12.4165691238 0.0 0.0 0.0 0.0
293 1 36.2284841042 12.2103691238 0.0 0.0 0.0 0.0
294 1 41.3642841042 12.7787691238 0.0 0.0 0.0 0.0
295 1 46.8513841042 12.5764691238 0.0 0.0 0.0 0.0
296 1 51.9632841042 11.9642691238 0.0 0.0 0.0 0.0
297 1 57.2429841042 12.0597691238 0.0 0.0 0.0 0.0
298 1 62.5399841042 12.2031691238 0.0 0.0 0.0 0.0
299 1 67.8053841042 11.9338691238 0.0 0.0 0.0 0.0
300 1 72.8904841042 11.9016691238 0.0 0.0 0.0 0.0
301 1 2.62177410419 16.5470691238 0.0 0.0 0.0 0.0
302 1 7.54399410419 15.7265691238 0.0 0.0 0.0 0.0
303 1 12.5738841042 16.6360691238 0.0 0.0 0.0 0.0
304 1 17.8039841042 16.2985691238 0.0 0.0 0.0 0.0
305 1 23.2927841042 16.1895691238 0.0 0.0 0.0 0.0
306 1 28.7818841042 16.7582691238 0.0 0.0 0.0 0.0
307 1 34.2355841042 16.5219691238 0.0 0.0 0.0 0.0
308 1 39.4271841042 16.8392691238 0.0 0.0 0.0 0.0
309 1 44.8670841042 17.1827691238 0.0 0.0 0.0 0.0
310 1 50.1351841042 16.7434691238 0.0 0.0 0.0 0.0
311 1 55.5326841042 14.5647691238 0.0 0.0 0.0 0.0
312 1 59.5303841042 16.9035691238 0.0 0.0 0.0 0.0
313 1 64.8612841042 16.6713691238 0.0 0.0 0.0 0.0
314 1 67.8963841042 17.0770691238 0.0 0.0 0.0 0.0
315 1 74.9099841042 16.7245691238 0.0 0.0 0.0 0.0
316 1 77.6486841042 21.1977691238 0.0 0.0 0.0 0.0
317 1 2.93355410419 21.3055691238 0.0 0.0 0.0 0.0
318 1 10.7043841042 19.0381691238 0.0 0.0 0.0 0.0
319 1 15.2683841042 21.3491691238 0.0 0.0 0.0 0.0
320 1 20.3450841042 20.3830691238 0.0 0.0 0.0 0.0
321 1 25.8446841042 20.5628691238 0.0 0.0 0.0 0.0
322 1 31.5413841042 20.8790691238 0.0 0.0 0.0 0.0
323 1 36.8746841042 20.9223691238 0.0 0.0 0.0 0.0
324 1 41.8961841042 21.9040691238 0.0 0.0 0.0 0.0
325 1 44.9036841042 22.3402691238 0.0 0.0 0.0 0.0
326 1 51.9705841042 21.4592691238 0.0 0.0 0.0 0.0
327 1 56.8670841042 21.6915691238 0.0 0.0 0.0 0.0
328 1 61.9624841042 21.2466691238 0.0 0.0 0.0 0.0
329 1 67.1125841042 21.1111691238 0.0 0.0 0.0 0.0
330 1 72.2383841042 21.2589691238 0.0 0.0 0.0 0.0
331 1 2.51149410419 25.4353691238 0.0 0.0 0.0 0.0
332 1 7.72054410419 24.8257691238 0.0 0.0 0.0 0.0
333 1 15.3527841042 26.8218691238 0.0 0.0 0.0 0.0
334 1 19.4936841042 23.2630691238 0.0 0.0 0.0 0.0
335 1 24.4603841042 25.5871691238 0.0 0.0 0.0 0.0
336 1 29.2388841042 24.8734691238 0.0 0.0 0.0 0.0
337 1 34.4442841042 25.6604691238 0.0 0.0 0.0 0.0
338 1 39.8848841042 24.1451691238 0.0 0.0 0.0 0.0
339 1 43.9204841042 26.8649691238 0.0 0.0 0.0 0.0
340 1 49.0362841042 26.3988691238 0.0 0.0 0.0 0.0
341 1 53.7440841042 26.4207691238 0.0 0.0 0.0 0.0
342 1 58.8104841042 26.0289691238 0.0 0.0 0.0 0.0
343 1 63.7625841042 25.4334691238 0.0 0.0 0.0 0.0
344 1 67.4958841042 26.7729691238 0.0 0.0 0.0 0.0
345 1 74.8891841042 25.6533691238 0.0 0.0 0.0 0.0
346 1 0.319444104187 29.8392691238 0.0 0.0 0.0 0.0
347 1 5.70179410419 29.6247691238 0.0 0.0 0.0 0.0
348 1 10.7298841042 29.3492691238 0.0 0.0 0.0 0.0
349 1 17.1569841042 29.2454691238 0.0 0.0 0.0 0.0
350 1 21.8765841042 30.3513691238 0.0 0.0 0.0 0.0
351 1 24.8558841042 30.4031691238 0.0 0.0 0.0 0.0
352 1 31.5933841042 29.9259691238 0.0 0.0 0.0 0.0
353 1 36.5453841042 30.7119691238 0.0 0.0 0.0 0.0
354 1 41.5048841042 31.4741691238 0.0 0.0 0.0 0.0
355 1 46.7082841042 31.1352691238 0.0 0.0 0.0 0.0
356 1 53.3947841042 32.2482691238 0.0 0.0 0.0 0.0
357 1 57.1689841042 30.5811691238 0.0 0.0 0.0 0.0
358 1 62.4504841042 29.9947691238 0.0 0.0 0.0 0.0
359 1 70.4851841042 26.9055691238 0.0 0.0 0.0 0.0
360 1 73.0677841042 30.6217691238 0.0 0.0 0.0 0.0
361 1 3.59703410419 34.2682691238 0.0 0.0 0.0 0.0
362 1 8.73637410419 34.0475691238 0.0 0.0 0.0 0.0
363 1 13.4158841042 34.4523691238 0.0 0.0 0.0 0.0
364 1 16.4082841042 34.8262691238 0.0 0.0 0.0 0.0
365 1 23.2471841042 34.7232691238 0.0 0.0 0.0 0.0
366 1 28.6661841042 34.1937691238 0.0 0.0 0.0 0.0
367 1 33.6378841042 34.9404691238 0.0 0.0 0.0 0.0
368 1 38.7351841042 35.6326691238 0.0 0.0 0.0 0.0
369 1 44.1775841042 35.8308691238 0.0 0.0 0.0 0.0
370 1 49.4540841042 35.1830691238 0.0 0.0 0.0 0.0
371 1 54.7897841042 34.9367691238 0.0 0.0 0.0 0.0
372 1 60.1790841042 34.8716691238 0.0 0.0 0.0 0.0
373 1 65.4945841042 33.5446691238 0.0 0.0 0.0 0.0
374 1 71.9962841042 36.0263691238 0.0 0.0 0.0 0.0
375 1 76.4585841042 34.6498691238 0.0 0.0 0.0 0.0
376 1 0.888204104187 39.0580691238 0.0 0.0 0.0 0.0
377 1 5.83741410419 38.8242691238 0.0 0.0 0.0 0.0
378 1 10.4854841042 39.0219691238 0.0 0.0 0.0 0.0
379 1 15.3846841042 39.2916691238 0.0 0.0 0.0 0.0
380 1 20.1243841042 39.4561691238 0.0 0.0 0.0 0.0
381 1 23.1179841042 39.7369691238 0.0 0.0 0.0 0.0
382 1 30.1440841042 38.9122691238 0.0 0.0 0.0 0.0
383 1 37.4177841042 40.8494691238 0.0 0.0 0.0 0.0
384 1 42.0225841042 39.9852691238 0.0 0.0 0.0 0.0
385 1 47.3882841042 40.2556691238 0.0 0.0 0.0 0.0
386 1 52.1726841042 39.9175691238 0.0 0.0 0.0 0.0
387 1 57.1752841042 39.3561691238 0.0 0.0 0.0 0.0
388 1 62.7487841042 38.5479691238 0.0 0.0 0.0 0.0
389 1 67.6037841042 37.8911691238 0.0 0.0 0.0 0.0
390 1 73.2662841042 38.7375691238 0.0 0.0 0.0 0.0
391 1 2.88289410419 43.3935691238 0.0 0.0 0.0 0.0
392 1 7.80740410419 43.6342691238 0.0 0.0 0.0 0.0
393 1 12.6700841042 43.9064691238 0.0 0.0 0.0 0.0
394 1 17.5404841042 44.1587691238 0.0 0.0 0.0 0.0
395 1 22.4184841042 44.2584691238 0.0 0.0 0.0 0.0
396 1 27.3867841042 43.6016691238 0.0 0.0 0.0 0.0
397 1 32.6667841042 42.9148691238 0.0 0.0 0.0 0.0
398 1 39.1019841042 43.3304691238 0.0 0.0 0.0 0.0
399 1 44.4681841042 44.8333691238 0.0 0.0 0.0 0.0
400 1 49.6517841042 44.8675691238 0.0 0.0 0.0 0.0
401 1 54.6573841042 44.4786691238 0.0 0.0 0.0 0.0
402 1 59.5507841042 43.6219691238 0.0 0.0 0.0 0.0
403 1 62.5274841042 43.2697691238 0.0 0.0 0.0 0.0
404 1 69.7677841042 42.8771691238 0.0 0.0 0.0 0.0
405 1 75.1920841042 43.0347691238 0.0 0.0 0.0 0.0
406 1 77.7289841042 47.5485691238 0.0 0.0 0.0 0.0
407 1 5.15569410419 48.1411691238 0.0 0.0 0.0 0.0
408 1 10.1144841042 48.4847691238 0.0 0.0 0.0 0.0
409 1 15.1475841042 48.6171691238 0.0 0.0 0.0 0.0
410 1 20.3588841042 48.6676691238 0.0 0.0 0.0 0.0
411 1 25.6547841042 48.5867691238 0.0 0.0 0.0 0.0
412 1 30.6308841042 47.7898691238 0.0 0.0 0.0 0.0
413 1 35.5387841042 47.4261691238 0.0 0.0 0.0 0.0
414 1 40.4574841042 48.2455691238 0.0 0.0 0.0 0.0
415 1 47.4703841042 50.2364691238 0.0 0.0 0.0 0.0
416 1 54.2147841042 50.3299691238 0.0 0.0 0.0 0.0
417 1 57.9264841042 48.7877691238 0.0 0.0 0.0 0.0
418 1 62.9097841042 46.2300691238 0.0 0.0 0.0 0.0
419 1 67.8144841042 48.1830691238 0.0 0.0 0.0 0.0
420 1 72.4218841042 47.3141691238 0.0 0.0 0.0 0.0
421 1 2.39422410419 52.4495691238 0.0 0.0 0.0 0.0
422 1 7.36981410419 53.0898691238 0.0 0.0 0.0 0.0
423 1 12.4949841042 53.0182691238 0.0 0.0 0.0 0.0
424 1 17.8489841042 52.9662691238 0.0 0.0 0.0 0.0
425 1 23.3450841042 52.7999691238 0.0 0.0 0.0 0.0
426 1 28.8925841042 52.7209691238 0.0 0.0 0.0 0.0
427 1 33.6972841042 52.3734691238 0.0 0.0 0.0 0.0
428 1 38.9142841042 50.8237691238 0.0 0.0 0.0 0.0
429 1 43.1090841042 53.1888691238 0.0 0.0 0.0 0.0
430 1 49.3320841042 52.6015691238 0.0 0.0 0.0 0.0
431 1 55.5926841042 53.0272691238 0.0 0.0 0.0 0.0
432 1 61.0933841042 52.9303691238 0.0 0.0 0.0 0.0
433 1 65.8945841042 53.0766691238 0.0 0.0 0.0 0.0
434 1 70.8338841042 52.5523691238 0.0 0.0 0.0 0.0
435 1 75.2545841042 52.0022691238 0.0 0.0 0.0 0.0
436 1 77.0098841042 56.8940691238 0.0 0.0 0.0 0.0
437 1 4.12805410419 57.3322691238 0.0 0.0 0.0 0.0
438 1 9.54118410419 57.4313691238 0.0 0.0 0.0 0.0
439 1 14.9727841042 57.1626691238 0.0 0.0 0.0 0.0
440 1 20.4422841042 57.2730691238 0.0 0.0 0.0 0.0
441 1 25.5744841042 57.3964691238 0.0 0.0 0.0 0.0
442 1 28.5682841042 57.3870691238 0.0 0.0 0.0 0.0
443 1 35.9437841042 57.3566691238 0.0 0.0 0.0 0.0
444 1 41.4552841042 57.6343691238 0.0 0.0 0.0 0.0
445 1 46.8640841042 57.1191691238 0.0 0.0 0.0 0.0
446 1 52.1816841042 57.0856691238 0.0 0.0 0.0 0.0
447 1 57.2973841042 58.0248691238 0.0 0.0 0.0 0.0
448 1 60.3148841042 58.0010691238 0.0 0.0 0.0 0.0
449 1 67.4807841042 58.0153691238 0.0 0.0 0.0 0.0
450 1 70.4861841042 58.0958691238 0.0 0.0 0.0 0.0
451 1 2.38882410419 59.7942691238 0.0 0.0 0.0 0.0
452 1 6.97409410419 62.1622691238 0.0 0.0 0.0 0.0
453 1 12.2562841042 61.5075691238 0.0 0.0 0.0 0.0
454 1 17.7469841042 61.2495691238 0.0 0.0 0.0 0.0
455 1 23.0229841042 62.0492691238 0.0 0.0 0.0 0.0
456 1 28.5132841042 60.3758691238 0.0 0.0 0.0 0.0
457 1 33.5379841042 62.2934691238 0.0 0.0 0.0 0.0
458 1 38.5545841042 61.8873691238 0.0 0.0 0.0 0.0
459 1 44.0975841042 61.8204691238 0.0 0.0 0.0 0.0
460 1 49.3504841042 61.4282691238 0.0 0.0 0.0 0.0
461 1 54.3418841042 62.1242691238 0.0 0.0 0.0 0.0
462 1 59.6379841042 62.7529691238 0.0 0.0 0.0 0.0
463 1 64.3120841042 62.2453691238 0.0 0.0 0.0 0.0
464 1 69.5421841042 62.6066691238 0.0 0.0 0.0 0.0
465 1 74.7609841042 61.7439691238 0.0 0.0 0.0 0.0
466 1 77.4830841042 66.1795691238 0.0 0.0 0.0 0.0
467 1 4.90548410419 66.6730691238 0.0 0.0 0.0 0.0
468 1 10.2119841042 66.3198691238 0.0 0.0 0.0 0.0
469 1 15.3274841042 65.7013691238 0.0 0.0 0.0 0.0
470 1 20.4627841042 65.8644691238 0.0 0.0 0.0 0.0
471 1 26.1564841042 66.2490691238 0.0 0.0 0.0 0.0
472 1 31.2766841042 67.0884691238 0.0 0.0 0.0 0.0
473 1 36.3635841042 66.6876691238 0.0 0.0 0.0 0.0
474 1 41.4319841042 66.3809691238 0.0 0.0 0.0 0.0
475 1 46.7956841042 66.0570691238 0.0 0.0 0.0 0.0
476 1 51.7470841042 66.2449691238 0.0 0.0 0.0 0.0
477 1 56.7413841042 67.2302691238 0.0 0.0 0.0 0.0
478 1 59.7041841042 67.8502691238 0.0 0.0 0.0 0.0
479 1 66.7161841042 67.0888691238 0.0 0.0 0.0 0.0
480 1 72.2797841042 66.4254691238 0.0 0.0 0.0 0.0
481 1 2.29212410419 70.9198691238 0.0 0.0 0.0 0.0
482 1 7.78891410419 70.8355691238 0.0 0.0 0.0 0.0
483 1 13.2187841042 70.3248691238 0.0 0.0 0.0 0.0
484 1 18.7331841042 68.3291691238 0.0 0.0 0.0 0.0
485 1 23.9213841042 70.5837691238 0.0 0.0 0.0 0.0
486 1 28.4958841042 71.5841691238 0.0 0.0 0.0 0.0
487 1 33.6672841042 71.6878691238 0.0 0.0 0.0 0.0
488 1 38.5451841042 71.0693691238 0.0 0.0 0.0 0.0
489 1 43.0743841042 71.5887691238 0.0 0.0 0.0 0.0
490 1 46.0676841042 71.2320691238 0.0 0.0 0.0 0.0
491 1 53.0184841042 71.3045691238 0.0 0.0 0.0 0.0
492 1 58.1082841042 71.9302691238 0.0 0.0 0.0 0.0
493 1 65.6358841042 72.8095691238 0.0 0.0 0.0 0.0
494 1 69.8771841042 71.0520691238 0.0 0.0 0.0 0.0
495 1 75.0712841042 70.8591691238 0.0 0.0 0.0 0.0
496 1 77.6958841042 75.4590691238 0.0 0.0 0.0 0.0
497 1 5.11228410419 75.4338691238 0.0 0.0 0.0 0.0
498 1 10.3614841042 75.1313691238 0.0 0.0 0.0 0.0
499 1 15.2844841042 74.8561691238 0.0 0.0 0.0 0.0
500 1 18.2606841042 74.8420691238 0.0 0.0 0.0 0.0
501 1 25.6163841042 75.9195691238 0.0 0.0 0.0 0.0
502 1 30.9847841042 76.1398691238 0.0 0.0 0.0 0.0
503 1 36.2459841042 76.2616691238 0.0 0.0 0.0 0.0
504 1 41.3416841042 74.0608691238 0.0 0.0 0.0 0.0
505 1 45.4735841042 75.8751691238 0.0 0.0 0.0 0.0
506 1 50.4206841042 74.9403691238 0.0 0.0 0.0 0.0
507 1 55.7857841042 76.1739691238 0.0 0.0 0.0 0.0
508 1 61.3735841042 75.8386691238 0.0 0.0 0.0 0.0
509 1 67.2064841042 75.4018691238 0.0 0.0 0.0 0.0
510 1 72.5733841042 75.4557691238 0.0 0.0 0.0 0.0
511 1 5.33753410419 78.4382691238 0.0 0.0 0.0 0.0
512 1 10.3595841042 78.1399691238 0.0 0.0 0.0 0.0
513 1 15.5214841042 77.8387691238 0.0 0.0 0.0 0.0
514 1 20.9310841042 79.5679691238 0.0 0.0 0.0 0.0
515 1 25.6248841042 80.5001691238 0.0 0.0 0.0 0.0
516 1 31.3380841042 79.1444691238 0.0 0.0 0.0 0.0
517 1 36.4435841042 79.2962691238 0.0 0.0 0.0 0.0
518 1 41.7094841042 79.6433691238 0.0 0.0 0.0 0.0
519 1 46.7889841042 78.5482691238 0.0 0.0 0.0 0.0
520 1 51.3407841042 80.3331691238 0.0 0.0 0.0 0.0
521 1 56.8491841042 79.0140691238 0.0 0.0 0.0 0.0
522 1 61.9870841042 78.8191691238 0.0 0.0 0.0 0.0
523 1 67.0096841042 78.4400691238 0.0 0.0 0.0 0.0
524 1 72.4972841042 78.4637691238 0.0 0.0 0.0 0.0
525 1 0.103047104187 78.4644691238 0.0 0.0 0.0 0.0
526 1 2.73346410419 79.9445691238 0.0 0.0 0.0 0.0
527 1 7.95025410419 79.9408691238 0.0 0.0 0.0 0.0
528 1 13.0361841042 79.4960691238 0.0 0.0 0.0 0.0
529 1 18.5060841042 77.8172691238 0.0 0.0 0.0 0.0
530 1 23.6690841042 78.2410691238 0.0 0.0 0.0 0.0
531 1 28.6364841042 80.4847691238 0.0 0.0 0.0 0.0
532 1 33.8447841042 80.8634691238 0.0 0.0 0.0 0.0
533 1 38.9818841042 80.9604691238 0.0 0.0 0.0 0.0
534 1 44.5749841042 80.5734691238 0.0 0.0 0.0 0.0
535 1 49.6979841042 77.8468691238 0.0 0.0 0.0 0.0
536 1 54.3205841042 80.6302691238 0.0 0.0 0.0 0.0
537 1 59.4885841042 80.5368691238 0.0 0.0 0.0 0.0
538 1 64.6241841042 80.3362691238 0.0 0.0 0.0 0.0
539 1 69.7558841042 79.7330691238 0.0 0.0 0.0 0.0
540 1 75.1900841042 79.8322691238 0.0 0.0 0.0 0.0
541 2 2.90074410419 81.4404691238 0.0 0.0 0.0 0.0
542 2 1.71404410419 2.07962912385 0.0 0.0 0.0 0.0
543 2 4.39139410419 2.08997912385 0.0 0.0 0.0 0.0
544 2 8.16752410419 81.4308691238 0.0 0.0 0.0 0.0
545 2 9.77548410419 1.95279912385 0.0 0.0 0.0 0.0
546 2 7.06025410419 2.12456912385 0.0 0.0 0.0 0.0
547 2 13.3989841042 80.9432691238 0.0 0.0 0.0 0.0
548 2 15.1808841042 1.33900912385 0.0 0.0 0.0 0.0
549 2 12.4608841042 1.59829912385 0.0 0.0 0.0 0.0
550 2 20.1226841042 80.8580691238 0.0 0.0 0.0 0.0
551 2 20.1907841042 1.71710912385 0.0 0.0 0.0 0.0
552 2 17.8589841042 1.16122912385 0.0 0.0 0.0 0.0
553 2 24.6968841042 0.138827123847 0.0 0.0 0.0 0.0
554 2 24.9443841042 2.42903912385 0.0 0.0 0.0 0.0
555 2 22.5361841042 2.08059912385 0.0 0.0 0.0 0.0
556 2 28.7539841042 0.435307123847 0.0 0.0 0.0 0.0
557 2 29.8584841042 2.87834912385 0.0 0.0 0.0 0.0
558 2 27.4154841042 2.66380912385 0.0 0.0 0.0 0.0
559 2 33.7810841042 0.838569123847 0.0 0.0 0.0 0.0
560 2 34.3071841042 3.69293912385 0.0 0.0 0.0 0.0
561 2 32.2611841042 3.04040912385 0.0 0.0 0.0 0.0
562 2 39.0388841042 0.930749123847 0.0 0.0 0.0 0.0
563 2 40.6551841042 2.99135912385 0.0 0.0 0.0 0.0
564 2 38.4455841042 3.72333912385 0.0 0.0 0.0 0.0
565 2 45.7400841042 2.62752912385 0.0 0.0 0.0 0.0
566 2 45.4646841042 0.231617123847 0.0 0.0 0.0 0.0
567 2 47.9771841042 1.21942912385 0.0 0.0 0.0 0.0
568 2 50.3748841042 81.4852691238 0.0 0.0 0.0 0.0
569 2 50.4286841042 2.29820912385 0.0 0.0 0.0 0.0
570 2 54.3710841042 0.575844123847 0.0 0.0 0.0 0.0
571 2 52.9482841042 2.69428912385 0.0 0.0 0.0 0.0
572 2 55.6345841042 2.74765912385 0.0 0.0 0.0 0.0
573 2 59.6455841042 0.506768123847 0.0 0.0 0.0 0.0
574 2 60.3967841042 3.36207912385 0.0 0.0 0.0 0.0
575 2 58.2704841042 2.62212912385 0.0 0.0 0.0 0.0
576 2 64.7458841042 0.313625123847 0.0 0.0 0.0 0.0
577 2 66.4570841042 2.26718912385 0.0 0.0 0.0 0.0
578 2 64.4149841042 3.22907912385 0.0 0.0 0.0 0.0
579 2 70.0012841042 81.2277691238 0.0 0.0 0.0 0.0
580 2 71.5760841042 1.91593912385 0.0 0.0 0.0 0.0
581 2 69.0466841042 2.03799912385 0.0 0.0 0.0 0.0
582 2 75.3474841042 81.3292691238 0.0 0.0 0.0 0.0
583 2 76.8232841042 1.99481912385 0.0 0.0 0.0 0.0
584 2 74.1827841042 2.00126912385 0.0 0.0 0.0 0.0
585 2 0.343704104187 4.24837912385 0.0 0.0 0.0 0.0
586 2 1.68622410419 6.45754912385 0.0 0.0 0.0 0.0
587 2 76.8750841042 6.58363912385 0.0 0.0 0.0 0.0
588 2 4.32284410419 6.56245912385 0.0 0.0 0.0 0.0
589 2 7.00482410419 6.50008912385 0.0 0.0 0.0 0.0
590 2 5.68076410419 4.32186912385 0.0 0.0 0.0 0.0
591 2 12.0666841042 6.26726912385 0.0 0.0 0.0 0.0
592 2 11.9153841042 3.76653912385 0.0 0.0 0.0 0.0
593 2 14.3179841042 4.95777912385 0.0 0.0 0.0 0.0
594 2 16.3079841042 3.44436912385 0.0 0.0 0.0 0.0
595 2 16.7035841042 6.10827912385 0.0 0.0 0.0 0.0
596 2 20.7545841042 4.23874912385 0.0 0.0 0.0 0.0
597 2 21.5099841042 6.61639912385 0.0 0.0 0.0 0.0
598 2 19.0361841042 6.44293912385 0.0 0.0 0.0 0.0