ITEM: TIMESTEP
0
ITEM: NUMBER OF ATOMS
1350
ITEM: BOX BOUNDS xy xz yz pp pp pp
0.0 78.2160700333 0
0.0 81.2166552952 0
-10.0 10.0 0
ITEM: ATOMS id type x y z vx vy vz
1 1 3.11372279352 1.17579764761 0.0 0.0 0.0 0.0
2 1 8.27210279352 0.839857647607 0.0 0.0 0.0 0.0
3 1 13.2080727935 1.24439764761 0.0 0.0 0.0 0.0
4 1 18.2429727935 2.10895764761 0.0 0.0 0.0 0.0
5 1 25.7252727935 0.240228647607 0.0 0.0 0.0 0.0
6 1 28.7108727935 81.0610276476 0.0 0.0 0.0 0.0
7 1 33.9850727935 0.711607647607 0.0 0.0 0.0 0.0
8 1 38.7080727935 1.33791764761 0.0 0.0 0.0 0.0
9 1 45.9128727935 0.523797647607 0.0 0.0 0.0 0.0
10 1 48.8344727935 1.36848764761 0.0 0.0 0.0 0.0
11 1 55.0971727935 2.61297764761 0.0 0.0 0.0 0.0
12 1 60.7161727935 2.47047764761 0.0 0.0 0.0 0.0
13 1 65.9732727935 2.81783764761 0.0 0.0 0.0 0.0
14 1 71.2937727935 2.22878764761 0.0 0.0 0.0 0.0
15 1 76.2883727935 1.81148764761 0.0 0.0 0.0 0.0
16 1 1.45458279352 6.01442764761 0.0 0.0 0.0 0.0
17 1 6.26285279352 5.48489764761 0.0 0.0 0.0 0.0
18 1 10.3030727935 8.25351764761 0.0 0.0 0.0 0.0
19 1 15.4360727935 6.25874764761 0.0 0.0 0.0 0.0
20 1 19.5117727935 4.84948764761 0.0 0.0 0.0 0.0
21 1 26.5820727935 5.19060764761 0.0 0.0 0.0 0.0
22 1 30.0984727935 7.14217764761 0.0 0.0 0.0 0.0
23 1 35.3722727935 5.79451764761 0.0 0.0 0.0 0.0
24 1 40.3329727935 5.92148764761 0.0 0.0 0.0 0.0
25 1 45.7085727935 5.54656764761 0.0 0.0 0.0 0.0
26 1 50.1867727935 4.12908764761 0.0 0.0 0.0 0.0
27 1 57.6545727935 6.62858764761 0.0 0.0 0.0 0.0
28 1 62.7849727935 7.01958764761 0.0 0.0 0.0 0.0
29 1 68.4873727935 6.84111764761 0.0 0.0 0.0 0.0
30 1 74.4345727935 6.64029764761 0.0 0.0 0.0 0.0
31 1 3.96029279352 10.5414276476 0.0 0.0 0.0 0.0
32 1 9.06073279352 10.9921276476 0.0 0.0 0.0 0.0
33 1 13.9078727935 11.3018276476 0.0 0.0 0.0 0.0
34 1 18.8181727935 10.5023276476 0.0 0.0 0.0 0.0
35 1 23.9930727935 10.3562276476 0.0 0.0 0.0 0.0
36 1 28.9203727935 9.91102764761 0.0 0.0 0.0 0.0
37 1 33.0064727935 13.2178276476 0.0 0.0 0.0 0.0
38 1 37.7770727935 10.5468276476 0.0 0.0 0.0 0.0
39 1 43.0481727935 10.0046276476 0.0 0.0 0.0 0.0
40 1 48.5030727935 9.71792764761 0.0 0.0 0.0 0.0
41 1 55.0443727935 10.5177276476 0.0 0.0 0.0 0.0
42 1 60.4614727935 11.3633276476 0.0 0.0 0.0 0.0
43 1 65.6551727935 10.8031276476 0.0 0.0 0.0 0.0
44 1 70.0827727935 9.37260764761 0.0 0.0 0.0 0.0
45 1 77.1131727935 10.7420276476 0.0 0.0 0.0 0.0
46 1 0.746062793516 15.1684276476 0.0 0.0 0.0 0.0
47 1 5.96000279352 15.3262276476 0.0 0.0 0.0 0.0
48 1 11.1836727935 15.9061276476 0.0 0.0 0.0 0.0
49 1 16.2681727935 15.5743276476 0.0 0.0 0.0 0.0
50 1 21.2273727935 15.0164276476 0.0 0.0 0.0 0.0
51 1 26.4432727935 14.8864276476 0.0 0.0 0.0 0.0
52 1 31.6638727935 15.8947276476 0.0 0.0 0.0 0.0
53 1 36.6737727935 15.8766276476 0.0 0.0 0.0 0.0
54 1 41.4188727935 14.5330276476 0.0 0.0 0.0 0.0
55 1 46.1888727935 16.0223276476 0.0 0.0 0.0 0.0
56 1 50.1261727935 12.2795276476 0.0 0.0 0.0 0.0
57 1 57.1312727935 15.1660276476 0.0 0.0 0.0 0.0
58 1 65.3337727935 14.7250276476 0.0 0.0 0.0 0.0
59 1 68.3513727935 14.8644276476 0.0 0.0 0.0 0.0
60 1 73.6493727935 14.9299276476 0.0 0.0 0.0 0.0
61 1 2.73699279352 19.7131276476 0.0 0.0 0.0 0.0
62 1 8.16419279352 20.0783276476 0.0 0.0 0.0 0.0
63 1 13.5193727935 20.3564276476 0.0 0.0 0.0 0.0
64 1 18.4549727935 19.9822276476 0.0 0.0 0.0 0.0
65 1 23.5769727935 19.4787276476 0.0 0.0 0.0 0.0
66 1 28.8261727935 19.7970276476 0.0 0.0 0.0 0.0
67 1 34.1881727935 20.5382276476 0.0 0.0 0.0 0.0
68 1 39.5379727935 19.8628276476 0.0 0.0 0.0 0.0
69 1 44.7700727935 18.6578276476 0.0 0.0 0.0 0.0
70 1 49.7255727935 18.0342276476 0.0 0.0 0.0 0.0
71 1 54.4720727935 18.6679276476 0.0 0.0 0.0 0.0
72 1 58.0984727935 18.0159276476 0.0 0.0 0.0 0.0
73 1 64.5021727935 20.0383276476 0.0 0.0 0.0 0.0
74 1 71.0478727935 19.3640276476 0.0 0.0 0.0 0.0
75 1 75.9594727935 19.4795276476 0.0 0.0 0.0 0.0
76 1 77.5188727935 24.1763276476 0.0 0.0 0.0 0.0
77 1 4.62282279352 24.0922276476 0.0 0.0 0.0 0.0
78 1 10.1584727935 24.5488276476 0.0 0.0 0.0 0.0
79 1 16.0904727935 24.9420276476 0.0 0.0 0.0 0.0
80 1 21.0332727935 24.3072276476 0.0 0.0 0.0 0.0
81 1 25.6558727935 24.0810276476 0.0 0.0 0.0 0.0
82 1 30.8977727935 24.4617276476 0.0 0.0 0.0 0.0
83 1 37.4235727935 24.5076276476 0.0 0.0 0.0 0.0
84 1 44.0890727935 23.0842276476 0.0 0.0 0.0 0.0
85 1 47.0832727935 22.9476276476 0.0 0.0 0.0 0.0
86 1 52.2323727935 23.0936276476 0.0 0.0 0.0 0.0
87 1 57.2748727935 23.7189276476 0.0 0.0 0.0 0.0
88 1 61.9673727935 24.4017276476 0.0 0.0 0.0 0.0
89 1 66.4483727935 22.2625276476 0.0 0.0 0.0 0.0
90 1 72.6633727935 24.0743276476 0.0 0.0 0.0 0.0
91 1 1.55232279352 28.5070276476 0.0 0.0 0.0 0.0
92 1 6.98847279352 28.4303276476 0.0 0.0 0.0 0.0
93 1 11.6666727935 27.1482276476 0.0 0.0 0.0 0.0
94 1 18.6839727935 29.2987276476 0.0 0.0 0.0 0.0
95 1 23.2086727935 29.1210276476 0.0 0.0 0.0 0.0
96 1 28.1367727935 28.6887276476 0.0 0.0 0.0 0.0
97 1 32.3897727935 27.0640276476 0.0 0.0 0.0 0.0
98 1 39.3143727935 28.8631276476 0.0 0.0 0.0 0.0
99 1 44.9010727935 28.2382276476 0.0 0.0 0.0 0.0
100 1 50.3113727935 27.4534276476 0.0 0.0 0.0 0.0
101 1 54.5378727935 30.4832276476 0.0 0.0 0.0 0.0
102 1 60.1905727935 28.8740276476 0.0 0.0 0.0 0.0
103 1 65.9533727935 29.4017276476 0.0 0.0 0.0 0.0
104 1 67.3066727935 26.6844276476 0.0 0.0 0.0 0.0
105 1 74.1839727935 28.8265276476 0.0 0.0 0.0 0.0
106 1 77.7566727935 32.7432276476 0.0 0.0 0.0 0.0
107 1 4.81350279352 32.7054276476 0.0 0.0 0.0 0.0
108 1 10.0383727935 32.4808276476 0.0 0.0 0.0 0.0
109 1 15.5243727935 33.3753276476 0.0 0.0 0.0 0.0
110 1 21.1269727935 34.2213276476 0.0 0.0 0.0 0.0
111 1 26.2003727935 33.5702276476 0.0 0.0 0.0 0.0
112 1 30.9269727935 32.7200276476 0.0 0.0 0.0 0.0
113 1 36.2796727935 32.4705276476 0.0 0.0 0.0 0.0
114 1 40.7137727935 31.4972276476 0.0 0.0 0.0 0.0
115 1 47.7998727935 32.0646276476 0.0 0.0 0.0 0.0
116 1 52.8145727935 32.9883276476 0.0 0.0 0.0 0.0
117 1 57.5506727935 33.4333276476 0.0 0.0 0.0 0.0
118 1 62.6889727935 33.2643276476 0.0 0.0 0.0 0.0
119 1 67.5968727935 33.8477276476 0.0 0.0 0.0 0.0
120 1 72.3430727935 33.3567276476 0.0 0.0 0.0 0.0
121 1 2.89445279352 37.0944276476 0.0 0.0 0.0 0.0
122 1 7.69124279352 37.0762276476 0.0 0.0 0.0 0.0
123 1 12.3887727935 37.0345276476 0.0 0.0 0.0 0.0
124 1 16.7081727935 36.1803276476 0.0 0.0 0.0 0.0
125 1 23.9999727935 38.4532276476 0.0 0.0 0.0 0.0
126 1 28.9187727935 37.9497276476 0.0 0.0 0.0 0.0
127 1 34.0978727935 36.8742276476 0.0 0.0 0.0 0.0
128 1 39.6846727935 36.7896276476 0.0 0.0 0.0 0.0
129 1 44.8172727935 36.5066276476 0.0 0.0 0.0 0.0
130 1 48.8062727935 39.0987276476 0.0 0.0 0.0 0.0
131 1 54.5592727935 38.0231276476 0.0 0.0 0.0 0.0
132 1 59.0724727935 37.7413276476 0.0 0.0 0.0 0.0
133 1 64.3493727935 38.2690276476 0.0 0.0 0.0 0.0
134 1 70.5432727935 38.3954276476 0.0 0.0 0.0 0.0
135 1 75.8209727935 37.2288276476 0.0 0.0 0.0 0.0
136 1 0.981492793516 41.4652276476 0.0 0.0 0.0 0.0
137 1 6.20928279352 41.7713276476 0.0 0.0 0.0 0.0
138 1 10.8971727935 41.8052276476 0.0 0.0 0.0 0.0
139 1 15.4195727935 44.0848276476 0.0 0.0 0.0 0.0
140 1 21.1407727935 42.5232276476 0.0 0.0 0.0 0.0
141 1 26.5048727935 42.9384276476 0.0 0.0 0.0 0.0
142 1 33.3004727935 41.4003276476 0.0 0.0 0.0 0.0
143 1 36.2623727935 40.8630276476 0.0 0.0 0.0 0.0
144 1 41.3528727935 41.1741276476 0.0 0.0 0.0 0.0
145 1 46.8868727935 41.4206276476 0.0 0.0 0.0 0.0
146 1 52.0556727935 42.2091276476 0.0 0.0 0.0 0.0
147 1 57.2755727935 42.9042276476 0.0 0.0 0.0 0.0
148 1 61.9270727935 42.3481276476 0.0 0.0 0.0 0.0
149 1 67.0962727935 43.0938276476 0.0 0.0 0.0 0.0
150 1 74.2515727935 41.9584276476 0.0 0.0 0.0 0.0
151 1 2.65339279352 45.9289276476 0.0 0.0 0.0 0.0
152 1 7.75210279352 46.6368276476 0.0 0.0 0.0 0.0
153 1 13.9211727935 46.7328276476 0.0 0.0 0.0 0.0
154 1 19.0856727935 46.8810276476 0.0 0.0 0.0 0.0
155 1 24.2791727935 47.1533276476 0.0 0.0 0.0 0.0
156 1 29.2042727935 47.7220276476 0.0 0.0 0.0 0.0
157 1 34.0006727935 46.1979276476 0.0 0.0 0.0 0.0
158 1 38.6854727935 47.4953276476 0.0 0.0 0.0 0.0
159 1 44.2018727935 45.5168276476 0.0 0.0 0.0 0.0
160 1 49.4180727935 46.2610276476 0.0 0.0 0.0 0.0
161 1 53.4695727935 49.0210276476 0.0 0.0 0.0 0.0
162 1 60.7522727935 47.4425276476 0.0 0.0 0.0 0.0
163 1 67.7121727935 46.0413276476 0.0 0.0 0.0 0.0
164 1 70.7122727935 46.0940276476 0.0 0.0 0.0 0.0
165 1 77.8890727935 46.1714276476 0.0 0.0 0.0 0.0
166 1 77.0109727935 51.1785276476 0.0 0.0 0.0 0.0
167 1 4.34163279352 50.7400276476 0.0 0.0 0.0 0.0
168 1 8.94151279352 49.4168276476 0.0 0.0 0.0 0.0
169 1 15.7741727935 51.2394276476 0.0 0.0 0.0 0.0
170 1 21.0587727935 51.4805276476 0.0 0.0 0.0 0.0
171 1 26.3774727935 52.2151276476 0.0 0.0 0.0 0.0
172 1 32.6501727935 51.5611276476 0.0 0.0 0.0 0.0
173 1 37.9404727935 50.4057276476 0.0 0.0 0.0 0.0
174 1 42.4811727935 50.0082276476 0.0 0.0 0.0 0.0
175 1 46.0653727935 53.0635276476 0.0 0.0 0.0 0.0
176 1 51.5663727935 51.3160276476 0.0 0.0 0.0 0.0
177 1 56.0164727935 50.5907276476 0.0 0.0 0.0 0.0
178 1 63.0560727935 51.8813276476 0.0 0.0 0.0 0.0
179 1 68.6359727935 50.8775276476 0.0 0.0 0.0 0.0
180 1 71.6546727935 50.8425276476 0.0 0.0 0.0 0.0
181 1 1.88779279352 55.1268276476 0.0 0.0 0.0 0.0
182 1 6.85277279352 54.9061276476 0.0 0.0 0.0 0.0
183 1 12.0162727935 54.8519276476 0.0 0.0 0.0 0.0
184 1 17.2606727935 55.5759276476 0.0 0.0 0.0 0.0
185 1 22.6560727935 56.0655276476 0.0 0.0 0.0 0.0
186 1 28.0746727935 54.7382276476 0.0 0.0 0.0 0.0
187 1 37.0891727935 54.8681276476 0.0 0.0 0.0 0.0
188 1 40.0839727935 55.1279276476 0.0 0.0 0.0 0.0
189 1 44.8502727935 55.8264276476 0.0 0.0 0.0 0.0
190 1 49.6942727935 55.8817276476 0.0 0.0 0.0 0.0
191 1 54.2156727935 58.0666276476 0.0 0.0 0.0 0.0
192 1 59.4687727935 55.5561276476 0.0 0.0 0.0 0.0
193 1 64.6349727935 57.0771276476 0.0 0.0 0.0 0.0
194 1 69.3288727935 56.5584276476 0.0 0.0 0.0 0.0
195 1 74.5678727935 55.3477276476 0.0 0.0 0.0 0.0
196 1 76.9757727935 59.3733276476 0.0 0.0 0.0 0.0
197 1 3.80717279352 59.7356276476 0.0 0.0 0.0 0.0
198 1 9.05329279352 59.4612276476 0.0 0.0 0.0 0.0
199 1 14.3988727935 59.6601276476 0.0 0.0 0.0 0.0
200 1 19.7524727935 60.0813276476 0.0 0.0 0.0 0.0
201 1 24.3553727935 58.5393276476 0.0 0.0 0.0 0.0
202 1 31.4198727935 59.5299276476 0.0 0.0 0.0 0.0
203 1 36.6003727935 60.1871276476 0.0 0.0 0.0 0.0
204 1 41.8430727935 60.2820276476 0.0 0.0 0.0 0.0
205 1 46.9892727935 60.6300276476 0.0 0.0 0.0 0.0
206 1 52.6603727935 60.6327276476 0.0 0.0 0.0 0.0
207 1 57.7378727935 60.4149276476 0.0 0.0 0.0 0.0
208 1 62.0504727935 63.0966276476 0.0 0.0 0.0 0.0
209 1 67.3572727935 61.6714276476 0.0 0.0 0.0 0.0
210 1 73.9842727935 59.7123276476 0.0 0.0 0.0 0.0
211 1 1.26561279352 66.4308276476 0.0 0.0 0.0 0.0
212 1 6.53957279352 64.1394276476 0.0 0.0 0.0 0.0
213 1 11.9105727935 63.9655276476 0.0 0.0 0.0 0.0
214 1 17.3841727935 64.2130276476 0.0 0.0 0.0 0.0
215 1 22.6515727935 64.0166276476 0.0 0.0 0.0 0.0
216 1 27.9001727935 63.3916276476 0.0 0.0 0.0 0.0
217 1 33.2673727935 64.2756276476 0.0 0.0 0.0 0.0
218 1 38.7784727935 64.7429276476 0.0 0.0 0.0 0.0
219 1 44.4020727935 65.0583276476 0.0 0.0 0.0 0.0
220 1 49.7933727935 64.6611276476 0.0 0.0 0.0 0.0
221 1 55.0566727935 65.1021276476 0.0 0.0 0.0 0.0
222 1 60.1690727935 65.4319276476 0.0 0.0 0.0 0.0
223 1 64.9090727935 66.5650276476 0.0 0.0 0.0 0.0
224 1 70.0499727935 66.1815276476 0.0 0.0 0.0 0.0
225 1 74.9481727935 64.6760276476 0.0 0.0 0.0 0.0
226 1 78.2151727935 69.1789276476 0.0 0.0 0.0 0.0
227 1 4.96347279352 69.0772276476 0.0 0.0 0.0 0.0
228 1 9.80907279352 68.3964276476 0.0 0.0 0.0 0.0
229 1 14.9576727935 68.3337276476 0.0 0.0 0.0 0.0
230 1 20.0158727935 68.6311276476 0.0 0.0 0.0 0.0
231 1 25.0727727935 68.1879276476 0.0 0.0 0.0 0.0
232 1 30.4636727935 68.1324276476 0.0 0.0 0.0 0.0
233 1 35.9587727935 68.6800276476 0.0 0.0 0.0 0.0
234 1 40.0017727935 67.5143276476 0.0 0.0 0.0 0.0
235 1 46.9934727935 69.1537276476 0.0 0.0 0.0 0.0
236 1 52.2846727935 69.2899276476 0.0 0.0 0.0 0.0
237 1 57.1735727935 69.8178276476 0.0 0.0 0.0 0.0
238 1 61.8221727935 72.4755276476 0.0 0.0 0.0 0.0
239 1 67.4342727935 70.9135276476 0.0 0.0 0.0 0.0
240 1 72.8599727935 69.9700276476 0.0 0.0 0.0 0.0
241 1 2.75880279352 73.8084276476 0.0 0.0 0.0 0.0
242 1 8.16858279352 73.4190276476 0.0 0.0 0.0 0.0
243 1 13.1949727935 72.8037276476 0.0 0.0 0.0 0.0
244 1 17.6059727935 75.5545276476 0.0 0.0 0.0 0.0
245 1 22.6063727935 73.0892276476 0.0 0.0 0.0 0.0
246 1 28.0402727935 72.4937276476 0.0 0.0 0.0 0.0
247 1 33.5601727935 72.5527276476 0.0 0.0 0.0 0.0
248 1 38.9416727935 73.1994276476 0.0 0.0 0.0 0.0
249 1 44.1780727935 73.5065276476 0.0 0.0 0.0 0.0
250 1 49.6881727935 73.6160276476 0.0 0.0 0.0 0.0
251 1 54.1546727935 76.3506276476 0.0 0.0 0.0 0.0
252 1 59.8585727935 74.7581276476 0.0 0.0 0.0 0.0
253 1 65.0718727935 75.4866276476 0.0 0.0 0.0 0.0
254 1 70.4221727935 74.6910276476 0.0 0.0 0.0 0.0
255 1 75.6727727935 73.9210276476 0.0 0.0 0.0 0.0
256 1 0.797132793516 3.07968764761 0.0 0.0 0.0 0.0
257 1 5.78746279352 2.52254764761 0.0 0.0 0.0 0.0
258 1 10.5916727935 2.73749764761 0.0 0.0 0.0 0.0
259 1 15.4564727935 3.24116764761 0.0 0.0 0.0 0.0
260 1 22.4873727935 5.14356764761 0.0 0.0 0.0 0.0
261 1 24.5538727935 2.99268764761 0.0 0.0 0.0 0.0
262 1 31.0961727935 1.68361764761 0.0 0.0 0.0 0.0
263 1 36.0903727935 2.85899764761 0.0 0.0 0.0 0.0
264 1 41.1681727935 3.04741764761 0.0 0.0 0.0 0.0
265 1 44.1763727935 2.96065764761 0.0 0.0 0.0 0.0
266 1 53.1293727935 4.91346764761 0.0 0.0 0.0 0.0
267 1 57.9319727935 3.63117764761 0.0 0.0 0.0 0.0
268 1 63.2419727935 4.07352764761 0.0 0.0 0.0 0.0
269 1 68.7830727935 3.86772764761 0.0 0.0 0.0 0.0
270 1 73.9281727935 3.67396764761 0.0 0.0 0.0 0.0
271 1 4.05363279352 7.52709764761 0.0 0.0 0.0 0.0
272 1 9.26497279352 5.44200764761 0.0 0.0 0.0 0.0
273 1 13.2988727935 8.36544764761 0.0 0.0 0.0 0.0
274 1 18.1555727935 7.54384764761 0.0 0.0 0.0 0.0
275 1 24.4980727935 7.37328764761 0.0 0.0 0.0 0.0
276 1 29.4376727935 4.22286764761 0.0 0.0 0.0 0.0
277 1 33.0391727935 7.70434764761 0.0 0.0 0.0 0.0
278 1 37.8067727935 7.54377764761 0.0 0.0 0.0 0.0
279 1 43.1100727935 7.03175764761 0.0 0.0 0.0 0.0
280 1 48.5105727935 6.66631764761 0.0 0.0 0.0 0.0
281 1 54.7641727935 7.48783764761 0.0 0.0 0.0 0.0
282 1 60.1113727935 8.37643764761 0.0 0.0 0.0 0.0
283 1 65.6628727935 7.82351764761 0.0 0.0 0.0 0.0
284 1 73.0642727935 9.31367764761 0.0 0.0 0.0 0.0
285 1 77.2204727935 7.74169764761 0.0 0.0 0.0 0.0
286 1 1.48118279352 12.2505276476 0.0 0.0 0.0 0.0
287 1 6.36982279352 12.3354276476 0.0 0.0 0.0 0.0
288 1 11.3725727935 12.9081276476 0.0 0.0 0.0 0.0
289 1 16.6223727935 12.5756276476 0.0 0.0 0.0 0.0
290 1 21.4436727935 11.9890276476 0.0 0.0 0.0 0.0
291 1 26.6047727935 11.8604276476 0.0 0.0 0.0 0.0
292 1 31.8682727935 10.4618276476 0.0 0.0 0.0 0.0
293 1 35.9897727935 12.9592276476 0.0 0.0 0.0 0.0
294 1 40.5534727935 11.6693276476 0.0 0.0 0.0 0.0
295 1 45.8229727935 11.1154276476 0.0 0.0 0.0 0.0
296 1 53.0876727935 12.8236276476 0.0 0.0 0.0 0.0
297 1 57.5699727935 12.1903276476 0.0 0.0 0.0 0.0
298 1 63.2370727935 12.5557276476 0.0 0.0 0.0 0.0
299 1 68.4508727935 11.8781276476 0.0 0.0 0.0 0.0
300 1 74.3923727935 12.0074276476 0.0 0.0 0.0 0.0
301 1 3.29794279352 16.7536276476 0.0 0.0 0.0 0.0
302 1 8.41161279352 17.0781276476 0.0 0.0 0.0 0.0
303 1 13.8233727935 17.3525276476 0.0 0.0 0.0 0.0
304 1 18.9206727935 16.9869276476 0.0 0.0 0.0 0.0
305 1 23.8669727935 16.4702276476 0.0 0.0 0.0 0.0
306 1 28.7933727935 16.7803276476 0.0 0.0 0.0 0.0
307 1 34.1715727935 17.5412276476 0.0 0.0 0.0 0.0
308 1 39.5074727935 16.8571276476 0.0 0.0 0.0 0.0
309 1 44.3144727935 13.7169276476 0.0 0.0 0.0 0.0
310 1 49.0503727935 15.1083276476 0.0 0.0 0.0 0.0
311 1 54.1805727935 15.6485276476 0.0 0.0 0.0 0.0
312 1 61.0140727935 18.5450276476 0.0 0.0 0.0 0.0
313 1 63.6672727935 17.1920276476 0.0 0.0 0.0 0.0
314 1 70.9776727935 16.3485276476 0.0 0.0 0.0 0.0
315 1 76.2389727935 16.4772276476 0.0 0.0 0.0 0.0
316 1 0.147979793516 21.2728276476 0.0 0.0 0.0 0.0
317 1 5.35604279352 21.1815276476 0.0 0.0 0.0 0.0
318 1 10.7680727935 21.6023276476 0.0 0.0 0.0 0.0
319 1 16.1065727935 21.9062276476 0.0 0.0 0.0 0.0
320 1 21.1625727935 21.2937276476 0.0 0.0 0.0 0.0
321 1 26.1085727935 21.1045276476 0.0 0.0 0.0 0.0
322 1 31.3309727935 21.4875276476 0.0 0.0 0.0 0.0
323 1 37.0287727935 21.5332276476 0.0 0.0 0.0 0.0
324 1 42.4581727935 20.5648276476 0.0 0.0 0.0 0.0
325 1 47.4468727935 19.9832276476 0.0 0.0 0.0 0.0
326 1 51.8732727935 20.1178276476 0.0 0.0 0.0 0.0
327 1 56.7232727935 20.6982276476 0.0 0.0 0.0 0.0
328 1 61.8455727935 21.4090276476 0.0 0.0 0.0 0.0
329 1 69.3909727935 21.8697276476 0.0 0.0 0.0 0.0
330 1 73.4569727935 21.1513276476 0.0 0.0 0.0 0.0
331 1 1.97896279352 25.5352276476 0.0 0.0 0.0 0.0
332 1 7.29361279352 25.4527276476 0.0 0.0 0.0 0.0
333 1 14.6311727935 27.5926276476 0.0 0.0 0.0 0.0
334 1 18.7738727935 26.2840276476 0.0 0.0 0.0 0.0
335 1 23.4313727935 26.1059276476 0.0 0.0 0.0 0.0
336 1 28.1719727935 25.6919276476 0.0 0.0 0.0 0.0
337 1 35.3504727935 26.6800276476 0.0 0.0 0.0 0.0
338 1 40.0449727935 25.9646276476 0.0 0.0 0.0 0.0
339 1 43.0395727935 25.8803276476 0.0 0.0 0.0 0.0
340 1 49.6139727935 24.5450276476 0.0 0.0 0.0 0.0
341 1 54.5511727935 25.0054276476 0.0 0.0 0.0 0.0
342 1 59.3864727935 25.9294276476 0.0 0.0 0.0 0.0
343 1 64.9376727935 24.8440276476 0.0 0.0 0.0 0.0
344 1 69.7569727935 24.8631276476 0.0 0.0 0.0 0.0
345 1 75.0310727935 25.9143276476 0.0 0.0 0.0 0.0
346 1 77.0489727935 29.8226276476 0.0 0.0 0.0 0.0
347 1 4.29377279352 29.7534276476 0.0 0.0 0.0 0.0
348 1 9.79167279352 29.4927276476 0.0 0.0 0.0 0.0
349 1 15.8764727935 30.3578276476 0.0 0.0 0.0 0.0
350 1 21.0155727935 31.1929276476 0.0 0.0 0.0 0.0
351 1 25.8226727935 30.5906276476 0.0 0.0 0.0 0.0
352 1 30.9511727935 29.7081276476 0.0 0.0 0.0 0.0
353 1 36.3968727935 29.4798276476 0.0 0.0 0.0 0.0
354 1 43.6418727935 30.9597276476 0.0 0.0 0.0 0.0
355 1 47.7849727935 29.0647276476 0.0 0.0 0.0 0.0
356 1 53.3005727935 27.7452276476 0.0 0.0 0.0 0.0
357 1 57.5696727935 30.4305276476 0.0 0.0 0.0 0.0
358 1 62.9715727935 30.2236276476 0.0 0.0 0.0 0.0
359 1 68.5559727935 30.9755276476 0.0 0.0 0.0 0.0
360 1 71.5754727935 30.4426276476 0.0 0.0 0.0 0.0
361 1 2.19746279352 34.1692276476 0.0 0.0 0.0 0.0
362 1 7.49160279352 34.0760276476 0.0 0.0 0.0 0.0
363 1 12.5975727935 34.0433276476 0.0 0.0 0.0 0.0
364 1 19.6443727935 36.8564276476 0.0 0.0 0.0 0.0
365 1 23.8652727935 35.4481276476 0.0 0.0 0.0 0.0
366 1 28.8743727935 34.9293276476 0.0 0.0 0.0 0.0
367 1 33.6667727935 33.9172276476 0.0 0.0 0.0 0.0
368 1 38.9253727935 33.8887276476 0.0 0.0 0.0 0.0
369 1 45.1709727935 33.5234276476 0.0 0.0 0.0 0.0
370 1 49.9865727935 34.1004276476 0.0 0.0 0.0 0.0
371 1 55.0063727935 35.0430276476 0.0 0.0 0.0 0.0
372 1 60.1487727935 34.9172276476 0.0 0.0 0.0 0.0
373 1 64.9406727935 35.2889276476 0.0 0.0 0.0 0.0
374 1 70.1491727935 35.4179276476 0.0 0.0 0.0 0.0
375 1 75.1948727935 34.3011276476 0.0 0.0 0.0 0.0
376 1 0.289957793516 38.5572276476 0.0 0.0 0.0 0.0
377 1 5.31349279352 38.8886276476 0.0 0.0 0.0 0.0
378 1 10.0604727935 38.9141276476 0.0 0.0 0.0 0.0
379 1 14.9256727935 38.6244276476 0.0 0.0 0.0 0.0
380 1 21.1726727935 39.4844276476 0.0 0.0 0.0 0.0
381 1 26.6307727935 39.9203276476 0.0 0.0 0.0 0.0
382 1 31.7998727935 38.8055276476 0.0 0.0 0.0 0.0
383 1 36.9054727935 37.9390276476 0.0 0.0 0.0 0.0
384 1 42.3114727935 38.2723276476 0.0 0.0 0.0 0.0
385 1 47.8513727935 36.2694276476 0.0 0.0 0.0 0.0
386 1 51.8110727935 39.2337276476 0.0 0.0 0.0 0.0
387 1 56.9370727935 39.8779276476 0.0 0.0 0.0 0.0
388 1 61.5621727935 39.3771276476 0.0 0.0 0.0 0.0
389 1 69.3914727935 41.1641276476 0.0 0.0 0.0 0.0
390 1 73.4667727935 39.0707276476 0.0 0.0 0.0 0.0
391 1 3.51007279352 43.0620276476 0.0 0.0 0.0 0.0
392 1 8.53731279352 43.6979276476 0.0 0.0 0.0 0.0
393 1 13.9057727935 41.4767276476 0.0 0.0 0.0 0.0
394 1 18.4584727935 43.9456276476 0.0 0.0 0.0 0.0
395 1 23.7315727935 44.1572276476 0.0 0.0 0.0 0.0
396 1 28.9561727935 44.7159276476 0.0 0.0 0.0 0.0
397 1 31.8935727935 44.0486276476 0.0 0.0 0.0 0.0
398 1 38.6645727935 42.6639276476 0.0 0.0 0.0 0.0
399 1 44.0670727935 42.5079276476 0.0 0.0 0.0 0.0
400 1 49.2433727935 43.2781276476 0.0 0.0 0.0 0.0
401 1 54.4579727935 44.0000276476 0.0 0.0 0.0 0.0
402 1 59.8458727935 44.5337276476 0.0 0.0 0.0 0.0
403 1 64.7288727935 41.2638276476 0.0 0.0 0.0 0.0
404 1 71.5575727935 43.2288276476 0.0 0.0 0.0 0.0
405 1 76.8877727935 43.3584276476 0.0 0.0 0.0 0.0
406 1 75.9004727935 48.3969276476 0.0 0.0 0.0 0.0
407 1 4.97758279352 47.8043276476 0.0 0.0 0.0 0.0
408 1 11.9384727935 49.0497276476 0.0 0.0 0.0 0.0
409 1 16.4573727935 48.3253276476 0.0 0.0 0.0 0.0
410 1 21.5984727935 48.5211276476 0.0 0.0 0.0 0.0
411 1 26.5554727935 49.1762276476 0.0 0.0 0.0 0.0
412 1 32.1111727935 48.5793276476 0.0 0.0 0.0 0.0
413 1 36.8575727935 45.1244276476 0.0 0.0 0.0 0.0
414 1 41.6611727935 47.1288276476 0.0 0.0 0.0 0.0
415 1 46.6072727935 47.3452276476 0.0 0.0 0.0 0.0
416 1 52.4343727935 46.2294276476 0.0 0.0 0.0 0.0
417 1 58.9345727935 49.8647276476 0.0 0.0 0.0 0.0
418 1 63.4225727935 48.8914276476 0.0 0.0 0.0 0.0
419 1 66.4473727935 48.7703276476 0.0 0.0 0.0 0.0
420 1 72.9116727935 48.1269276476 0.0 0.0 0.0 0.0
421 1 1.66242279352 52.1275276476 0.0 0.0 0.0 0.0
422 1 7.13068279352 51.8754276476 0.0 0.0 0.0 0.0
423 1 12.8545727935 51.9365276476 0.0 0.0 0.0 0.0
424 1 18.3397727935 52.7770276476 0.0 0.0 0.0 0.0
425 1 23.5289727935 53.1912276476 0.0 0.0 0.0 0.0
426 1 31.0354727935 54.1219276476 0.0 0.0 0.0 0.0
427 1 35.5831727935 52.2573276476 0.0 0.0 0.0 0.0
428 1 40.3909727935 52.1457276476 0.0 0.0 0.0 0.0
429 1 45.4646727935 50.1263276476 0.0 0.0 0.0 0.0
430 1 49.0571727935 52.9565276476 0.0 0.0 0.0 0.0
431 1 54.1090727935 52.9072276476 0.0 0.0 0.0 0.0
432 1 60.1509727935 52.6202276476 0.0 0.0 0.0 0.0
433 1 65.0744727935 54.1096276476 0.0 0.0 0.0 0.0
434 1 68.0573727935 53.8273276476 0.0 0.0 0.0 0.0
435 1 74.2466727935 52.3771276476 0.0 0.0 0.0 0.0
436 1 77.3817727935 56.4043276476 0.0 0.0 0.0 0.0
437 1 4.42768279352 56.7521276476 0.0 0.0 0.0 0.0
438 1 9.44147279352 56.4527276476 0.0 0.0 0.0 0.0
439 1 14.4463727935 56.6450276476 0.0 0.0 0.0 0.0
440 1 19.8399727935 57.0917276476 0.0 0.0 0.0 0.0
441 1 27.2419727935 57.6773276476 0.0 0.0 0.0 0.0
442 1 32.5387727935 56.7405276476 0.0 0.0 0.0 0.0
443 1 35.4816727935 57.3918276476 0.0 0.0 0.0 0.0
444 1 42.1993727935 57.2738276476 0.0 0.0 0.0 0.0
445 1 47.2525727935 57.6339276476 0.0 0.0 0.0 0.0
446 1 52.6684727935 55.5292276476 0.0 0.0 0.0 0.0
447 1 57.1537727935 57.4758276476 0.0 0.0 0.0 0.0
448 1 61.6843727935 57.5911276476 0.0 0.0 0.0 0.0
449 1 67.1827727935 58.6678276476 0.0 0.0 0.0 0.0
450 1 72.2562727935 57.2569276476 0.0 0.0 0.0 0.0
451 1 1.13731279352 61.2215276476 0.0 0.0 0.0 0.0
452 1 6.50249279352 61.1111276476 0.0 0.0 0.0 0.0
453 1 11.6782727935 60.9609276476 0.0 0.0 0.0 0.0
454 1 16.9781727935 61.2336276476 0.0 0.0 0.0 0.0
455 1 22.6116727935 61.0044276476 0.0 0.0 0.0 0.0
456 1 28.5446727935 60.4158276476 0.0 0.0 0.0 0.0
457 1 33.8233727935 61.3335276476 0.0 0.0 0.0 0.0
458 1 39.1940727935 61.7428276476 0.0 0.0 0.0 0.0
459 1 44.3076727935 62.0340276476 0.0 0.0 0.0 0.0
460 1 49.8236727935 61.6594276476 0.0 0.0 0.0 0.0
461 1 55.2664727935 62.1212276476 0.0 0.0 0.0 0.0
462 1 60.7223727935 60.4267276476 0.0 0.0 0.0 0.0
463 1 65.0129727935 63.5612276476 0.0 0.0 0.0 0.0
464 1 69.9549727935 63.1817276476 0.0 0.0 0.0 0.0
465 1 72.8784727935 62.4934276476 0.0 0.0 0.0 0.0
466 1 77.8812727935 63.8835276476 0.0 0.0 0.0 0.0
467 1 4.27494279352 66.1495276476 0.0 0.0 0.0 0.0
468 1 9.27431279352 65.4312276476 0.0 0.0 0.0 0.0
469 1 14.5968727935 65.3520276476 0.0 0.0 0.0 0.0
470 1 20.0708727935 65.6060276476 0.0 0.0 0.0 0.0
471 1 25.4344727935 65.1755276476 0.0 0.0 0.0 0.0
472 1 30.3800727935 65.1241276476 0.0 0.0 0.0 0.0
473 1 35.9258727935 65.6787276476 0.0 0.0 0.0 0.0
474 1 42.9918727935 67.7357276476 0.0 0.0 0.0 0.0
475 1 47.1917727935 66.1567276476 0.0 0.0 0.0 0.0
476 1 52.3098727935 66.2935276476 0.0 0.0 0.0 0.0
477 1 57.5008727935 66.8230276476 0.0 0.0 0.0 0.0
478 1 62.1222727935 67.6963276476 0.0 0.0 0.0 0.0
479 1 67.5868727935 67.9140276476 0.0 0.0 0.0 0.0
480 1 72.9603727935 66.9590276476 0.0 0.0 0.0 0.0
481 1 2.51653279352 70.8167276476 0.0 0.0 0.0 0.0
482 1 7.62988279352 70.4570276476 0.0 0.0 0.0 0.0
483 1 12.4068727935 69.9058276476 0.0 0.0 0.0 0.0
484 1 17.3834727935 70.1115276476 0.0 0.0 0.0 0.0
485 1 22.6749727935 70.0548276476 0.0 0.0 0.0 0.0
486 1 27.7847727935 69.5013276476 0.0 0.0 0.0 0.0
487 1 33.1034727935 69.5904276476 0.0 0.0 0.0 0.0
488 1 38.5690727935 70.1797276476 0.0 0.0 0.0 0.0
489 1 44.2940727935 70.4690276476 0.0 0.0 0.0 0.0
490 1 49.5988727935 70.6225276476 0.0 0.0 0.0 0.0
491 1 54.5237727935 71.2874276476 0.0 0.0 0.0 0.0
492 1 60.1782727935 69.9861276476 0.0 0.0 0.0 0.0
493 1 64.8461727935 72.4910276476 0.0 0.0 0.0 0.0
494 1 70.3550727935 71.6809276476 0.0 0.0 0.0 0.0
495 1 75.7251727935 70.9036276476 0.0 0.0 0.0 0.0
496 1 0.138142793516 75.2878276476 0.0 0.0 0.0 0.0
497 1 5.55669279352 74.9172276476 0.0 0.0 0.0 0.0
498 1 10.8867727935 74.7328276476 0.0 0.0 0.0 0.0
499 1 16.2053727935 72.8908276476 0.0 0.0 0.0 0.0
500 1 20.6151727935 75.3851276476 0.0 0.0 0.0 0.0
501 1 25.4644727935 74.0482276476 0.0 0.0 0.0 0.0
502 1 30.7928727935 73.7221276476 0.0 0.0 0.0 0.0
503 1 36.0808727935 74.2135276476 0.0 0.0 0.0 0.0
504 1 41.4725727935 74.9110276476 0.0 0.0 0.0 0.0
505 1 46.9197727935 74.8538276476 0.0 0.0 0.0 0.0
506 1 52.7141727935 73.7175276476 0.0 0.0 0.0 0.0
507 1 57.1683727935 76.1594276476 0.0 0.0 0.0 0.0
508 1 62.2521727935 76.5706276476 0.0 0.0 0.0 0.0
509 1 67.9379727935 76.4101276476 0.0 0.0 0.0 0.0
510 1 73.2491727935 75.7251276476 0.0 0.0 0.0 0.0
511 1 5.71543279352 77.9142276476 0.0 0.0 0.0 0.0
512 1 11.1993727935 77.7297276476 0.0 0.0 0.0 0.0
513 1 16.4824727935 78.3632276476 0.0 0.0 0.0 0.0
514 1 21.0653727935 78.3752276476 0.0 0.0 0.0 0.0
515 1 26.2068727935 76.9559276476 0.0 0.0 0.0 0.0
516 1 31.6149727935 76.6043276476 0.0 0.0 0.0 0.0
517 1 35.9121727935 79.5668276476 0.0 0.0 0.0 0.0
518 1 41.5841727935 77.9623276476 0.0 0.0 0.0 0.0
519 1 47.2187727935 77.8627276476 0.0 0.0 0.0 0.0
520 1 52.6344727935 78.9662276476 0.0 0.0 0.0 0.0
521 1 57.5458727935 79.1431276476 0.0 0.0 0.0 0.0
522 1 62.5124727935 0.0618596476071 0.0 0.0 0.0 0.0
523 1 68.0383727935 79.4150276476 0.0 0.0 0.0 0.0
524 1 73.3300727935 78.7363276476 0.0 0.0 0.0 0.0
525 1 0.293036793516 78.2883276476 0.0 0.0 0.0 0.0
526 1 3.09159279352 79.3919276476 0.0 0.0 0.0 0.0
527 1 8.49706279352 79.0627276476 0.0 0.0 0.0 0.0
528 1 13.6680727935 79.4694276476 0.0 0.0 0.0 0.0
529 1 18.7648727935 80.3376276476 0.0 0.0 0.0 0.0
530 1 24.0063727935 78.9992276476 0.0 0.0 0.0 0.0
531 1 29.0000727935 78.0788276476 0.0 0.0 0.0 0.0
532 1 34.6197727935 76.8529276476 0.0 0.0 0.0 0.0
533 1 38.9571727935 79.5504276476 0.0 0.0 0.0 0.0
534 1 44.4459727935 79.0856276476 0.0 0.0 0.0 0.0
535 1 49.6788727935 79.6727276476 0.0 0.0 0.0 0.0
536 1 55.0232727935 80.8126276476 0.0 0.0 0.0 0.0
537 1 60.5499727935 79.0363276476 0.0 0.0 0.0 0.0
538 1 65.5188727935 81.0732276476 0.0 0.0 0.0 0.0
539 1 70.8625727935 80.4684276476 0.0 0.0 0.0 0.0
540 1 76.0500727935 80.0264276476 0.0 0.0 0.0 0.0
541 2 3.09699279352 80.8957276476 0.0 0.0 0.0 0.0
542 2 4.44925279352 1.85588764761 0.0 0.0 0.0 0.0
543 2 1.93970279352 2.10523764761 0.0 0.0 0.0 0.0
544 2 8.40263279352 80.5649276476 0.0 0.0 0.0 0.0
545 2 9.45953279352 1.75050764761 0.0 0.0 0.0 0.0
546 2 7.00088279352 1.63874764761 0.0 0.0 0.0 0.0
547 2 13.4343727935 80.9676276476 0.0 0.0 0.0 0.0
548 2 14.3300727935 2.24971764761 0.0 0.0 0.0 0.0
549 2 11.9095727935 2.01551764761 0.0 0.0 0.0 0.0
550 2 18.5776727935 0.628957647607 0.0 0.0 0.0 0.0
551 2 18.9626727935 3.44379764761 0.0 0.0 0.0 0.0
552 2 16.8190727935 2.60849764761 0.0 0.0 0.0 0.0
553 2 25.0634727935 1.58829764761 0.0 0.0 0.0 0.0
554 2 24.7959727935 80.2792276476 0.0 0.0 0.0 0.0
555 2 27.2252727935 0.111706647607 0.0 0.0 0.0 0.0
556 2 29.9171727935 0.734487647607 0.0 0.0 0.0 0.0
557 2 28.9229727935 79.5752276476 0.0 0.0 0.0 0.0
558 2 34.8952727935 80.7048276476 0.0 0.0 0.0 0.0
559 2 34.9752727935 1.85040764761 0.0 0.0 0.0 0.0
560 2 32.5264727935 1.17051764761 0.0 0.0 0.0 0.0
561 2 38.9176727935 81.0679276476 0.0 0.0 0.0 0.0
562 2 39.9849727935 2.13105764761 0.0 0.0 0.0 0.0
563 2 37.4178727935 2.13000764761 0.0 0.0 0.0 0.0
564 2 45.0036727935 1.71962764761 0.0 0.0 0.0 0.0
565 2 45.1033727935 80.4632276476 0.0 0.0 0.0 0.0
566 2 47.3583727935 0.985347647607 0.0 0.0 0.0 0.0
567 2 49.3805727935 81.1599276476 0.0 0.0 0.0 0.0
568 2 49.5326727935 2.73655764761 0.0 0.0 0.0 0.0
569 2 54.9963727935 1.10441764761 0.0 0.0 0.0 0.0
570 2 56.5415727935 3.05823764761 0.0 0.0 0.0 0.0
571 2 54.0723727935 3.72059764761 0.0 0.0 0.0 0.0
572 2 61.5614727935 1.22714764761 0.0 0.0 0.0 0.0
573 2 61.9395727935 3.34610764761 0.0 0.0 0.0 0.0
574 2 59.2950727935 2.97391764761 0.0 0.0 0.0 0.0
575 2 65.8166727935 1.32964764761 0.0 0.0 0.0 0.0
576 2 64.6297727935 3.49462764761 0.0 0.0 0.0 0.0
577 2 67.3771727935 3.33938764761 0.0 0.0 0.0 0.0
578 2 71.0963727935 0.740797647607 0.0 0.0 0.0 0.0
579 2 72.6019727935 2.96596764761 0.0 0.0 0.0 0.0
580 2 70.0383727935 3.05855764761 0.0 0.0 0.0 0.0
581 2 75.1098727935 2.74393764761 0.0 0.0 0.0 0.0
582 2 77.6448727935 2.46162764761 0.0 0.0 0.0 0.0
583 2 76.1634727935 0.311584647607 0.0 0.0 0.0 0.0
584 2 1.14196279352 4.54336764761 0.0 0.0 0.0 0.0
585 2 2.75799279352 6.75755764761 0.0 0.0 0.0 0.0
586 2 0.234975793516 6.89255764761 0.0 0.0 0.0 0.0
587 2 5.94178279352 4.01321764761 0.0 0.0 0.0 0.0
588 2 7.76292279352 5.51987764761 0.0 0.0 0.0 0.0
589 2 5.21878279352 6.56718764761 0.0 0.0 0.0 0.0
590 2 9.78887279352 6.84722764761 0.0 0.0 0.0 0.0
591 2 11.8047727935 8.25994764761 0.0 0.0 0.0 0.0
592 2 9.57907279352 9.57492764761 0.0 0.0 0.0 0.0
593 2 15.3822727935 4.75177764761 0.0 0.0 0.0 0.0
594 2 16.7592727935 6.97187764761 0.0 0.0 0.0 0.0
595 2 14.3074727935 7.25529764761 0.0 0.0 0.0 0.0
596 2 21.0062727935 4.99182764761 0.0 0.0 0.0 0.0
597 2 18.8991727935 6.22659764761 0.0 0.0 0.0 0.0
598 2 25.6361727935 4.02893764761 0.0 0.0 0.0 0.0