# input file

1350 atoms
2 atom types

0.0 78.3655007376 xlo xhi
0.0 81.0828264861 ylo yhi
-10.0 10.0 zlo zhi
0.0 0.0 0.0 xy xz yz

Masses

1 28.0855 #Si
2 15.9994 #O

Atoms

1 1 2.30290814565 0.992223243058 0.0
2 1 7.60428814565 1.15103324306 0.0
3 1 13.1466881457 1.41591324306 0.0
4 1 18.5201881457 1.74197324306 0.0
5 1 23.6728881457 1.42529324306 0.0
6 1 28.6653881457 1.72186324306 0.0
7 1 33.9049881457 0.965183243058 0.0
8 1 39.7181881457 0.468423243058 0.0
9 1 45.5231881457 0.736533243058 0.0
10 1 50.6164881457 1.71479324306 0.0
11 1 55.7119881457 2.11083324306 0.0
12 1 60.9295881457 2.42578324306 0.0
13 1 65.8596881457 2.59345324306 0.0
14 1 70.7942881457 2.47435324306 0.0
15 1 77.6686881457 1.26551324306 0.0
16 1 77.7668881457 6.45086324306 0.0
17 1 4.71257814565 5.50131324306 0.0
18 1 10.3200881457 5.43923324306 0.0
19 1 15.8630881457 5.92534324306 0.0
20 1 20.7936881457 6.13172324306 0.0
21 1 25.7328881457 6.27514324306 0.0
22 1 31.9302881457 5.74031324306 0.0
23 1 37.1587881457 4.62013324306 0.0
24 1 42.0958881457 4.57525324306 0.0
25 1 47.1404881457 5.70492324306 0.0
26 1 53.0647881457 6.46496324306 0.0
27 1 58.5660881457 6.72567324306 0.0
28 1 63.2768881457 7.26226324306 0.0
29 1 68.0526881457 7.29477324306 0.0
30 1 72.8609881457 7.24889324306 0.0
31 1 2.66934814565 10.2832132431 0.0
32 1 7.81693814565 9.52831324306 0.0
33 1 13.0547881457 9.79971324306 0.0
34 1 18.1566881457 10.7709132431 0.0
35 1 23.5465881457 10.9084132431 0.0
36 1 27.4744881457 8.72950324306 0.0
37 1 34.7261881457 9.50441324306 0.0
38 1 39.5363881457 9.34068324306 0.0
39 1 44.2152881457 9.63941324306 0.0
40 1 48.2169881457 8.51626324306 0.0
41 1 55.3875881457 10.7099132431 0.0
42 1 60.2884881457 11.8242132431 0.0
43 1 65.3469881457 12.1373132431 0.0
44 1 70.4830881457 12.0960132431 0.0
45 1 75.7270881457 11.5072132431 0.0
46 1 0.578808145654 15.1207132431 0.0
47 1 7.24160814565 13.8068132431 0.0
48 1 10.2287881457 14.0935132431 0.0
49 1 15.1583881457 14.7432132431 0.0
50 1 19.4437881457 13.4979132431 0.0
51 1 26.7969881457 14.5690132431 0.0
52 1 31.8204881457 13.8557132431 0.0
53 1 36.9337881457 14.1977132431 0.0
54 1 41.8033881457 14.3652132431 0.0
55 1 46.9851881457 14.1878132431 0.0
56 1 52.2109881457 14.4490132431 0.0
57 1 56.2297881457 17.6513132431 0.0
58 1 61.8789881457 16.5318132431 0.0
59 1 67.8999881457 16.7238132431 0.0
60 1 73.8853881457 16.2003132431 0.0
61 1 2.96920814565 19.5776132431 0.0
62 1 7.86967814565 19.0256132431 0.0
63 1 13.0424881457 19.0474132431 0.0
64 1 18.1090881457 19.0625132431 0.0
65 1 23.6466881457 19.1037132431 0.0
66 1 30.8068881457 18.5322132431 0.0
67 1 33.8175881457 18.5608132431 0.0
68 1 38.7961881457 19.0133132431 0.0
69 1 44.0083881457 18.7986132431 0.0
70 1 49.2924881457 18.8187132431 0.0
71 1 54.6335881457 20.1863132431 0.0
72 1 59.3175881457 20.9020132431 0.0
73 1 63.1216881457 19.2773132431 0.0
74 1 69.7606881457 19.0722132431 0.0
75 1 76.5907881457 20.1433132431 0.0
76 1 2.11353814565 24.3038132431 0.0
77 1 5.06683814565 23.9029132431 0.0
78 1 10.0026881457 23.5134132431 0.0
79 1 14.9896881457 23.6833132431 0.0
80 1 20.1201881457 23.2593132431 0.0
81 1 25.5607881457 23.7345132431 0.0
82 1 30.8145881457 23.6284132431 0.0
83 1 35.9868881457 23.5056132431 0.0
84 1 41.2517881457 23.4348132431 0.0
85 1 46.1722881457 23.2283132431 0.0
86 1 51.5688881457 23.6564132431 0.0
87 1 56.8562881457 25.3580132431 0.0
88 1 62.4429881457 25.0800132431 0.0
89 1 67.9657881457 24.4876132431 0.0
90 1 73.6495881457 24.6752132431 0.0
91 1 2.57526814565 29.2938132431 0.0
92 1 7.80038814565 28.3765132431 0.0
93 1 12.1142881457 30.5272132431 0.0
94 1 17.3780881457 28.0697132431 0.0
95 1 22.4490881457 27.7387132431 0.0
96 1 28.1169881457 28.1286132431 0.0
97 1 34.0565881457 28.1532132431 0.0
98 1 39.1612881457 27.9290132431 0.0
99 1 43.9590881457 28.0922132431 0.0
100 1 48.6704881457 27.7405132431 0.0
101 1 52.2200881457 30.6344132431 0.0
102 1 59.8780881457 29.4227132431 0.0
103 1 65.6686881457 29.0113132431 0.0
104 1 70.9864881457 28.6420132431 0.0
105 1 75.9912881457 29.4868132431 0.0
106 1 0.381911145654 34.0859132431 0.0
107 1 5.48078814565 33.3232132431 0.0
108 1 10.5837881457 33.1331132431 0.0
109 1 15.6428881457 33.0007132431 0.0
110 1 20.7214881457 32.4512132431 0.0
111 1 25.5776881457 31.8452132431 0.0
112 1 29.8966881457 30.5437132431 0.0
113 1 36.8677881457 32.6375132431 0.0
114 1 41.5238881457 32.8665132431 0.0
115 1 46.3449881457 32.8191132431 0.0
116 1 51.0828881457 33.3842132431 0.0
117 1 54.8680881457 31.9761132431 0.0
118 1 61.3863881457 32.0262132431 0.0
119 1 68.2938881457 33.1967132431 0.0
120 1 73.6152881457 33.6243132431 0.0
121 1 2.93328814565 38.2775132431 0.0
122 1 7.90679814565 37.8802132431 0.0
123 1 13.0201881457 37.6616132431 0.0
124 1 18.1101881457 37.2577132431 0.0
125 1 25.3397881457 36.1434132431 0.0
126 1 28.3631881457 36.0689132431 0.0
127 1 33.8647881457 36.7509132431 0.0
128 1 38.9358881457 37.6875132431 0.0
129 1 44.0928881457 37.6813132431 0.0
130 1 49.5369881457 37.7416132431 0.0
131 1 54.9807881457 37.4552132431 0.0
132 1 59.6701881457 39.3792132431 0.0
133 1 65.0149881457 37.4468132431 0.0
134 1 70.4708881457 37.7217132431 0.0
135 1 75.9138881457 38.4152132431 0.0
136 1 0.313354145654 42.7386132431 0.0
137 1 5.44626814565 42.8087132431 0.0
138 1 11.8981881457 42.0257132431 0.0
139 1 14.8993881457 41.9148132431 0.0
140 1 19.5984881457 41.8053132431 0.0
141 1 25.0245881457 41.0992132431 0.0
142 1 30.6851881457 40.6168132431 0.0
143 1 35.8152881457 41.8529132431 0.0
144 1 41.8108881457 42.3115132431 0.0
145 1 47.3041881457 42.0037132431 0.0
146 1 52.7486881457 41.9234132431 0.0
147 1 58.2776881457 42.0606132431 0.0
148 1 63.3662881457 42.3197132431 0.0
149 1 68.3271881457 41.7948132431 0.0
150 1 73.1151881457 44.1985132431 0.0
151 1 2.65215814565 47.3905132431 0.0
152 1 7.49919814565 47.7861132431 0.0
153 1 12.2306881457 47.3959132431 0.0
154 1 17.4481881457 46.7363132431 0.0
155 1 22.4873881457 45.6282132431 0.0
156 1 27.9758881457 44.8263132431 0.0
157 1 32.7431881457 45.6742132431 0.0
158 1 37.1756881457 44.5808132431 0.0
159 1 44.7165881457 46.3921132431 0.0
160 1 50.0564881457 46.2940132431 0.0
161 1 55.3721881457 46.2571132431 0.0
162 1 60.7576881457 46.8007132431 0.0
163 1 66.1200881457 46.7595132431 0.0
164 1 71.4838881457 46.7150132431 0.0
165 1 76.3276881457 47.3134132431 0.0
166 1 77.8984881457 52.1522132431 0.0
167 1 4.81820814565 52.3523132431 0.0
168 1 10.1209881457 52.4263132431 0.0
169 1 15.2192881457 51.5261132431 0.0
170 1 22.4365881457 49.7934132431 0.0
171 1 25.4076881457 49.3164132431 0.0
172 1 29.7329881457 52.2129132431 0.0
173 1 35.2379881457 50.1053132431 0.0
174 1 42.0597881457 50.4366132431 0.0
175 1 47.2573881457 50.7569132431 0.0
176 1 52.4555881457 50.7250132431 0.0
177 1 57.8165881457 50.8733132431 0.0
178 1 63.0965881457 51.1581132431 0.0
179 1 70.0498881457 50.8574132431 0.0
180 1 72.9609881457 51.6314132431 0.0
181 1 1.67961814565 56.6767132431 0.0
182 1 7.23509814565 56.8204132431 0.0
183 1 13.1735881457 56.5141132431 0.0
184 1 18.1166881457 55.6033132431 0.0
185 1 22.9262881457 54.7495132431 0.0
186 1 28.3203881457 54.8852132431 0.0
187 1 33.0878881457 54.7619132431 0.0
188 1 37.1593881457 52.4531132431 0.0
189 1 44.4231881457 55.1495132431 0.0
190 1 49.5320881457 55.2781132431 0.0
191 1 55.0028881457 55.1805132431 0.0
192 1 60.1661881457 55.4722132431 0.0
193 1 64.8199881457 56.0488132431 0.0
194 1 69.7216881457 56.0183132431 0.0
195 1 74.9485881457 56.6165132431 0.0
196 1 77.9999881457 61.2449132431 0.0
197 1 4.93706814565 60.8457132431 0.0
198 1 9.01765814565 59.2463132431 0.0
199 1 16.4862881457 60.5884132431 0.0
200 1 21.5915881457 59.7588132431 0.0
201 1 26.0199881457 61.5510132431 0.0
202 1 31.4571881457 59.5605132431 0.0
203 1 36.6658881457 58.2071132431 0.0
204 1 40.8053881457 60.8015132431 0.0
205 1 47.4995881457 59.8330132431 0.0
206 1 52.7014881457 59.4627132431 0.0
207 1 57.9671881457 59.8311132431 0.0
208 1 62.8645881457 60.5722132431 0.0
209 1 67.6844881457 60.7168132431 0.0
210 1 71.4229881457 63.3079132431 0.0
211 1 3.01722814565 65.3557132431 0.0
212 1 8.41128814565 64.8894132431 0.0
213 1 13.7941881457 64.7898132431 0.0
214 1 19.0606881457 64.6907132431 0.0
215 1 24.5633881457 64.1965132431 0.0
216 1 29.4545881457 64.3011132431 0.0
217 1 34.2616881457 63.2794132431 0.0
218 1 39.3492881457 63.4230132431 0.0
219 1 43.3172881457 62.4367132431 0.0
220 1 50.5130881457 64.1235132431 0.0
221 1 55.4079881457 64.0558132431 0.0
222 1 60.4658881457 64.8860132431 0.0
223 1 64.9589881457 65.4794132431 0.0
224 1 69.9068881457 65.8943132431 0.0
225 1 74.0219881457 64.7826132431 0.0
226 1 0.000964145654179 69.5382132431 0.0
227 1 5.67890814565 69.4429132431 0.0
228 1 11.2727881457 69.2257132431 0.0
229 1 16.6859881457 69.2588132431 0.0
230 1 21.8547881457 68.6573132431 0.0
231 1 27.0405881457 68.9833132431 0.0
232 1 31.7510881457 68.4756132431 0.0
233 1 36.8899881457 67.9344132431 0.0
234 1 42.2172881457 68.0213132431 0.0
235 1 47.7071881457 68.2969132431 0.0
236 1 54.1355881457 68.6022132431 0.0
237 1 57.1220881457 68.9339132431 0.0
238 1 61.9000881457 70.1545132431 0.0
239 1 67.2723881457 70.3935132431 0.0
240 1 72.7975881457 70.3439132431 0.0
241 1 2.85104814565 73.5607132431 0.0
242 1 8.42893814565 73.4948132431 0.0
243 1 13.9406881457 73.6320132431 0.0
244 1 21.0642881457 73.0579132431 0.0
245 1 24.0810881457 73.3134132431 0.0
246 1 29.2275881457 73.5921132431 0.0
247 1 34.3071881457 72.7131132431 0.0
248 1 39.3749881457 72.3695132431 0.0
249 1 44.3737881457 72.3352132431 0.0
250 1 49.2498881457 73.5594132431 0.0
251 1 54.1597881457 73.8342132431 0.0
252 1 59.1796881457 76.0523132431 0.0
253 1 64.8402881457 74.7041132431 0.0
254 1 70.2809881457 74.6250132431 0.0
255 1 75.6206881457 74.0600132431 0.0
256 1 76.2045881457 3.88315324306 0.0
257 1 4.90231814565 2.50312324306 0.0
258 1 10.3217881457 2.44610324306 0.0
259 1 15.7576881457 2.92380324306 0.0
260 1 21.1826881457 3.13962324306 0.0
261 1 26.0707881457 3.26532324306 0.0
262 1 31.4895881457 2.77677324306 0.0
263 1 36.8902881457 1.61659324306 0.0
264 1 42.5678881457 1.58323324306 0.0
265 1 47.7757881457 2.75381324306 0.0
266 1 53.0360881457 3.47810324306 0.0
267 1 58.2404881457 3.74296324306 0.0
268 1 63.3376881457 4.23905324306 0.0
269 1 68.3621881457 4.27611324306 0.0
270 1 73.2191881457 4.26242324306 0.0
271 1 2.29117814565 7.29442324306 0.0
272 1 7.52980814565 6.55076324306 0.0
273 1 12.9965881457 6.80924324306 0.0
274 1 18.2593881457 7.75387324306 0.0
275 1 23.2077881457 7.91205324306 0.0
276 1 30.4340881457 8.33909324306 0.0
277 1 34.8245881457 6.50532324306 0.0
278 1 39.6393881457 6.32007324306 0.0
279 1 44.2876881457 6.62784324306 0.0
280 1 51.1832881457 8.78881324306 0.0
281 1 55.7618881457 7.74988324306 0.0
282 1 60.7103881457 8.83259324306 0.0
283 1 65.6451881457 9.11948324306 0.0
284 1 70.4746881457 9.07798324306 0.0
285 1 75.5819881457 8.51058324306 0.0
286 1 0.300398145654 12.1382132431 0.0
287 1 5.47015814565 11.3825132431 0.0
288 1 10.3708881457 11.1033132431 0.0
289 1 15.3258881457 11.7487132431 0.0
290 1 22.4290881457 13.7002132431 0.0
291 1 26.4709881457 11.5672132431 0.0
292 1 32.0542881457 10.8600132431 0.0
293 1 37.1841881457 11.2038132431 0.0
294 1 41.7622881457 11.3542132431 0.0
295 1 46.7953881457 11.1692132431 0.0
296 1 52.4919881457 11.4738132431 0.0
297 1 57.4569881457 12.8633132431 0.0
298 1 62.7085881457 13.6225132431 0.0
299 1 67.9266881457 13.7056132431 0.0
300 1 73.2676881457 13.2549132431 0.0
301 1 3.16741814565 16.6057132431 0.0
302 1 6.15472814565 16.5741132431 0.0
303 1 12.4827881457 16.0915132431 0.0
304 1 17.8549881457 16.0561132431 0.0
305 1 24.2142881457 16.1267132431 0.0
306 1 29.5383881457 15.8018132431 0.0
307 1 34.2750881457 15.5880132431 0.0
308 1 39.3016881457 16.0402132431 0.0
309 1 44.4385881457 15.8131132431 0.0
310 1 49.5265881457 15.8140132431 0.0
311 1 55.1957881457 14.8541132431 0.0
312 1 59.2116881457 17.9011132431 0.0
313 1 66.0946881457 19.1160132431 0.0
314 1 72.7336881457 18.9763132431 0.0
315 1 76.7264881457 17.1404132431 0.0
316 1 0.805478145654 21.6261132431 0.0
317 1 5.60887814565 20.9706132431 0.0
318 1 10.4453881457 20.5432132431 0.0
319 1 15.5597881457 20.7041132431 0.0
320 1 20.8535881457 20.3221132431 0.0
321 1 26.1692881457 20.7939132431 0.0
322 1 29.1936881457 21.0627132431 0.0
323 1 36.1496881457 20.4804132431 0.0
324 1 41.4598881457 20.4242132431 0.0
325 1 46.6394881457 20.2538132431 0.0
326 1 51.6749881457 20.6558132431 0.0
327 1 56.7020881457 22.3588132431 0.0
328 1 62.0595881457 22.0923132431 0.0
329 1 67.9572881457 21.4656132431 0.0
330 1 74.0288881457 21.6848132431 0.0
331 1 0.704668145654 26.9238132431 0.0
332 1 7.64734814565 25.3851132431 0.0
333 1 12.4145881457 25.2925132431 0.0
334 1 17.6724881457 25.0552132431 0.0
335 1 22.7277881457 24.7547132431 0.0
336 1 28.2237881457 25.1431132431 0.0
337 1 33.4480881457 25.1616132431 0.0
338 1 38.6457881457 24.9513132431 0.0
339 1 43.7840881457 25.0708132431 0.0
340 1 48.7576881457 24.7462132431 0.0
341 1 53.8420881457 25.6369132431 0.0
342 1 59.7107881457 26.4119132431 0.0
343 1 65.3313881457 26.0098132431 0.0
344 1 70.7779881457 25.6360132431 0.0
345 1 76.0831881457 26.4899132431 0.0
346 1 0.173050145654 31.0925132431 0.0
347 1 5.43766814565 30.2884132431 0.0
348 1 10.7807881457 27.8508132431 0.0
349 1 15.0954881457 30.0550132431 0.0
350 1 20.0255881457 29.5170132431 0.0
351 1 25.2192881457 28.8826132431 0.0
352 1 32.8592881457 30.9336132431 0.0
353 1 36.6874881457 29.6207132431 0.0
354 1 41.5011881457 29.8338132431 0.0
355 1 46.4535881457 29.7881132431 0.0
356 1 51.6729881457 27.7140132431 0.0
357 1 57.7983881457 31.5555132431 0.0
358 1 64.3566881457 31.7274132431 0.0
359 1 68.4211881457 30.1942132431 0.0
360 1 73.2355881457 30.6428132431 0.0
361 1 3.15329814565 35.2616132431 0.0
362 1 8.08635814565 34.8480132431 0.0
363 1 13.1517881457 34.6749132431 0.0
364 1 18.3462881457 34.2756132431 0.0
365 1 23.3809881457 33.8558132431 0.0
366 1 28.3074881457 33.0737132431 0.0
367 1 34.0683881457 33.7166132431 0.0
368 1 39.1014881457 34.6596132431 0.0
369 1 43.9530881457 34.6490132431 0.0
370 1 48.5224881457 34.8992132431 0.0
371 1 53.7429881457 34.7354132431 0.0
372 1 59.2724881457 34.1682132431 0.0
373 1 65.5806881457 34.4782132431 0.0
374 1 70.8446881457 34.7583132431 0.0
375 1 76.0452881457 35.4066132431 0.0
376 1 0.274143145654 39.7239132431 0.0
377 1 5.55038814565 39.7805132431 0.0
378 1 10.5396881457 39.3451132431 0.0
379 1 15.6855881457 39.0233132431 0.0
380 1 20.5541881457 38.9658132431 0.0
381 1 23.5238881457 38.5166132431 0.0
382 1 30.9635881457 37.6194132431 0.0
383 1 36.1186881457 38.8179132431 0.0
384 1 41.5160881457 39.2888132431 0.0
385 1 46.8106881457 39.0346132431 0.0
386 1 52.3407881457 38.9351132431 0.0
387 1 57.9593881457 36.9028132431 0.0
388 1 62.6921881457 39.3828132431 0.0
389 1 67.6818881457 38.8598132431 0.0
390 1 73.0249881457 39.3055132431 0.0
391 1 2.85399814565 44.3689132431 0.0
392 1 7.72541814565 44.7889132431 0.0
393 1 10.7319881457 44.7840132431 0.0
394 1 17.2837881457 43.7297132431 0.0
395 1 22.4657881457 42.6573132431 0.0
396 1 27.9368881457 41.8306132431 0.0
397 1 32.9098881457 42.6577132431 0.0
398 1 40.1900881457 44.8760132431 0.0
399 1 44.6285881457 43.3874132431 0.0
400 1 50.0470881457 43.2798132431 0.0
401 1 55.4816881457 43.2339132431 0.0
402 1 60.7408881457 43.7951132431 0.0
403 1 66.0272881457 43.7422132431 0.0
404 1 71.3419881457 41.7935132431 0.0
405 1 76.1192881457 44.3235132431 0.0
406 1 0.262259145654 49.2234132431 0.0
407 1 4.93777814565 49.3401132431 0.0
408 1 10.0178881457 49.4227132431 0.0
409 1 15.0212881457 48.5178132431 0.0
410 1 20.3083881457 47.6696132431 0.0
411 1 25.3894881457 46.3296132431 0.0
412 1 30.0405881457 46.9994132431 0.0
413 1 35.4185881457 47.0630132431 0.0
414 1 41.8783881457 47.4057132431 0.0
415 1 47.4100881457 47.7489132431 0.0
416 1 52.7190881457 47.7158132431 0.0
417 1 57.9336881457 47.8642132431 0.0
418 1 63.4484881457 48.1685132431 0.0
419 1 68.8252881457 48.1011132431 0.0
420 1 73.6966881457 48.7334132431 0.0
421 1 2.11472814565 53.6982132431 0.0
422 1 7.45357814565 53.8227132431 0.0
423 1 12.9314881457 53.5069132431 0.0
424 1 18.0269881457 52.6156132431 0.0
425 1 21.0289881457 52.4236132431 0.0
426 1 28.4017881457 49.5327132431 0.0
427 1 32.7166881457 51.7839132431 0.0
428 1 40.1559881457 52.7747132431 0.0
429 1 44.5710881457 52.1248132431 0.0
430 1 49.8580881457 52.2760132431 0.0
431 1 55.0993881457 52.1738132431 0.0
432 1 60.3797881457 52.4652132431 0.0
433 1 65.3822881457 53.1093132431 0.0
434 1 68.3766881457 53.3317132431 0.0
435 1 75.2422881457 53.6047132431 0.0
436 1 77.4788881457 58.2680132431 0.0
437 1 4.43175814565 57.8903132431 0.0
438 1 12.0098881457 59.2879132431 0.0
439 1 15.9428881457 57.6426132431 0.0
440 1 20.8196881457 56.8733132431 0.0
441 1 25.5779881457 56.1479132431 0.0
442 1 30.7498881457 56.6443132431 0.0
443 1 36.0350881457 55.2581132431 0.0
444 1 41.4207881457 55.5265132431 0.0
445 1 46.9407881457 56.8497132431 0.0
446 1 52.2944881457 56.4891132431 0.0
447 1 57.5069881457 56.8550132431 0.0
448 1 62.2777881457 57.6161132431 0.0
449 1 67.2776881457 57.7533132431 0.0
450 1 72.1587881457 57.7753132431 0.0
451 1 2.39846814565 62.4184132431 0.0
452 1 7.72405814565 61.9549132431 0.0
453 1 13.7281881457 61.7723132431 0.0
454 1 19.2802881457 61.6922132431 0.0
455 1 24.4998881457 58.9721132431 0.0
456 1 29.0229881457 61.3410132431 0.0
457 1 34.4028881457 60.2520132431 0.0
458 1 39.6854881457 58.0120132431 0.0
459 1 46.3046881457 62.6051132431 0.0
460 1 50.2132881457 61.1275132431 0.0
461 1 55.2392881457 61.0629132431 0.0
462 1 60.1735881457 61.8876132431 0.0
463 1 65.2227881457 62.4601132431 0.0
464 1 70.6821881457 60.4092132431 0.0
465 1 76.9204881457 64.0528132431 0.0
466 1 0.260049145654 66.5372132431 0.0
467 1 5.82348814565 66.4403132431 0.0
468 1 11.1306881457 66.2101132431 0.0
469 1 16.4592881457 66.2381132431 0.0
470 1 21.9154881457 65.6500132431 0.0
471 1 26.9740881457 65.9849132431 0.0
472 1 32.1976881457 65.4871132431 0.0
473 1 36.7630881457 64.9300132431 0.0
474 1 41.8606881457 65.0470132431 0.0
475 1 47.7449881457 65.2690132431 0.0
476 1 52.9910881457 65.8204132431 0.0
477 1 57.6936881457 65.9942132431 0.0
478 1 62.4479881457 67.1571132431 0.0
479 1 67.2943881457 67.3743132431 0.0
480 1 72.5160881457 67.3629132431 0.0
481 1 2.85678814565 70.5539132431 0.0
482 1 8.51836814565 70.4895132431 0.0
483 1 13.9740881457 70.6102132431 0.0
484 1 19.4645881457 70.4846132431 0.0
485 1 24.3604881457 70.3218132431 0.0
486 1 29.5804881457 70.5825132431 0.0
487 1 34.4738881457 69.7198132431 0.0
488 1 39.5302881457 69.3712132431 0.0
489 1 44.8971881457 69.3791132431 0.0
490 1 49.6991881457 70.5868132431 0.0
491 1 52.6529881457 71.2039132431 0.0
492 1 59.0456881457 71.2532132431 0.0
493 1 64.5293881457 71.6914132431 0.0
494 1 70.0502881457 71.6197132431 0.0
495 1 75.7341881457 71.0509132431 0.0
496 1 0.147756145654 74.9111132431 0.0
497 1 5.65125814565 74.6891132431 0.0
498 1 11.1483881457 74.8100132431 0.0
499 1 16.4277881457 75.3643132431 0.0
500 1 19.4460881457 75.5830132431 0.0
501 1 26.5672881457 75.0605132431 0.0
502 1 32.0444881457 74.6845132431 0.0
503 1 36.9500881457 74.1291132431 0.0
504 1 41.8818881457 74.0072132431 0.0
505 1 46.4104881457 74.5284132431 0.0
506 1 51.5800881457 75.4735132431 0.0
507 1 57.2384881457 73.7137132431 0.0
508 1 62.2243881457 76.2417132431 0.0
509 1 67.5923881457 76.0231132431 0.0
510 1 73.0976881457 75.7509132431 0.0
511 1 5.50952814565 77.6894132431 0.0
512 1 10.6968881457 77.7896132431 0.0
513 1 15.9285881457 78.3234132431 0.0
514 1 21.0320881457 78.1594132431 0.0
515 1 26.4814881457 78.0953132431 0.0
516 1 33.7231881457 77.1939132431 0.0
517 1 36.7511881457 77.1253132431 0.0
518 1 42.0361881457 77.0118132431 0.0
519 1 47.2271881457 79.2850132431 0.0
520 1 52.2190881457 80.2381132431 0.0
521 1 57.9480881457 78.8190132431 0.0
522 1 63.0808881457 79.1317132431 0.0
523 1 68.2008881457 78.9918132431 0.0
524 1 73.2814881457 78.7723132431 0.0
525 1 0.134514145654 77.9077132431 0.0
526 1 2.87328814565 79.1312132431 0.0
527 1 8.06660814565 79.2593132431 0.0
528 1 13.1682881457 79.4977132431 0.0
529 1 18.5325881457 79.8280132431 0.0
530 1 23.7713881457 79.4729132431 0.0
531 1 28.9928881457 79.8088132431 0.0
532 1 32.0267881457 79.6743132431 0.0
533 1 39.4285881457 78.5483132431 0.0
534 1 45.0483881457 77.2087132431 0.0
535 1 50.0718881457 78.1254132431 0.0
536 1 55.2557881457 80.2183132431 0.0
537 1 60.4276881457 80.5441132431 0.0
538 1 65.6887881457 80.6592132431 0.0
539 1 70.8136881457 80.5244132431 0.0
540 1 76.1330881457 79.7608132431 0.0
541 2 0.812158145654 1.21519324306 0.0
542 2 3.57346814565 1.79613324306 0.0
543 2 2.65313814565 80.6135132431 0.0
544 2 7.82908814565 80.7440132431 0.0
545 2 8.96112814565 1.81057324306 0.0
546 2 6.25557814565 1.82818324306 0.0
547 2 13.1566881457 80.9965132431 0.0
548 2 14.4457881457 2.17985324306 0.0
549 2 11.7315881457 1.92483324306 0.0
550 2 18.5355881457 0.242253243058 0.0
551 2 19.8423881457 2.44934324306 0.0
552 2 17.1379881457 2.32846324306 0.0
553 2 23.7244881457 80.9939132431 0.0
554 2 24.8821881457 2.33538324306 0.0
555 2 22.4173881457 2.27629324306 0.0
556 2 28.7402881457 0.216787243058 0.0
557 2 30.0671881457 2.28188324306 0.0
558 2 27.3908881457 2.52832324306 0.0
559 2 35.4116881457 1.20612324306 0.0
560 2 33.0159881457 80.8189132431 0.0
561 2 32.7500881457 1.95521324306 0.0
562 2 39.5783881457 80.0444132431 0.0
563 2 41.1531881457 0.990303243058 0.0
564 2 38.2976881457 1.03593324306 0.0
565 2 46.3858881457 80.5603132431 0.0
566 2 46.6072881457 1.80399324306 0.0
567 2 44.0233881457 1.08691324306 0.0
568 2 51.3793881457 0.415483243058 0.0
569 2 51.7742881457 2.68062324306 0.0
570 2 49.1904881457 2.20495324306 0.0
571 2 55.5559881457 0.617453243058 0.0
572 2 56.9767881457 2.92713324306 0.0
573 2 54.3841881457 2.82015324306 0.0
574 2 60.6866881457 0.943753243058 0.0
575 2 62.1305881457 3.33134324306 0.0
576 2 59.5819881457 3.08387324306 0.0
577 2 65.7778881457 1.08515324306 0.0
578 2 67.1128881457 3.42711324306 0.0
579 2 64.6063881457 3.42977324306 0.0
580 2 70.8131881457 0.959683243058 0.0
581 2 72.0556881457 3.31084324306 0.0
582 2 69.5843881457 3.38413324306 0.0
583 2 76.9355881457 2.57397324306 0.0
584 2 76.8223881457 0.020194243058 0.0
585 2 77.0520881457 5.12699324306 0.0
586 2 0.861408145654 6.81358324306 0.0
587 2 76.7284881457 7.54219324306 0.0
588 2 4.77120814565 4.00027324306 0.0
589 2 6.12575814565 6.02543324306 0.0
590 2 3.48700814565 6.37648324306 0.0
591 2 10.3258881457 3.94393324306 0.0
592 2 11.6597881457 6.12458324306 0.0
593 2 8.91818814565 5.97751324306 0.0
594 2 15.8386881457 4.42302324306 0.0
595 2 17.0387881457 6.86269324306 0.0
596 2 14.4220881457 6.35007324306 0.0
597 2 21.0112881457 4.64156324306 0.0
598 2 21.9811881457 7.05104324306 0.0
599 2 19.5179881457 6.92929324306 0.0
600 2 25.9289881457 4.77611324306 0.0
601 2 26.6741881457 7.45743324306 0.0
602 2 24.4328881457 7.03965324306 0.0
603 2 31.6425881457 4.27373324306 0.0
604 2 33.3943881457 6.06328324306 0.0
605 2 31.1112881457 6.99934324306 0.0
606 2 37.0262881457 3.12655324306 0.0
607 2 38.4033881457 5.46308324306 0.0
608 2 35.9717881457 5.54685324306 0.0
609 2 42.3405881457 3.08982324306 0.0
610 2 43.2058881457 5.59438324306 0.0
611 2 40.8490881457 5.42621324306 0.0
612 2 47.5222881457 4.24768324306 0.0
613 2 47.7544881457 7.08468324306 0.0
614 2 45.6870881457 6.09284324306 0.0
615 2 52.9828881457 4.97582324306 0.0
616 2 54.4510881457 7.03674324306 0.0
617 2 52.0620881457 7.57604324306 0.0
618 2 58.4305881457 5.23194324306 0.0
619 2 59.6300881457 7.77864324306 0.0
620 2 57.1562881457 7.23665324306 0.0
621 2 63.3076881457 5.74987324306 0.0
622 2 64.4551881457 8.19433324306 0.0
623 2 62.0052881457 8.06627324306 0.0
624 2 68.2117881457 5.78632324306 0.0
625 2 69.2603881457 8.19455324306 0.0
626 2 66.8508881457 8.20977324306 0.0
627 2 72.9560881457 5.74826324306 0.0
628 2 74.2118881457 7.90366324306 0.0
629 2 71.6819881457 8.17685324306 0.0
630 2 2.48988814565 8.78932324306 0.0
631 2 4.05300814565 10.8885132431 0.0
632 2 1.47696814565 11.2036132431 0.0
633 2 6.59155814565 10.3835132431 0.0
634 2 9.10770814565 10.2950132431 0.0
635 2 7.66741814565 8.04521324306 0.0
636 2 13.0289881457 8.30976324306 0.0
637 2 14.2003881457 10.7615132431 0.0
638 2 11.7033881457 10.4360132431 0.0
639 2 18.2802881457 9.26523324306 0.0
640 2 18.8917881457 12.0904132431 0.0
641 2 16.7179881457 11.2084132431 0.0
642 2 23.2736881457 9.42211324306 0.0
643 2 25.0084881457 11.2357132431 0.0
644 2 22.9160881457 12.2727132431 0.0
645 2 28.9529881457 8.50236324306 0.0
646 2 27.0714881457 10.1820132431 0.0
647 2 34.8407881457 8.00912324306 0.0
648 2 35.9399881457 10.3721132431 0.0
649 2 33.4194881457 10.2330132431 0.0
650 2 39.5990881457 7.83368324306 0.0
651 2 40.6536881457 10.3457132431 0.0
652 2 38.3454881457 10.2596132431 0.0
653 2 44.2030881457 8.13401324306 0.0
654 2 45.4629881457 10.4670132431 0.0
655 2 43.0025881457 10.5123132431 0.0
656 2 49.7070881457 8.63606324306 0.0
657 2 47.5947881457 9.88641324306 0.0
658 2 55.6126881457 9.23716324306 0.0
659 2 56.4842881457 11.7142132431 0.0
660 2 53.9551881457 11.1387132431 0.0
661 2 60.4991881457 10.3252132431 0.0
662 2 61.4941881457 12.7243132431 0.0
663 2 58.8975881457 12.4234132431 0.0
664 2 65.4952881457 10.6278132431 0.0
665 2 66.6283881457 12.9394132431 0.0
666 2 64.0388881457 12.9038132431 0.0
667 2 70.4639881457 10.5847132431 0.0
668 2 71.8668881457 12.7020132431 0.0
669 2 69.2157881457 12.9169132431 0.0
670 2 75.6416881457 10.0065132431 0.0
671 2 77.1957881457 11.8371132431 0.0
672 2 74.5035881457 12.3836132431 0.0
673 2 0.472927145654 13.6324132431 0.0
674 2 1.92746814565 15.7796132431 0.0
675 2 77.8371881457 16.1347132431 0.0
676 2 6.68311814565 15.1873132431 0.0
677 2 6.28026814565 12.6546132431 0.0
678 2 8.72759814565 14.0153132431 0.0
679 2 10.4072881457 12.5980132431 0.0
680 2 11.2951881457 15.1570132431 0.0
681 2 15.2047881457 13.2421132431 0.0
682 2 16.4639881457 15.4761132431 0.0
683 2 13.8178881457 15.4029132431 0.0
684 2 20.9331881457 13.6471132431 0.0
685 2 18.7148881457 14.8164132431 0.0
686 2 25.5549881457 15.4214132431 0.0
687 2 28.1464881457 15.2371132431 0.0
688 2 26.7244881457 13.0556132431 0.0
689 2 30.6261881457 14.7608132431 0.0
690 2 33.0704881457 14.6902132431 0.0
691 2 31.8713881457 12.3508132431 0.0
692 2 37.0838881457 12.7018132431 0.0
693 2 38.1157881457 15.1159132431 0.0
694 2 35.6035881457 14.8911132431 0.0
695 2 41.7578881457 12.8574132431 0.0
696 2 43.1311881457 15.0659132431 0.0
697 2 40.5739881457 15.2329132431 0.0
698 2 46.9450881457 12.6719132431 0.0
699 2 48.2719881457 14.9774132431 0.0
700 2 45.7171881457 15.0119132431 0.0
701 2 52.2061881457 12.9392132431 0.0
702 2 53.6941881457 14.7232132431 0.0
703 2 50.8933881457 15.1707132431 0.0
704 2 55.6655881457 16.2744132431 0.0
705 2 57.7290881457 17.6855132431 0.0
706 2 55.3798881457 18.8837132431 0.0
707 2 62.3514881457 15.0995132431 0.0
708 2 62.5503881457 17.8844132431 0.0
709 2 60.4570881457 17.0667132431 0.0
710 2 67.9151881457 15.2211132431 0.0
711 2 68.9790881457 17.7843132431 0.0
712 2 66.8376881457 17.8043132431 0.0
713 2 73.5110881457 14.7456132431 0.0
714 2 75.3382881457 16.5813132431 0.0
715 2 73.2500881457 17.5657132431 0.0
716 2 2.95767814565 18.0915132431 0.0
717 2 4.30449814565 20.2431132431 0.0
718 2 1.85889814565 20.5651132431 0.0
719 2 7.09896814565 17.7392132431 0.0
720 2 9.20631814565 19.6890132431 0.0
721 2 6.79341814565 20.0741132431 0.0
722 2 12.7388881457 17.5719132431 0.0
723 2 14.3158881457 19.8407132431 0.0
724 2 11.7572881457 19.8307132431 0.0
725 2 18.0205881457 17.5507132431 0.0
726 2 19.5043881457 19.6316132431 0.0
727 2 16.8560881457 19.9181132431 0.0
728 2 23.9015881457 17.6035132431 0.0
729 2 22.2450881457 19.7051132431 0.0
730 2 24.9392881457 19.9046132431 0.0
731 2 29.9898881457 19.7857132431 0.0
732 2 30.1089881457 17.1941132431 0.0
733 2 32.3104881457 18.6393132431 0.0
734 2 34.1151881457 17.0803132431 0.0
735 2 34.9377881457 19.5692132431 0.0
736 2 39.0348881457 17.5201132431 0.0
737 2 40.1215881457 19.7321132431 0.0
738 2 37.4777881457 19.7489132431 0.0
739 2 44.2220881457 17.3058132431 0.0
740 2 45.3307881457 19.5168132431 0.0
741 2 42.7298881457 19.6038132431 0.0
742 2 49.4178881457 17.3179132431 0.0
743 2 50.5085881457 19.7128132431 0.0
744 2 47.9638881457 19.5326132431 0.0
745 2 55.5887881457 21.3499132431 0.0
746 2 53.1449881457 20.3336132431 0.0
747 2 59.3249881457 19.4032132431 0.0
748 2 60.6367881457 21.6005132431 0.0
749 2 58.0266881457 21.6527132431 0.0
750 2 64.6135881457 19.1889132431 0.0
751 2 62.6807881457 20.7163132431 0.0
752 2 71.2430881457 19.0240132431 0.0
753 2 69.0178881457 20.3822132431 0.0
754 2 77.8470881457 20.9511132431 0.0
755 2 76.6954881457 18.6455132431 0.0
756 2 75.3664881457 20.9939132431 0.0
757 2 1.42681814565 25.6131132431 0.0
758 2 1.36586814565 23.0066132431 0.0
759 2 3.60517814565 24.1931132431 0.0
760 2 5.40092814565 22.4441132431 0.0
761 2 6.31145814565 24.7141132431 0.0
762 2 10.2029881457 22.0251132431 0.0
763 2 11.2499881457 24.3406132431 0.0
764 2 8.80622814565 24.4259132431 0.0
765 2 15.2569881457 22.1875132431 0.0
766 2 16.3225881457 24.3871132431 0.0
767 2 13.7314881457 24.5360132431 0.0
768 2 20.4750881457 21.7908132431 0.0
769 2 21.4337881457 24.0018132431 0.0
770 2 18.8850881457 24.1418132431 0.0
771 2 25.7949881457 22.2539132431 0.0
772 2 26.8743881457 24.4748132431 0.0
773 2 24.1453881457 24.2452132431 0.0
774 2 30.0930881457 22.2865132431 0.0
775 2 32.1436881457 24.3675132431 0.0
776 2 29.5516881457 24.4574132431 0.0
777 2 36.0420881457 21.9885132431 0.0
778 2 37.3117881457 24.2427132431 0.0
779 2 34.7088881457 24.3149132431 0.0
780 2 41.3770881457 21.9312132431 0.0
781 2 42.4994881457 24.2813132431 0.0
782 2 39.9307881457 24.1579132431 0.0
783 2 46.3955881457 21.7407132431 0.0
784 2 47.4831881457 23.9640132431 0.0
785 2 44.9724881457 24.1377132431 0.0
786 2 51.5962881457 22.1562132431 0.0