# input file

1350 atoms
2 atom types

0.0 78.1688933798 xlo xhi
0.0 81.3633586391 ylo yhi
-10.0 10.0 zlo zhi
0.0 0.0 0.0 xy xz yz

Masses

1 28.0855 #Si
2 15.9994 #O

Atoms

1 1 2.20514446677 2.30517931956 0.0
2 1 7.17833446677 2.16529931956 0.0
3 1 12.2695844668 1.55346931956 0.0
4 1 17.3771844668 1.53092931956 0.0
5 1 22.3809844668 2.19846931956 0.0
6 1 27.6241844668 2.09990931956 0.0
7 1 32.8854844668 1.17013931956 0.0
8 1 38.3468844668 1.16397931956 0.0
9 1 44.7593844668 1.35584931956 0.0
10 1 51.3296844668 0.887349319561 0.0
11 1 54.3544844668 1.10365931956 0.0
12 1 59.2178844668 1.29933931956 0.0
13 1 64.7563844668 1.17040931956 0.0
14 1 70.4648844668 1.59673931956 0.0
15 1 75.5032844668 1.84437931956 0.0
16 1 77.6668844668 6.79926931956 0.0
17 1 4.81149446677 6.89217931956 0.0
18 1 10.3167844668 6.40164931956 0.0
19 1 15.1270844668 6.10479931956 0.0
20 1 19.4828844668 8.75459931956 0.0
21 1 24.8707844668 6.64228931956 0.0
22 1 30.2270844668 6.01105931956 0.0
23 1 35.4322844668 5.42884931956 0.0
24 1 39.8426844668 3.78060931956 0.0
25 1 46.4707844668 5.90789931956 0.0
26 1 51.2428844668 6.56904931956 0.0
27 1 56.8410844668 6.07156931956 0.0
28 1 62.0393844668 5.41212931956 0.0
29 1 67.4452844668 5.28291931956 0.0
30 1 72.7472844668 6.36530931956 0.0
31 1 2.14246446677 11.2488793196 0.0
32 1 7.62504446677 10.8153793196 0.0
33 1 12.8524844668 11.0970793196 0.0
34 1 18.0014844668 11.3824793196 0.0
35 1 22.9405844668 11.4641793196 0.0
36 1 28.0054844668 10.6661793196 0.0
37 1 33.1594844668 10.1844793196 0.0
38 1 38.3221844668 9.38872931956 0.0
39 1 43.5625844668 9.68267931956 0.0
40 1 48.5329844668 10.9812793196 0.0
41 1 52.6850844668 9.24567931956 0.0
42 1 60.0186844668 10.1815793196 0.0
43 1 65.1414844668 9.60227931956 0.0
44 1 69.7310844668 12.0663793196 0.0
45 1 75.2931844668 11.2999793196 0.0
46 1 0.293342466768 15.8841793196 0.0
47 1 5.64048446677 15.1562793196 0.0
48 1 10.1974844668 17.6127793196 0.0
49 1 15.4426844668 15.8347793196 0.0
50 1 20.4182844668 16.1292793196 0.0
51 1 25.6506844668 15.6104793196 0.0
52 1 30.8814844668 14.9490793196 0.0
53 1 35.8313844668 14.2727793196 0.0
54 1 40.9025844668 13.9977793196 0.0
55 1 45.9259844668 14.8707793196 0.0
56 1 51.2083844668 15.0384793196 0.0
57 1 57.4534844668 14.4782793196 0.0
58 1 63.0906844668 14.4048793196 0.0
59 1 68.5979844668 14.8329793196 0.0
60 1 73.1674844668 17.9771793196 0.0
61 1 3.75144446677 19.8101793196 0.0
62 1 8.79599446677 20.2634793196 0.0
63 1 13.6716844668 20.8003793196 0.0
64 1 18.2357844668 20.6668793196 0.0
65 1 23.2023844668 20.3255793196 0.0
66 1 28.6760844668 19.6955793196 0.0
67 1 33.9444844668 19.2536793196 0.0
68 1 38.8382844668 18.7039793196 0.0
69 1 43.3736844668 21.2657793196 0.0
70 1 48.7114844668 19.4322793196 0.0
71 1 52.8974844668 17.5575793196 0.0
72 1 60.4065844668 18.5161793196 0.0
73 1 65.6647844668 18.8171793196 0.0
74 1 71.1089844668 20.1623793196 0.0
75 1 76.7933844668 20.7711793196 0.0
76 1 1.08177446677 24.7016793196 0.0
77 1 5.85818446677 24.6389793196 0.0
78 1 10.6214844668 25.2014793196 0.0
79 1 15.7057844668 25.6911793196 0.0
80 1 20.9975844668 25.1946793196 0.0
81 1 26.2908844668 24.1840793196 0.0
82 1 31.6832844668 23.8935793196 0.0
83 1 36.5312844668 23.7173793196 0.0
84 1 41.6518844668 23.7337793196 0.0
85 1 46.6458844668 24.3421793196 0.0
86 1 52.3346844668 23.2706793196 0.0
87 1 57.5508844668 22.5735793196 0.0
88 1 62.6514844668 23.1027793196 0.0
89 1 67.7927844668 23.5162793196 0.0
90 1 72.1720844668 22.9615793196 0.0
91 1 2.85923446677 29.4084793196 0.0
92 1 7.86460446677 29.7021793196 0.0
93 1 12.9132844668 29.9936793196 0.0
94 1 16.9302844668 28.4448793196 0.0
95 1 23.7915844668 28.9702793196 0.0
96 1 28.9497844668 28.3221793196 0.0
97 1 33.8706844668 28.5918793196 0.0
98 1 38.8851844668 28.3089793196 0.0
99 1 44.0223844668 28.6304793196 0.0
100 1 48.3890844668 26.7786793196 0.0
101 1 55.3701844668 27.3749793196 0.0
102 1 60.0686844668 27.4162793196 0.0
103 1 65.3422844668 27.8203793196 0.0
104 1 70.6403844668 28.2143793196 0.0
105 1 75.8844844668 28.8575793196 0.0
106 1 78.1234844668 33.6579793196 0.0
107 1 5.06489446677 34.1949793196 0.0
108 1 10.4169844668 34.4592793196 0.0
109 1 15.9529844668 34.1966793196 0.0
110 1 21.1717844668 33.6699793196 0.0
111 1 26.6830844668 33.0937793196 0.0
112 1 31.4094844668 35.1355793196 0.0
113 1 36.6557844668 33.1077793196 0.0
114 1 41.8303844668 32.9712793196 0.0
115 1 47.2323844668 32.3870793196 0.0
116 1 52.5603844668 31.8411793196 0.0
117 1 57.5981844668 32.2871793196 0.0
118 1 62.6118844668 32.0262793196 0.0
119 1 67.8641844668 32.4124793196 0.0
120 1 72.9363844668 32.9617793196 0.0
121 1 2.06149446677 38.4907793196 0.0
122 1 7.11238446677 38.6613793196 0.0
123 1 12.5344844668 38.4720793196 0.0
124 1 19.0963844668 38.4658793196 0.0
125 1 24.3050844668 37.6020793196 0.0
126 1 29.9275844668 37.7407793196 0.0
127 1 34.7595844668 38.0751793196 0.0
128 1 39.5307844668 37.5715793196 0.0
129 1 44.6257844668 36.9865793196 0.0
130 1 49.7982844668 36.5049793196 0.0
131 1 55.0631844668 36.7406793196 0.0
132 1 61.5365844668 36.5021793196 0.0
133 1 64.5416844668 36.5835793196 0.0
134 1 69.6725844668 37.2182793196 0.0
135 1 75.0976844668 37.7769793196 0.0
136 1 77.0145844668 42.6429793196 0.0
137 1 4.06692446677 43.2022793196 0.0
138 1 9.97268446677 42.8628793196 0.0
139 1 14.5734844668 40.6698793196 0.0
140 1 22.1802844668 42.4675793196 0.0
141 1 27.4511844668 41.7032793196 0.0
142 1 32.3796844668 42.6588793196 0.0
143 1 36.9858844668 42.6091793196 0.0
144 1 42.0642844668 41.8401793196 0.0
145 1 46.9188844668 41.2396793196 0.0
146 1 51.9540844668 41.0527793196 0.0
147 1 56.6489844668 41.9461793196 0.0
148 1 61.4898844668 41.8182793196 0.0
149 1 66.6978844668 41.4339793196 0.0
150 1 71.9909844668 41.7476793196 0.0
151 1 1.49889446677 47.3837793196 0.0
152 1 5.74759446677 45.7008793196 0.0
153 1 13.2462844668 46.1627793196 0.0
154 1 17.8312844668 44.0901793196 0.0
155 1 25.8956844668 46.2866793196 0.0
156 1 28.8644844668 46.6776793196 0.0
157 1 34.2696844668 47.5607793196 0.0
158 1 39.5995844668 46.7586793196 0.0
159 1 44.7693844668 46.2786793196 0.0
160 1 49.6799844668 45.7627793196 0.0
161 1 53.8306844668 48.7682793196 0.0
162 1 59.3381844668 46.6528793196 0.0
163 1 64.7617844668 46.0871793196 0.0
164 1 69.8593844668 45.9426793196 0.0
165 1 74.2430844668 49.0785793196 0.0
166 1 78.1121844668 52.0514793196 0.0
167 1 5.41956446677 51.1984793196 0.0
168 1 11.0378844668 50.8490793196 0.0
169 1 16.4197844668 49.6435793196 0.0
170 1 20.6161844668 52.8155793196 0.0
171 1 26.8438844668 50.7446793196 0.0
172 1 29.6291844668 49.5767793196 0.0
173 1 36.7608844668 51.4557793196 0.0
174 1 42.1102844668 51.0229793196 0.0
175 1 47.1965844668 50.7372793196 0.0
176 1 52.4219844668 51.4528793196 0.0
177 1 57.6723844668 51.1389793196 0.0
178 1 62.8636844668 50.5842793196 0.0
179 1 67.7701844668 50.6143793196 0.0
180 1 72.9353844668 51.7951793196 0.0
181 1 2.86050446677 55.8504793196 0.0
182 1 8.37981446677 55.2192793196 0.0
183 1 15.3702844668 54.2228793196 0.0
184 1 18.3430844668 54.7908793196 0.0
185 1 22.8943844668 56.9196793196 0.0
186 1 28.1801844668 56.1925793196 0.0
187 1 33.8399844668 55.8052793196 0.0
188 1 39.2312844668 55.5599793196 0.0
189 1 44.4666844668 55.4757793196 0.0
190 1 49.3023844668 55.5280793196 0.0
191 1 53.4436844668 54.2882793196 0.0
192 1 60.1320844668 57.7923793196 0.0
193 1 65.4169844668 55.3417793196 0.0
194 1 70.0646844668 57.7324793196 0.0
195 1 75.6807844668 56.4638793196 0.0
196 1 0.525934466768 60.5629793196 0.0
197 1 5.66379446677 59.7280793196 0.0
198 1 10.7760844668 59.9804793196 0.0
199 1 15.3170844668 59.4853793196 0.0
200 1 20.0694844668 62.3519793196 0.0
201 1 25.7209844668 60.9710793196 0.0
202 1 31.1723844668 60.1913793196 0.0
203 1 38.4365844668 59.5336793196 0.0
204 1 41.4571844668 59.9768793196 0.0
205 1 46.6414844668 60.3069793196 0.0
206 1 52.3899844668 59.8999793196 0.0
207 1 58.0709844668 60.0161793196 0.0
208 1 63.2171844668 60.3649793196 0.0
209 1 68.7063844668 60.4244793196 0.0
210 1 73.4123844668 60.9620793196 0.0
211 1 4.83393446677 64.2666793196 0.0
212 1 7.84748446677 64.4030793196 0.0
213 1 13.1224844668 64.6985793196 0.0
214 1 18.6090844668 64.9942793196 0.0
215 1 23.5952844668 65.4569793196 0.0
216 1 28.4429844668 64.8639793196 0.0
217 1 33.5954844668 64.8497793196 0.0
218 1 38.3668844668 64.5683793196 0.0
219 1 43.7341844668 64.8075793196 0.0
220 1 49.7318844668 64.0920793196 0.0
221 1 55.0578844668 64.1140793196 0.0
222 1 59.9250844668 64.7028793196 0.0
223 1 65.2856844668 64.5534793196 0.0
224 1 70.2988844668 65.4973793196 0.0
225 1 75.3991844668 65.1081793196 0.0
226 1 77.9612844668 69.6255793196 0.0
227 1 4.86739446677 71.5834793196 0.0
228 1 10.2479844668 69.0512793196 0.0
229 1 15.7197844668 69.1266793196 0.0
230 1 21.0370844668 69.8821793196 0.0
231 1 26.3623844668 69.9317793196 0.0
232 1 31.3803844668 69.3601793196 0.0
233 1 36.5972844668 69.4844793196 0.0
234 1 41.4039844668 69.0711793196 0.0
235 1 45.2579844668 67.4524793196 0.0
236 1 51.5796844668 70.9823793196 0.0
237 1 57.2172844668 69.1915793196 0.0
238 1 62.7038844668 68.9843793196 0.0
239 1 67.3929844668 71.5254793196 0.0
240 1 72.9343844668 69.9124793196 0.0
241 1 3.44659446677 74.2532793196 0.0
242 1 8.34014446677 73.7593793196 0.0
243 1 13.3489844668 73.3664793196 0.0
244 1 18.3156844668 73.8842793196 0.0
245 1 23.5430844668 74.3376793196 0.0
246 1 30.7382844668 73.7875793196 0.0
247 1 33.7624844668 73.8946793196 0.0
248 1 39.1904844668 74.0960793196 0.0
249 1 44.4712844668 73.3837793196 0.0
250 1 49.7976844668 73.4608793196 0.0
251 1 55.0467844668 73.7567793196 0.0
252 1 60.3469844668 73.3971793196 0.0
253 1 65.7416844668 74.0429793196 0.0
254 1 70.9136844668 74.5140793196 0.0
255 1 76.2754844668 74.3321793196 0.0
256 1 77.7772844668 3.79808931956 0.0
257 1 4.74077446677 3.90138931956 0.0
258 1 9.91358446677 3.41256931956 0.0
259 1 14.8241844668 3.11620931956 0.0
260 1 19.6546844668 3.48354931956 0.0
261 1 25.0250844668 3.63498931956 0.0
262 1 30.4868844668 3.01388931956 0.0
263 1 35.6104844668 2.42740931956 0.0
264 1 42.8452844668 3.72358931956 0.0
265 1 47.2835844668 3.02659931956 0.0
266 1 50.2351844668 3.69471931956 0.0
267 1 56.7069844668 3.02296931956 0.0
268 1 62.0141844668 2.41748931956 0.0
269 1 67.5446844668 2.29869931956 0.0
270 1 72.9031844668 3.35657931956 0.0
271 1 2.12993446677 8.24918931956 0.0
272 1 7.66641446677 7.82356931956 0.0
273 1 12.8364844668 8.06912931956 0.0
274 1 18.1341844668 6.08288931956 0.0
275 1 22.4863844668 8.49976931956 0.0
276 1 27.7044844668 7.67062931956 0.0
277 1 32.9898844668 7.18735931956 0.0
278 1 38.2821844668 6.36987931956 0.0
279 1 43.5858844668 6.65736931956 0.0
280 1 48.6106844668 7.98821931956 0.0
281 1 55.6732844668 8.87907931956 0.0
282 1 59.6298844668 7.19604931956 0.0
283 1 64.7705844668 6.63556931956 0.0
284 1 69.8323844668 7.08587931956 0.0
285 1 75.0598844668 8.29525931956 0.0
286 1 77.8249844668 12.9372793196 0.0
287 1 4.97783446677 12.2357793196 0.0
288 1 10.1479844668 12.4399793196 0.0
289 1 15.3410844668 12.8086793196 0.0
290 1 20.4399844668 13.1297793196 0.0
291 1 25.7089844668 12.6070793196 0.0
292 1 30.7239844668 11.9463793196 0.0
293 1 35.9594844668 11.2650793196 0.0
294 1 40.8626844668 10.9928793196 0.0
295 1 45.6646844668 11.8645793196 0.0
296 1 51.3618844668 11.9960793196 0.0
297 1 57.2909844668 11.4485793196 0.0
298 1 62.7594844668 11.4238793196 0.0
299 1 68.1365844668 9.55387931956 0.0
300 1 72.6461844668 12.7140793196 0.0
301 1 3.15634446677 16.8617793196 0.0
302 1 8.65148446677 15.0514793196 0.0
303 1 13.1925844668 17.8307793196 0.0
304 1 17.8392844668 17.6717793196 0.0
305 1 23.1721844668 17.3206793196 0.0
306 1 28.4450844668 16.7047793196 0.0
307 1 33.5812844668 16.2656793196 0.0
308 1 38.4491844668 15.7259793196 0.0
309 1 43.1440844668 15.9930793196 0.0
310 1 48.5180844668 16.4169793196 0.0
311 1 55.8764844668 17.0682793196 0.0
312 1 60.2907844668 15.5147793196 0.0
313 1 65.7541844668 15.8164793196 0.0
314 1 71.5221844668 15.4870793196 0.0
315 1 76.1683844668 17.8408793196 0.0
316 1 1.45327446677 21.7284793196 0.0
317 1 6.13080446677 21.6368793196 0.0
318 1 11.0428844668 22.2371793196 0.0
319 1 16.0107844668 22.6857793196 0.0
320 1 20.8305844668 22.1837793196 0.0
321 1 26.0735844668 21.1983793196 0.0
322 1 31.4306844668 20.9017793196 0.0
323 1 36.5833844668 20.7012793196 0.0
324 1 41.8403844668 18.6969793196 0.0
325 1 46.3861844668 21.3544793196 0.0
326 1 51.5995844668 20.3097793196 0.0
327 1 57.5901844668 19.5563793196 0.0
328 1 62.9532844668 20.1137793196 0.0
329 1 68.1324844668 20.5310793196 0.0
330 1 75.1370844668 23.2708793196 0.0
331 1 3.48320446677 26.4718793196 0.0
332 1 8.03386446677 26.7003793196 0.0
333 1 13.0113844668 26.9916793196 0.0
334 1 19.8810844668 27.9997793196 0.0
335 1 23.8857844668 25.9736793196 0.0
336 1 29.0547844668 25.3331793196 0.0
337 1 34.1655844668 25.5847793196 0.0
338 1 39.0827844668 25.2977793196 0.0
339 1 43.9493844668 25.6424793196 0.0
340 1 51.3102844668 26.1288793196 0.0
341 1 55.1381844668 24.3623793196 0.0
342 1 59.9440844668 24.4040793196 0.0
343 1 65.1043844668 24.8312793196 0.0
344 1 70.2447844668 25.2423793196 0.0
345 1 76.5175844668 25.9243793196 0.0
346 1 0.124913466768 30.6546793196 0.0
347 1 5.26347446677 31.1985793196 0.0
348 1 10.2990844668 31.4585793196 0.0
349 1 15.6658844668 31.1859793196 0.0
350 1 21.3108844668 30.6490793196 0.0
351 1 26.5438844668 30.1049793196 0.0
352 1 31.3005844668 30.1660793196 0.0
353 1 36.4667844668 30.1019793196 0.0
354 1 41.3643844668 30.0080793196 0.0
355 1 46.9182844668 29.4009793196 0.0
356 1 52.7297844668 28.8038793196 0.0
357 1 57.7034844668 29.2696793196 0.0
358 1 62.6002844668 29.0291793196 0.0
359 1 67.8902844668 29.4134793196 0.0
360 1 73.0902844668 29.9564793196 0.0
361 1 2.34581446677 35.4897793196 0.0
362 1 7.66616446677 35.7065793196 0.0
363 1 13.2348844668 35.5443793196 0.0
364 1 18.7109844668 35.4563793196 0.0
365 1 24.0557844668 34.6019793196 0.0
366 1 29.6747844668 32.7078793196 0.0
367 1 34.4060844668 35.0999793196 0.0
368 1 39.2851844668 34.5727793196 0.0
369 1 44.6680844668 33.9794793196 0.0
370 1 50.0288844668 33.4967793196 0.0
371 1 54.9448844668 33.7134793196 0.0
372 1 60.1991844668 33.8061793196 0.0
373 1 65.1357844668 33.6468793196 0.0
374 1 70.2260844668 34.2623793196 0.0
375 1 75.3354844668 34.7788793196 0.0
376 1 77.4513844668 39.6605793196 0.0
377 1 4.53109446677 40.2200793196 0.0
378 1 9.85858446677 39.8660793196 0.0
379 1 17.5430844668 41.0668793196 0.0
380 1 21.9335844668 39.4634793196 0.0
381 1 27.0955844668 38.7240793196 0.0
382 1 32.2218844668 39.6679793196 0.0
383 1 37.3240844668 39.6150793196 0.0
384 1 42.2514844668 38.8358793196 0.0
385 1 47.3422844668 38.2584793196 0.0
386 1 52.3628844668 38.0716793196 0.0
387 1 57.1086844668 38.9696793196 0.0
388 1 60.1141844668 39.1379793196 0.0
389 1 66.9141844668 38.4345793196 0.0
390 1 72.2558844668 38.7611793196 0.0
391 1 1.30040446677 44.3804793196 0.0
392 1 8.74378446677 45.6061793196 0.0
393 1 12.9455844668 43.1857793196 0.0
394 1 20.6705844668 45.0712793196 0.0
395 1 25.0108844668 43.4268793196 0.0
396 1 29.6159844668 43.7812793196 0.0
397 1 34.6876844668 44.5660793196 0.0
398 1 39.7501844668 43.7589793196 0.0
399 1 44.6996844668 43.2677793196 0.0
400 1 49.4902844668 42.7646793196 0.0
401 1 53.9635844668 43.2790793196 0.0
402 1 59.1187844668 43.6564793196 0.0
403 1 64.2105844668 43.1187793196 0.0
404 1 69.2645844668 42.9988793196 0.0
405 1 74.2206844668 43.7602793196 0.0
406 1 77.2537844668 49.1750793196 0.0
407 1 4.35022446677 48.3665793196 0.0
408 1 10.7573844668 47.8438793196 0.0
409 1 16.1982844668 46.6366793196 0.0
410 1 21.5680844668 47.9612793196 0.0
411 1 24.4418844668 48.9001793196 0.0
412 1 32.5994844668 50.0968793196 0.0
413 1 37.1256844668 48.4748793196 0.0
414 1 42.3181844668 48.0259793196 0.0
415 1 47.4016844668 47.7309793196 0.0
416 1 52.6703844668 45.9991793196 0.0
417 1 56.8025844668 48.2830793196 0.0
418 1 62.1885844668 47.6549793196 0.0
419 1 67.3680844668 47.6254793196 0.0
420 1 72.8299844668 46.4262793196 0.0
421 1 2.86279446677 52.8372793196 0.0
422 1 8.30311446677 52.1936793196 0.0
423 1 14.0200844668 51.5116793196 0.0
424 1 19.4106844668 50.0644793196 0.0
425 1 23.4050844668 53.9651793196 0.0
426 1 26.4195844668 53.7216793196 0.0
427 1 34.0445844668 52.7640793196 0.0
428 1 39.5385844668 52.5811793196 0.0
429 1 44.7374844668 52.4760793196 0.0
430 1 49.6114844668 52.5198793196 0.0
431 1 56.3853844668 53.8329793196 0.0
432 1 60.4205844668 52.3034793196 0.0
433 1 65.3002844668 52.3306793196 0.0
434 1 70.0192844668 52.6109793196 0.0
435 1 75.4471844668 53.4663793196 0.0
436 1 0.341682466768 57.5428793196 0.0
437 1 5.75152446677 56.7218793196 0.0
438 1 10.8499844668 56.9715793196 0.0
439 1 13.8624844668 56.8312793196 0.0
440 1 19.9103844668 57.3651793196 0.0
441 1 25.7237844668 57.9674793196 0.0
442 1 31.0883844668 57.1503793196 0.0
443 1 36.6320844668 57.0769793196 0.0
444 1 41.8746844668 56.9995793196 0.0
445 1 46.8586844668 57.2926793196 0.0
446 1 51.9720844668 56.9084793196 0.0
447 1 59.1278844668 54.9908793196 0.0
448 1 63.1347844668 57.3645793196 0.0
449 1 68.4444844668 55.1989793196 0.0
450 1 73.0692844668 57.9788793196 0.0
451 1 3.34709446677 61.6395793196 0.0
452 1 8.14701446677 61.4157793196 0.0
453 1 13.2577844668 61.6813793196 0.0
454 1 18.3063844668 59.9073793196 0.0
455 1 23.0980844668 62.4903793196 0.0
456 1 28.6169844668 61.8477793196 0.0
457 1 33.7254844668 61.8454793196 0.0
458 1 36.7483844668 62.0124793196 0.0
459 1 43.9483844668 61.7578793196 0.0
460 1 49.5812844668 61.0898793196 0.0
461 1 55.2064844668 61.0807793196 0.0
462 1 60.5258844668 61.7572793196 0.0
463 1 65.9418844668 61.6224793196 0.0
464 1 70.8462844668 62.5344793196 0.0
465 1 76.1492844668 62.1914793196 0.0
466 1 77.9747844668 66.6328793196 0.0
467 1 2.79422446677 66.4617793196 0.0
468 1 10.3980844668 66.0321793196 0.0
469 1 15.7989844668 66.1092793196 0.0
470 1 20.9522844668 66.8805793196 0.0
471 1 26.2283844668 66.9112793196 0.0
472 1 31.0267844668 66.3836793196 0.0
473 1 36.0959844668 66.5218793196 0.0
474 1 40.9955844668 66.0642793196 0.0
475 1 48.1650844668 66.6552793196 0.0
476 1 52.3795844668 65.5063793196 0.0
477 1 57.2847844668 66.1597793196 0.0
478 1 62.6353844668 65.9838793196 0.0
479 1 67.4852844668 66.5904793196 0.0
480 1 72.9639844668 66.8951793196 0.0
481 1 2.77659446677 69.4518793196 0.0
482 1 7.78922446677 70.8175793196 0.0
483 1 12.9696844668 70.3774793196 0.0
484 1 18.1916844668 70.8740793196 0.0
485 1 23.6865844668 71.3297793196 0.0
486 1 29.0715844668 71.2698793196 0.0
487 1 33.9590844668 70.9001793196 0.0
488 1 39.1513844668 71.0725793196 0.0
489 1 44.1606844668 70.3098793196 0.0
490 1 50.8126844668 68.0744793196 0.0
491 1 54.6197844668 70.7869793196 0.0
492 1 60.0175844668 70.3945793196 0.0
493 1 65.7246844668 69.0397793196 0.0
494 1 70.4078844668 71.5575793196 0.0
495 1 75.5522844668 71.4114793196 0.0
496 1 0.793924466768 75.7035793196 0.0
497 1 6.05958446677 75.7078793196 0.0
498 1 10.9675844668 75.1824793196 0.0
499 1 15.6588844668 75.2863793196 0.0
500 1 20.8011844668 75.5881793196 0.0
501 1 25.9206844668 76.1855793196 0.0
502 1 28.9336844668 76.1799793196 0.0
503 1 36.4196844668 75.3617793196 0.0
504 1 42.0147844668 75.2318793196 0.0
505 1 47.1122844668 74.9519793196 0.0
506 1 52.3382844668 75.0806793196 0.0
507 1 57.7887844668 74.9954793196 0.0
508 1 62.8840844668 75.0325793196 0.0
509 1 68.1883844668 75.7818793196 0.0
510 1 73.6403844668 75.7798793196 0.0
511 1 7.37618446677 78.3928793196 0.0
512 1 10.3573844668 78.1147793196 0.0
513 1 15.2161844668 78.2664793196 0.0
514 1 20.4210844668 78.5782793196 0.0
515 1 25.3238844668 79.1274793196 0.0
516 1 30.4746844668 78.7638793196 0.0
517 1 36.2092844668 78.3773793196 0.0
518 1 41.7962844668 78.2777793196 0.0
519 1 47.1013844668 78.0345793196 0.0
520 1 52.2495844668 78.0786793196 0.0
521 1 57.4906844668 77.9885793196 0.0
522 1 62.4459844668 78.0237793196 0.0
523 1 67.9391844668 78.7622793196 0.0
524 1 73.4502844668 78.7720793196 0.0
525 1 0.502274466768 78.7119793196 0.0
526 1 2.74498446677 80.7186793196 0.0
527 1 5.74341446677 80.8925793196 0.0
528 1 12.7208844668 79.9478793196 0.0
529 1 17.7271844668 79.9099793196 0.0
530 1 22.6804844668 80.5636793196 0.0
531 1 28.0025844668 80.4870793196 0.0
532 1 33.3952844668 79.5590793196 0.0
533 1 39.0135844668 79.5702793196 0.0
534 1 44.5145844668 79.6738793196 0.0
535 1 49.6962844668 79.6708793196 0.0
536 1 54.8964844668 79.5100793196 0.0
537 1 59.9398844668 79.7226793196 0.0
538 1 65.0369844668 79.5520793196 0.0
539 1 70.6928844668 79.9736793196 0.0
540 1 76.0700844668 80.2480793196 0.0
541 2 2.38380446677 0.818259319561 0.0
542 2 3.46086446677 3.12559931956 0.0
543 2 0.913894466768 3.05855931956 0.0
544 2 6.53470446677 0.805139319561 0.0
545 2 6.00233446677 3.09878931956 0.0
546 2 8.55556446677 2.75771931956 0.0
547 2 12.4752844668 0.0653363195612 0.0
548 2 13.5431844668 2.34413931956 0.0
549 2 11.0617844668 2.44234931956 0.0
550 2 17.5527844668 0.0404283195612 0.0
551 2 18.5572844668 2.45517931956 0.0
552 2 16.0806844668 2.29013931956 0.0
553 2 22.5093844668 0.694759319561 0.0
554 2 23.6973844668 2.92546931956 0.0
555 2 21.0469844668 2.90560931956 0.0
556 2 27.7887844668 0.607179319561 0.0
557 2 29.0479844668 2.57745931956 0.0
558 2 26.3319844668 2.87661931956 0.0
559 2 33.1262844668 81.0481793196 0.0
560 2 34.2494844668 1.80243931956 0.0
561 2 31.6710844668 2.07424931956 0.0
562 2 38.7511844668 81.0747793196 0.0
563 2 39.1564844668 2.43955931956 0.0
564 2 36.9314844668 1.70935931956 0.0
565 2 46.1135844668 2.06312931956 0.0
566 2 44.6123844668 81.2050793196 0.0
567 2 43.7361844668 2.49338931956 0.0
568 2 50.8325844668 2.31097931956 0.0
569 2 50.4070844668 81.0354793196 0.0
570 2 52.8436844668 1.03659931956 0.0
571 2 54.7370844668 81.0034793196 0.0
572 2 55.4675844668 2.13638931956 0.0
573 2 59.5503844668 81.1801793196 0.0
574 2 60.6177844668 1.87355931956 0.0
575 2 57.9723844668 2.16551931956 0.0
576 2 64.8570844668 81.0396793196 0.0
577 2 66.1576844668 1.72663931956 0.0
578 2 63.3841844668 1.78621931956 0.0
579 2 70.6348844668 0.107900319561 0.0
580 2 71.6574844668 2.50821931956 0.0
581 2 68.9956844668 1.91614931956 0.0
582 2 75.8114844668 0.372347319561 0.0
583 2 76.6309844668 2.83584931956 0.0
584 2 74.1879844668 2.57524931956 0.0
585 2 77.7009844668 5.29563931956 0.0
586 2 0.817164466768 7.51986931956 0.0
587 2 76.3686844668 7.55105931956 0.0
588 2 4.75636446677 5.39317931956 0.0
589 2 6.23939446677 7.35274931956 0.0
590 2 3.48314446677 7.59148931956 0.0
591 2 10.1479844668 4.90016931956 0.0
592 2 11.5690844668 7.24045931956 0.0
593 2 8.98125446677 7.10408931956 0.0
594 2 14.8837844668 4.61440931956 0.0
595 2 14.0366844668 7.14261931956 0.0
596 2 16.6321844668 6.16669931956 0.0
597 2 18.7969844668 7.42308931956 0.0
598 2 20.9783844668 8.54909931956 0.0
599 2 18.6567844668 10.0186793196 0.0
600 2 24.9197844668 5.13651931956 0.0
601 2 26.2847844668 7.17076931956 0.0
602 2 23.6358844668 7.51764931956 0.0
603 2 30.3865844668 4.51666931956 0.0
604 2 31.5990844668 6.62715931956 0.0
605 2 28.9506844668 6.81613931956 0.0
606 2 35.4912844668 3.92850931956 0.0
607 2 36.8346844668 5.96080931956 0.0
608 2 34.2081844668 6.30315931956 0.0
609 2 41.3385844668 3.69470931956 0.0
610 2 39.1394844668 5.12501931956 0.0
611 2 45.0521844668 6.34102931956 0.0
612 2 47.5023844668 6.98767931956 0.0
613 2 46.8139844668 4.45856931956 0.0
614 2 50.8844844668 5.07827931956 0.0
615 2 52.0728844668 7.84792931956 0.0
616 2 49.9162844668 7.27181931956 0.0
617 2 56.6921844668 4.55163931956 0.0
618 2 58.2662844668 6.57553931956 0.0
619 2 56.1516844668 7.43281931956 0.0
620 2 62.0172844668 3.91856931956 0.0
621 2 63.4117844668 6.01580931956 0.0
622 2 60.8313844668 6.29497931956 0.0
623 2 67.4906844668 3.79627931956 0.0
624 2 68.6988844668 6.09799931956 0.0
625 2 66.0937844668 5.93321931956 0.0
626 2 72.8623844668 4.86148931956 0.0
627 2 73.8708844668 7.36543931956 0.0
628 2 71.2978844668 6.78518931956 0.0
629 2 2.10075446677 9.74867931956 0.0
630 2 3.55829446677 11.7545793196 0.0
631 2 0.905404466768 12.0939793196 0.0
632 2 7.67388446677 9.32216931956 0.0
633 2 8.91832446677 11.5687793196 0.0
634 2 6.27618446677 11.4789793196 0.0
635 2 12.8687844668 9.58087931956 0.0
636 2 14.0920844668 11.9594793196 0.0
637 2 11.5181844668 11.8142793196 0.0
638 2 19.1813844668 12.3183793196 0.0
639 2 16.6471844668 12.0436793196 0.0
640 2 22.7915844668 9.97457931956 0.0
641 2 24.3234844668 12.0331793196 0.0
642 2 21.7120844668 12.3280793196 0.0
643 2 27.8569844668 9.17139931956 0.0
644 2 29.3715844668 11.2931793196 0.0
645 2 26.8599844668 11.6432793196 0.0
646 2 33.0720844668 8.68605931956 0.0
647 2 34.5586844668 10.7208793196 0.0
648 2 31.9496844668 11.0760793196 0.0
649 2 38.3713844668 7.88014931956 0.0
650 2 39.6054844668 10.1755793196 0.0
651 2 37.1268844668 10.3140793196 0.0
652 2 43.4985844668 8.16985931956 0.0
653 2 44.6263844668 10.7657793196 0.0
654 2 42.1996844668 10.3202793196 0.0
655 2 48.5548844668 9.47661931956 0.0
656 2 49.9079844668 11.5733793196 0.0
657 2 47.1123844668 11.4461793196 0.0
658 2 54.1838844668 9.08992931956 0.0
659 2 52.1096844668 10.6642793196 0.0
660 2 59.8486844668 8.68338931956 0.0
661 2 61.3832844668 10.8161793196 0.0
662 2 58.6978844668 10.8939793196 0.0
663 2 63.9825844668 10.5478793196 0.0
664 2 66.6432844668 9.66767931956 0.0
665 2 64.8780844668 8.12653931956 0.0
666 2 68.9361844668 10.8131793196 0.0
667 2 71.2274844668 12.1960793196 0.0
668 2 69.0177844668 13.3862793196 0.0
669 2 76.5432844668 12.1405793196 0.0
670 2 75.1652844668 9.79757931956 0.0
671 2 73.9697844668 12.0224793196 0.0
672 2 78.1048844668 14.4174793196 0.0
673 2 1.72946446677 16.3626793196 0.0
674 2 77.2882844668 16.8387793196 0.0
675 2 5.24911446677 13.7073793196 0.0
676 2 7.14869446677 15.1850793196 0.0
677 2 4.42592446677 16.0459793196 0.0
678 2 9.42819446677 16.3328793196 0.0
679 2 11.6988844668 17.6462793196 0.0
680 2 9.41290446677 18.8958793196 0.0
681 2 15.3752844668 14.3250793196 0.0
682 2 16.6486844668 16.7483793196 0.0
683 2 14.2537844668 16.7696793196 0.0
684 2 20.4132844668 14.6272793196 0.0
685 2 21.7932844668 16.7282793196 0.0
686 2 19.1417844668 16.9129793196 0.0
687 2 25.6876844668 14.1076793196 0.0
688 2 27.0429844668 16.1741793196 0.0
689 2 24.4123844668 16.4647793196 0.0
690 2 30.8036844668 13.4479793196 0.0
691 2 32.2198844668 15.6288793196 0.0
692 2 29.6539844668 15.8152793196 0.0
693 2 35.9093844668 12.7726793196 0.0
694 2 37.1392844668 15.0061793196 0.0
695 2 34.6899844668 15.2508793196 0.0
696 2 40.8800844668 12.4977793196 0.0
697 2 42.0793844668 14.9293793196 0.0
698 2 39.6535844668 14.8313793196 0.0
699 2 45.7503844668 13.3729793196 0.0
700 2 47.2137844668 15.6527793196 0.0
701 2 44.5664844668 15.5218793196 0.0
702 2 51.4138844668 13.5259793196 0.0
703 2 52.1124844668 16.2579793196 0.0
704 2 49.8239844668 15.6641793196 0.0
705 2 57.2431844668 12.9711793196 0.0
706 2 58.9035844668 14.9282793196 0.0
707 2 56.5737844668 15.7180793196 0.0
708 2 62.9712844668 12.9058793196 0.0
709 2 64.4332844668 15.0920793196 0.0
710 2 61.6908844668 14.9574793196 0.0
711 2 70.0178844668 15.3650793196 0.0
712 2 67.1753844668 15.3065793196 0.0
713 2 72.3527844668 16.7211793196 0.0
714 2 74.6602844668 17.8489793196 0.0
715 2 72.1580844668 19.0930793196 0.0
716 2 3.47102446677 18.3382793196 0.0
717 2 4.97451446677 20.6809793196 0.0
718 2 2.59527446677 20.7705793196 0.0
719 2 9.88858446677 21.2896793196 0.0
720 2 7.44490446677 20.9093793196 0.0
721 2 13.5279844668 19.3034793196 0.0
722 2 14.8280844668 21.7517793196 0.0
723 2 12.3687844668 21.5478793196 0.0
724 2 17.9993844668 19.1760793196 0.0
725 2 19.5495844668 21.3996793196 0.0
726 2 17.1533844668 21.7103793196 0.0
727 2 23.1682844668 18.8216793196 0.0
728 2 24.6427844668 20.7556793196 0.0
729 2 22.0373844668 21.2757793196 0.0
730 2 28.5782844668 18.1981793196 0.0
731 2 30.0476844668 20.3092793196 0.0
732 2 27.3683844668 20.4382793196 0.0
733 2 33.7829844668 17.7563793196 0.0
734 2 35.2624844668 19.9756793196 0.0
735 2 32.6817844668 20.0724793196 0.0
736 2 38.5670844668 17.2209793196 0.0
737 2 40.3407844668 18.7924793196 0.0
738 2 37.7624844668 19.7555793196 0.0
739 2 42.6307844668 19.9642793196 0.0
740 2 44.8801844668 21.2351793196 0.0
741 2 42.4281844668 22.4428793196 0.0
742 2 48.5637844668 17.9294793196 0.0
743 2 50.1296844668 19.9436793196 0.0
744 2 47.5233844668 20.3690793196 0.0
745 2 54.3872844668 17.2995793196 0.0
746 2 52.3316844668 18.9705793196 0.0
747 2 60.3770844668 17.0173793196 0.0
748 2 61.6845844668 19.3070793196 0.0
749 2 59.0237844668 19.0952793196 0.0
750 2 65.7149844668 17.3188793196 0.0
751 2 66.9237844668 19.6413793196 0.0
752 2 64.3117844668 19.4716793196 0.0
753 2 71.6500844668 21.5622793196 0.0
754 2 69.6025844668 20.2041793196 0.0
755 2 76.4935844668 19.3094793196 0.0
756 2 0.0616224667678 21.1808793196 0.0
757 2 75.9218844668 21.9933793196 0.0
758 2 1.33311446677 23.2234793196 0.0
759 2 2.26548446677 25.6043793196 0.0
760 2 77.9129844668 25.3690793196 0.0
761 2 5.98480446677 23.1389793196 0.0
762 2 6.96057446677 25.6581793196 0.0
763 2 4.66162446677 25.5491793196 0.0
764 2 10.8214844668 23.7185793196 0.0
765 2 11.8113844668 26.1043793196 0.0
766 2 9.33527446677 25.9582793196 0.0
767 2 15.9375844668 24.1964793196 0.0
768 2 16.3806844668 27.0390793196 0.0
769 2 14.3121844668 26.2579793196 0.0
770 2 20.8261844668 23.6945793196 0.0
771 2 22.4691844668 25.5001793196 0.0
772 2 20.3593844668 26.5647793196 0.0
773 2 26.1802844668 22.6947793196 0.0
774 2 27.6821844668 24.7368793196 0.0
775 2 25.0911844668 25.0846793196 0.0
776 2 31.5842844668 22.3965793196 0.0
777 2 32.9188844668 24.7384793196 0.0
778 2 30.3613844668 24.6091793196 0.0
779 2 36.5680844668 22.2082793196 0.0
780 2 37.8177844668 24.4917793196 0.0
781 2 35.3572844668 24.6605793196 0.0
782 2 42.7577844668 24.7506793196 0.0
783 2 40.3325844668 24.4536793196 0.0
784 2 47.5807844668 25.5116793196 0.0
785 2 46.6511844668 22.8427793196 0.0
786 2 45.2782844668 24.9602793196 0.0
787 2 51.9682844668 21.7921793196 0.0