ITEM: TIMESTEP
0
ITEM: NUMBER OF ATOMS
1350
ITEM: BOX BOUNDS xy xz yz pp pp pp
0.0 78.1100646978 0
0.0 81.3915173273 0
-10.0 10.0 0
ITEM: ATOMS id type x y z vx vy vz
1 1 3.21707012577 1.86525866363 0.0 0.0 0.0 0.0
2 1 10.2813701258 1.21671866363 0.0 0.0 0.0 0.0
3 1 13.2839701258 1.37953866363 0.0 0.0 0.0 0.0
4 1 18.4886701258 1.63880866363 0.0 0.0 0.0 0.0
5 1 23.7678701258 1.63342866363 0.0 0.0 0.0 0.0
6 1 29.0601701258 1.93963866363 0.0 0.0 0.0 0.0
7 1 34.3356701258 1.90955866363 0.0 0.0 0.0 0.0
8 1 41.6221701258 0.126709663626 0.0 0.0 0.0 0.0
9 1 44.6171701258 0.314811663626 0.0 0.0 0.0 0.0
10 1 49.3472701258 1.07773866363 0.0 0.0 0.0 0.0
11 1 54.4133701258 1.29869866363 0.0 0.0 0.0 0.0
12 1 59.7187701258 0.905848663626 0.0 0.0 0.0 0.0
13 1 65.0455701258 1.40370866363 0.0 0.0 0.0 0.0
14 1 71.2968701258 1.67890866363 0.0 0.0 0.0 0.0
15 1 76.5167701258 1.62001866363 0.0 0.0 0.0 0.0
16 1 0.568960125773 6.57589866363 0.0 0.0 0.0 0.0
17 1 5.25703012577 6.53974866363 0.0 0.0 0.0 0.0
18 1 10.1951701258 6.31500866363 0.0 0.0 0.0 0.0
19 1 15.4223701258 6.01954866363 0.0 0.0 0.0 0.0
20 1 20.7634701258 6.09358866363 0.0 0.0 0.0 0.0
21 1 26.0463701258 6.24241866363 0.0 0.0 0.0 0.0
22 1 31.2045701258 6.39903866363 0.0 0.0 0.0 0.0
23 1 38.1633701258 5.94843866363 0.0 0.0 0.0 0.0
24 1 41.1113701258 5.43268866363 0.0 0.0 0.0 0.0
25 1 46.4373701258 5.51630866363 0.0 0.0 0.0 0.0
26 1 51.5268701258 5.80892866363 0.0 0.0 0.0 0.0
27 1 56.6878701258 5.45690866363 0.0 0.0 0.0 0.0
28 1 61.8975701258 5.49666866363 0.0 0.0 0.0 0.0
29 1 66.5419701258 4.00808866363 0.0 0.0 0.0 0.0
30 1 73.9596701258 6.14097866363 0.0 0.0 0.0 0.0
31 1 4.13188012577 11.1928586636 0.0 0.0 0.0 0.0
32 1 7.13771012577 11.0234586636 0.0 0.0 0.0 0.0
33 1 12.3774701258 10.6238586636 0.0 0.0 0.0 0.0
34 1 17.6733701258 10.4415586636 0.0 0.0 0.0 0.0
35 1 23.0823701258 10.6277586636 0.0 0.0 0.0 0.0
36 1 28.1647701258 10.8900586636 0.0 0.0 0.0 0.0
37 1 33.1570701258 11.3252586636 0.0 0.0 0.0 0.0
38 1 38.3167701258 10.8080586636 0.0 0.0 0.0 0.0
39 1 43.5549701258 9.89495866363 0.0 0.0 0.0 0.0
40 1 48.8860701258 10.3005586636 0.0 0.0 0.0 0.0
41 1 55.0547701258 10.0500586636 0.0 0.0 0.0 0.0
42 1 59.9040701258 12.0315586636 0.0 0.0 0.0 0.0
43 1 64.9913701258 9.40862866363 0.0 0.0 0.0 0.0
44 1 70.5521701258 9.69205866363 0.0 0.0 0.0 0.0
45 1 75.8160701258 11.2053586636 0.0 0.0 0.0 0.0
46 1 76.7054701258 16.4517586636 0.0 0.0 0.0 0.0
47 1 4.07453012577 16.3897586636 0.0 0.0 0.0 0.0
48 1 9.52567012577 15.2924586636 0.0 0.0 0.0 0.0
49 1 14.7207701258 14.9645586636 0.0 0.0 0.0 0.0
50 1 19.8911701258 14.8303586636 0.0 0.0 0.0 0.0
51 1 25.2093701258 15.3710586636 0.0 0.0 0.0 0.0
52 1 31.0145701258 15.7245586636 0.0 0.0 0.0 0.0
53 1 36.4847701258 15.4935586636 0.0 0.0 0.0 0.0
54 1 41.6238701258 14.7312586636 0.0 0.0 0.0 0.0
55 1 46.4292701258 14.4616586636 0.0 0.0 0.0 0.0
56 1 50.6454701258 12.7585586636 0.0 0.0 0.0 0.0
57 1 58.2288701258 14.5275586636 0.0 0.0 0.0 0.0
58 1 64.3169701258 14.1681586636 0.0 0.0 0.0 0.0
59 1 67.2535701258 13.6294586636 0.0 0.0 0.0 0.0
60 1 71.8756701258 14.5073586636 0.0 0.0 0.0 0.0
61 1 77.9411701258 19.1986586636 0.0 0.0 0.0 0.0
62 1 7.10286012577 19.9874586636 0.0 0.0 0.0 0.0
63 1 12.1152701258 19.6470586636 0.0 0.0 0.0 0.0
64 1 17.2862701258 19.4311586636 0.0 0.0 0.0 0.0
65 1 22.4089701258 19.4534586636 0.0 0.0 0.0 0.0
66 1 26.6392701258 18.0203586636 0.0 0.0 0.0 0.0
67 1 33.9838701258 19.7979586636 0.0 0.0 0.0 0.0
68 1 39.4906701258 19.5876586636 0.0 0.0 0.0 0.0
69 1 44.6482701258 19.3707586636 0.0 0.0 0.0 0.0
70 1 49.6933701258 18.4405586636 0.0 0.0 0.0 0.0
71 1 54.7032701258 18.2050586636 0.0 0.0 0.0 0.0
72 1 59.3818701258 19.6836586636 0.0 0.0 0.0 0.0
73 1 64.0503701258 19.7900586636 0.0 0.0 0.0 0.0
74 1 68.9591701258 18.8862586636 0.0 0.0 0.0 0.0
75 1 73.4465701258 21.8329586636 0.0 0.0 0.0 0.0
76 1 77.1669701258 24.7398586636 0.0 0.0 0.0 0.0
77 1 4.33401012577 24.6093586636 0.0 0.0 0.0 0.0
78 1 9.45587012577 24.4635586636 0.0 0.0 0.0 0.0
79 1 14.8640701258 24.0576586636 0.0 0.0 0.0 0.0
80 1 20.2349701258 23.9713586636 0.0 0.0 0.0 0.0
81 1 25.6100701258 23.6105586636 0.0 0.0 0.0 0.0
82 1 31.0660701258 23.9308586636 0.0 0.0 0.0 0.0
83 1 36.4231701258 23.8486586636 0.0 0.0 0.0 0.0
84 1 41.6097701258 23.9873586636 0.0 0.0 0.0 0.0
85 1 48.4044701258 23.3357586636 0.0 0.0 0.0 0.0
86 1 53.1414701258 22.8905586636 0.0 0.0 0.0 0.0
87 1 56.0784701258 23.5701586636 0.0 0.0 0.0 0.0
88 1 60.9827701258 24.5338586636 0.0 0.0 0.0 0.0
89 1 66.3404701258 23.9639586636 0.0 0.0 0.0 0.0
90 1 71.9546701258 24.4324586636 0.0 0.0 0.0 0.0
91 1 1.34743012577 29.1245586636 0.0 0.0 0.0 0.0
92 1 7.32313012577 29.1360586636 0.0 0.0 0.0 0.0
93 1 12.5920701258 28.5401586636 0.0 0.0 0.0 0.0
94 1 17.6932701258 28.3663586636 0.0 0.0 0.0 0.0
95 1 22.9269701258 28.1488586636 0.0 0.0 0.0 0.0
96 1 27.9044701258 28.0165586636 0.0 0.0 0.0 0.0
97 1 35.1978701258 27.9190586636 0.0 0.0 0.0 0.0
98 1 38.1838701258 28.3249586636 0.0 0.0 0.0 0.0
99 1 43.0800701258 29.1436586636 0.0 0.0 0.0 0.0
100 1 48.0151701258 28.3670586636 0.0 0.0 0.0 0.0
101 1 52.7652701258 30.4294586636 0.0 0.0 0.0 0.0
102 1 58.2593701258 28.7812586636 0.0 0.0 0.0 0.0
103 1 63.4006701258 28.6023586636 0.0 0.0 0.0 0.0
104 1 68.6583701258 28.2354586636 0.0 0.0 0.0 0.0
105 1 73.9320701258 29.0404586636 0.0 0.0 0.0 0.0
106 1 76.9552701258 33.2500586636 0.0 0.0 0.0 0.0
107 1 3.01184012577 31.6388586636 0.0 0.0 0.0 0.0
108 1 10.2510701258 33.2262586636 0.0 0.0 0.0 0.0
109 1 15.1181701258 33.0306586636 0.0 0.0 0.0 0.0
110 1 20.2285701258 32.7249586636 0.0 0.0 0.0 0.0
111 1 25.5174701258 32.7771586636 0.0 0.0 0.0 0.0
112 1 30.0490701258 32.9641586636 0.0 0.0 0.0 0.0
113 1 34.7880701258 35.5020586636 0.0 0.0 0.0 0.0
114 1 40.3581701258 33.4400586636 0.0 0.0 0.0 0.0
115 1 46.0113701258 33.4049586636 0.0 0.0 0.0 0.0
116 1 51.4480701258 33.1643586636 0.0 0.0 0.0 0.0
117 1 56.4766701258 33.4902586636 0.0 0.0 0.0 0.0
118 1 61.5838701258 33.2639586636 0.0 0.0 0.0 0.0
119 1 66.4740701258 32.8544586636 0.0 0.0 0.0 0.0
120 1 71.4089701258 34.8263586636 0.0 0.0 0.0 0.0
121 1 2.45549012577 37.2408586636 0.0 0.0 0.0 0.0
122 1 7.64074012577 37.4932586636 0.0 0.0 0.0 0.0
123 1 12.5751701258 37.8836586636 0.0 0.0 0.0 0.0
124 1 17.5267701258 37.4337586636 0.0 0.0 0.0 0.0
125 1 22.8965701258 37.1556586636 0.0 0.0 0.0 0.0
126 1 28.0181701258 37.8349586636 0.0 0.0 0.0 0.0
127 1 33.2236701258 38.0969586636 0.0 0.0 0.0 0.0
128 1 37.9940701258 38.0299586636 0.0 0.0 0.0 0.0
129 1 43.6170701258 37.5079586636 0.0 0.0 0.0 0.0
130 1 48.5467701258 37.6517586636 0.0 0.0 0.0 0.0
131 1 53.7735701258 37.9896586636 0.0 0.0 0.0 0.0
132 1 59.3062701258 38.0057586636 0.0 0.0 0.0 0.0
133 1 64.5360701258 37.8660586636 0.0 0.0 0.0 0.0
134 1 69.9638701258 37.4490586636 0.0 0.0 0.0 0.0
135 1 75.3106701258 37.6854586636 0.0 0.0 0.0 0.0
136 1 77.6999701258 41.8864586636 0.0 0.0 0.0 0.0
137 1 5.24070012577 41.9195586636 0.0 0.0 0.0 0.0
138 1 10.4373701258 42.4197586636 0.0 0.0 0.0 0.0
139 1 15.5059701258 42.3416586636 0.0 0.0 0.0 0.0
140 1 20.7827701258 41.5645586636 0.0 0.0 0.0 0.0
141 1 24.7613701258 44.4748586636 0.0 0.0 0.0 0.0
142 1 30.1629701258 42.5095586636 0.0 0.0 0.0 0.0
143 1 35.3963701258 42.9040586636 0.0 0.0 0.0 0.0
144 1 40.6245701258 41.7370586636 0.0 0.0 0.0 0.0
145 1 45.6653701258 42.3512586636 0.0 0.0 0.0 0.0
146 1 50.6916701258 42.3238586636 0.0 0.0 0.0 0.0
147 1 56.1823701258 42.2173586636 0.0 0.0 0.0 0.0
148 1 61.5141701258 42.5013586636 0.0 0.0 0.0 0.0
149 1 69.1268701258 41.4593586636 0.0 0.0 0.0 0.0
150 1 72.1305701258 41.8659586636 0.0 0.0 0.0 0.0
151 1 2.20567012577 45.9680586636 0.0 0.0 0.0 0.0
152 1 7.69201012577 46.7342586636 0.0 0.0 0.0 0.0
153 1 13.8488701258 46.9631586636 0.0 0.0 0.0 0.0
154 1 19.2694701258 46.2066586636 0.0 0.0 0.0 0.0
155 1 23.5399701258 49.0148586636 0.0 0.0 0.0 0.0
156 1 28.8983701258 47.2074586636 0.0 0.0 0.0 0.0
157 1 33.9638701258 49.3770586636 0.0 0.0 0.0 0.0
158 1 40.6119701258 45.5765586636 0.0 0.0 0.0 0.0
159 1 42.8931701258 49.4091586636 0.0 0.0 0.0 0.0
160 1 48.1225701258 47.0543586636 0.0 0.0 0.0 0.0
161 1 53.4028701258 46.5229586636 0.0 0.0 0.0 0.0
162 1 58.6917701258 46.7754586636 0.0 0.0 0.0 0.0
163 1 62.8325701258 45.2247586636 0.0 0.0 0.0 0.0
164 1 69.9563701258 46.7617586636 0.0 0.0 0.0 0.0
165 1 75.0119701258 46.0800586636 0.0 0.0 0.0 0.0
166 1 77.8766701258 50.4278586636 0.0 0.0 0.0 0.0
167 1 4.64739012577 50.4785586636 0.0 0.0 0.0 0.0
168 1 9.08396012577 49.4323586636 0.0 0.0 0.0 0.0
169 1 16.5837701258 50.9084586636 0.0 0.0 0.0 0.0
170 1 21.8509701258 51.5188586636 0.0 0.0 0.0 0.0
171 1 27.0759701258 52.1060586636 0.0 0.0 0.0 0.0
172 1 32.2730701258 51.9157586636 0.0 0.0 0.0 0.0
173 1 37.3578701258 52.3641586636 0.0 0.0 0.0 0.0
174 1 42.8063701258 52.4058586636 0.0 0.0 0.0 0.0
175 1 47.3624701258 51.8098586636 0.0 0.0 0.0 0.0
176 1 52.0308701258 51.0219586636 0.0 0.0 0.0 0.0
177 1 57.1555701258 53.0845586636 0.0 0.0 0.0 0.0
178 1 62.4177701258 50.8095586636 0.0 0.0 0.0 0.0
179 1 67.7083701258 51.4015586636 0.0 0.0 0.0 0.0
180 1 72.6446701258 51.0046586636 0.0 0.0 0.0 0.0
181 1 3.14623012577 55.0427586636 0.0 0.0 0.0 0.0
182 1 7.59921012577 57.3510586636 0.0 0.0 0.0 0.0
183 1 12.9791701258 54.9175586636 0.0 0.0 0.0 0.0
184 1 18.4200701258 55.6423586636 0.0 0.0 0.0 0.0
185 1 23.6421701258 56.2011586636 0.0 0.0 0.0 0.0
186 1 28.9024701258 56.5108586636 0.0 0.0 0.0 0.0
187 1 34.8054701258 56.6874586636 0.0 0.0 0.0 0.0
188 1 40.4454701258 56.6030586636 0.0 0.0 0.0 0.0
189 1 45.7391701258 56.9927586636 0.0 0.0 0.0 0.0
190 1 50.2391701258 56.2845586636 0.0 0.0 0.0 0.0
191 1 55.6951701258 55.7238586636 0.0 0.0 0.0 0.0
192 1 62.2144701258 55.0518586636 0.0 0.0 0.0 0.0
193 1 65.1872701258 55.5561586636 0.0 0.0 0.0 0.0
194 1 70.9463701258 55.8681586636 0.0 0.0 0.0 0.0
195 1 76.3231701258 55.0029586636 0.0 0.0 0.0 0.0
196 1 0.742760125773 62.0487586636 0.0 0.0 0.0 0.0
197 1 6.35747012577 60.1405586636 0.0 0.0 0.0 0.0
198 1 11.3645701258 59.7178586636 0.0 0.0 0.0 0.0
199 1 16.1545701258 61.7486586636 0.0 0.0 0.0 0.0
200 1 21.5682701258 60.3525586636 0.0 0.0 0.0 0.0
201 1 26.1551701258 60.8176586636 0.0 0.0 0.0 0.0
202 1 30.0074701258 59.3272586636 0.0 0.0 0.0 0.0
203 1 37.2803701258 60.6041586636 0.0 0.0 0.0 0.0
204 1 42.7172701258 61.1674586636 0.0 0.0 0.0 0.0
205 1 48.1031701258 61.6420586636 0.0 0.0 0.0 0.0
206 1 52.8310701258 60.2594586636 0.0 0.0 0.0 0.0
207 1 57.8783701258 60.5597586636 0.0 0.0 0.0 0.0
208 1 63.0475701258 59.9986586636 0.0 0.0 0.0 0.0
209 1 66.8700701258 58.1313586636 0.0 0.0 0.0 0.0
210 1 74.3626701258 59.6179586636 0.0 0.0 0.0 0.0
211 1 3.81330012577 64.8234586636 0.0 0.0 0.0 0.0
212 1 8.89279012577 64.6395586636 0.0 0.0 0.0 0.0
213 1 16.3083701258 64.7359586636 0.0 0.0 0.0 0.0
214 1 19.2879701258 65.0562586636 0.0 0.0 0.0 0.0
215 1 24.2151701258 65.5017586636 0.0 0.0 0.0 0.0
216 1 29.1175701258 65.1558586636 0.0 0.0 0.0 0.0
217 1 34.1220701258 64.6000586636 0.0 0.0 0.0 0.0
218 1 39.5000701258 65.0226586636 0.0 0.0 0.0 0.0
219 1 43.9216701258 63.9051586636 0.0 0.0 0.0 0.0
220 1 51.1891701258 65.5959586636 0.0 0.0 0.0 0.0
221 1 56.0009701258 64.8789586636 0.0 0.0 0.0 0.0
222 1 61.3782701258 64.5993586636 0.0 0.0 0.0 0.0
223 1 66.6048701258 63.9682586636 0.0 0.0 0.0 0.0
224 1 71.6312701258 64.1408586636 0.0 0.0 0.0 0.0
225 1 77.0075701258 64.4778586636 0.0 0.0 0.0 0.0
226 1 0.762240125773 69.3616586636 0.0 0.0 0.0 0.0
227 1 5.73059012577 69.2887586636 0.0 0.0 0.0 0.0
228 1 10.6704701258 69.5297586636 0.0 0.0 0.0 0.0
229 1 15.6190701258 69.4694586636 0.0 0.0 0.0 0.0
230 1 21.1192701258 69.9595586636 0.0 0.0 0.0 0.0
231 1 27.1258701258 70.1187586636 0.0 0.0 0.0 0.0
232 1 33.6401701258 68.9138586636 0.0 0.0 0.0 0.0
233 1 36.6468701258 69.0785586636 0.0 0.0 0.0 0.0
234 1 42.0544701258 69.3298586636 0.0 0.0 0.0 0.0
235 1 46.8150701258 67.4513586636 0.0 0.0 0.0 0.0
236 1 54.3921701258 69.8949586636 0.0 0.0 0.0 0.0
237 1 59.6436701258 68.8675586636 0.0 0.0 0.0 0.0
238 1 63.7301701258 71.0740586636 0.0 0.0 0.0 0.0
239 1 68.8922701258 68.8276586636 0.0 0.0 0.0 0.0
240 1 73.8785701258 68.7800586636 0.0 0.0 0.0 0.0
241 1 3.14463012577 74.0381586636 0.0 0.0 0.0 0.0
242 1 8.02036012577 74.0946586636 0.0 0.0 0.0 0.0
243 1 13.4019701258 74.1646586636 0.0 0.0 0.0 0.0
244 1 18.5019701258 73.8806586636 0.0 0.0 0.0 0.0
245 1 22.5794701258 72.5964586636 0.0 0.0 0.0 0.0
246 1 29.4476701258 74.6903586636 0.0 0.0 0.0 0.0
247 1 34.2826701258 74.2838586636 0.0 0.0 0.0 0.0
248 1 39.5092701258 73.5355586636 0.0 0.0 0.0 0.0
249 1 45.2074701258 72.8928586636 0.0 0.0 0.0 0.0
250 1 50.7820701258 73.5607586636 0.0 0.0 0.0 0.0
251 1 58.6164701258 73.4196586636 0.0 0.0 0.0 0.0
252 1 61.6388701258 73.2531586636 0.0 0.0 0.0 0.0
253 1 66.4451701258 73.9827586636 0.0 0.0 0.0 0.0
254 1 71.2594701258 73.5799586636 0.0 0.0 0.0 0.0
255 1 76.2092701258 73.7638586636 0.0 0.0 0.0 0.0
256 1 0.722280125773 3.55267866363 0.0 0.0 0.0 0.0
257 1 5.68048012577 3.57967866363 0.0 0.0 0.0 0.0
258 1 8.67684012577 3.72916866363 0.0 0.0 0.0 0.0
259 1 15.8010701258 3.03038866363 0.0 0.0 0.0 0.0
260 1 21.1235701258 3.10006866363 0.0 0.0 0.0 0.0
261 1 26.3297701258 3.23669866363 0.0 0.0 0.0 0.0
262 1 31.7008701258 3.41444866363 0.0 0.0 0.0 0.0
263 1 37.0711701258 3.16494866363 0.0 0.0 0.0 0.0
264 1 40.0210701258 2.64255866363 0.0 0.0 0.0 0.0
265 1 46.6898701258 2.50223866363 0.0 0.0 0.0 0.0
266 1 51.8087701258 2.80923866363 0.0 0.0 0.0 0.0
267 1 57.1604701258 2.49498866363 0.0 0.0 0.0 0.0
268 1 62.2495701258 2.51405866363 0.0 0.0 0.0 0.0
269 1 69.5359701258 4.11600866363 0.0 0.0 0.0 0.0
270 1 73.9293701258 3.13337866363 0.0 0.0 0.0 0.0
271 1 2.93759012577 8.42764866363 0.0 0.0 0.0 0.0
272 1 7.80425012577 8.10834866363 0.0 0.0 0.0 0.0
273 1 12.8818701258 7.64788866363 0.0 0.0 0.0 0.0
274 1 18.0657701258 7.45539866363 0.0 0.0 0.0 0.0
275 1 23.3610701258 7.62473866363 0.0 0.0 0.0 0.0
276 1 28.5726701258 7.89294866363 0.0 0.0 0.0 0.0
277 1 33.4990701258 8.34710866363 0.0 0.0 0.0 0.0
278 1 36.5022701258 8.41893866363 0.0 0.0 0.0 0.0
279 1 43.7474701258 6.88736866363 0.0 0.0 0.0 0.0
280 1 48.8963701258 7.27797866363 0.0 0.0 0.0 0.0
281 1 54.2087701258 7.16613866363 0.0 0.0 0.0 0.0
282 1 59.2758701258 6.96488866363 0.0 0.0 0.0 0.0
283 1 64.7479701258 6.41938866363 0.0 0.0 0.0 0.0
284 1 71.0211701258 6.72953866363 0.0 0.0 0.0 0.0
285 1 76.1522701258 8.20350866363 0.0 0.0 0.0 0.0
286 1 77.6810701258 13.5942586636 0.0 0.0 0.0 0.0
287 1 2.58079012577 13.7677586636 0.0 0.0 0.0 0.0
288 1 9.85697012577 12.3019586636 0.0 0.0 0.0 0.0
289 1 15.0683701258 11.9729586636 0.0 0.0 0.0 0.0
290 1 20.3283701258 11.8570586636 0.0 0.0 0.0 0.0
291 1 25.5410701258 12.3729586636 0.0 0.0 0.0 0.0
292 1 30.5216701258 12.7599586636 0.0 0.0 0.0 0.0
293 1 35.8942701258 12.5651586636 0.0 0.0 0.0 0.0
294 1 41.1796701258 11.7461586636 0.0 0.0 0.0 0.0
295 1 46.1175701258 11.4701586636 0.0 0.0 0.0 0.0
296 1 53.6519701258 12.7170586636 0.0 0.0 0.0 0.0
297 1 58.0409701258 9.69515866363 0.0 0.0 0.0 0.0
298 1 62.8699701258 11.5428586636 0.0 0.0 0.0 0.0
299 1 67.7151701258 10.6704586636 0.0 0.0 0.0 0.0
300 1 72.8329701258 11.6585586636 0.0 0.0 0.0 0.0
301 1 2.82935012577 19.1365586636 0.0 0.0 0.0 0.0
302 1 7.02416012577 16.9760586636 0.0 0.0 0.0 0.0
303 1 12.2121701258 16.6377586636 0.0 0.0 0.0 0.0
304 1 17.3438701258 16.4263586636 0.0 0.0 0.0 0.0
305 1 22.4116701258 16.4533586636 0.0 0.0 0.0 0.0
306 1 29.6083701258 18.3774586636 0.0 0.0 0.0 0.0
307 1 33.8036701258 16.8129586636 0.0 0.0 0.0 0.0
308 1 39.2710701258 16.5956586636 0.0 0.0 0.0 0.0
309 1 44.1344701258 16.3957586636 0.0 0.0 0.0 0.0
310 1 49.2687701258 15.4449586636 0.0 0.0 0.0 0.0
311 1 55.3022701258 15.2403586636 0.0 0.0 0.0 0.0
312 1 60.1718701258 16.8041586636 0.0 0.0 0.0 0.0
313 1 63.1617701258 16.9266586636 0.0 0.0 0.0 0.0
314 1 69.2083701258 15.8901586636 0.0 0.0 0.0 0.0
315 1 73.7330701258 16.8500586636 0.0 0.0 0.0 0.0
316 1 76.4538701258 21.8181586636 0.0 0.0 0.0 0.0
317 1 4.56167012577 21.5961586636 0.0 0.0 0.0 0.0
318 1 9.71327012577 21.4620586636 0.0 0.0 0.0 0.0
319 1 14.7634701258 21.0570586636 0.0 0.0 0.0 0.0
320 1 19.8452701258 20.9977586636 0.0 0.0 0.0 0.0
321 1 25.1618701258 20.6359586636 0.0 0.0 0.0 0.0
322 1 31.2076701258 20.9255586636 0.0 0.0 0.0 0.0
323 1 36.7786701258 20.8799586636 0.0 0.0 0.0 0.0
324 1 42.1308701258 21.0262586636 0.0 0.0 0.0 0.0
325 1 47.4620701258 20.4643586636 0.0 0.0 0.0 0.0
326 1 52.2838701258 19.9823586636 0.0 0.0 0.0 0.0
327 1 56.5411701258 20.5920586636 0.0 0.0 0.0 0.0
328 1 61.6652701258 21.6103586636 0.0 0.0 0.0 0.0
329 1 66.7945701258 20.9830586636 0.0 0.0 0.0 0.0
330 1 71.9358701258 19.2538586636 0.0 0.0 0.0 0.0
331 1 1.72981012577 26.1335586636 0.0 0.0 0.0 0.0
332 1 6.93879012577 26.1367586636 0.0 0.0 0.0 0.0
333 1 12.2580701258 25.5603586636 0.0 0.0 0.0 0.0
334 1 17.5724701258 25.3687586636 0.0 0.0 0.0 0.0
335 1 23.0109701258 25.1406586636 0.0 0.0 0.0 0.0
336 1 28.2638701258 25.0341586636 0.0 0.0 0.0 0.0
337 1 33.7781701258 25.2625586636 0.0 0.0 0.0 0.0
338 1 38.9737701258 25.4282586636 0.0 0.0 0.0 0.0
339 1 43.6384701258 26.1909586636 0.0 0.0 0.0 0.0
340 1 46.5950701258 25.7210586636 0.0 0.0 0.0 0.0
341 1 50.9561701258 24.9511586636 0.0 0.0 0.0 0.0
342 1 58.2067701258 25.7414586636 0.0 0.0 0.0 0.0
343 1 63.7944701258 25.6151586636 0.0 0.0 0.0 0.0
344 1 69.0562701258 25.2612586636 0.0 0.0 0.0 0.0
345 1 74.4664701258 26.0855586636 0.0 0.0 0.0 0.0
346 1 76.6758701258 30.2648586636 0.0 0.0 0.0 0.0
347 1 6.00290012577 31.8500586636 0.0 0.0 0.0 0.0
348 1 10.1176701258 30.2269586636 0.0 0.0 0.0 0.0
349 1 15.1943701258 30.0286586636 0.0 0.0 0.0 0.0
350 1 20.3675701258 29.7237586636 0.0 0.0 0.0 0.0
351 1 25.4608701258 29.7635586636 0.0 0.0 0.0 0.0
352 1 30.1706701258 29.9719586636 0.0 0.0 0.0 0.0
353 1 33.1576701258 30.1014586636 0.0 0.0 0.0 0.0
354 1 40.3500701258 30.4215586636 0.0 0.0 0.0 0.0
355 1 45.8120701258 30.4093586636 0.0 0.0 0.0 0.0
356 1 50.9948701258 27.9767586636 0.0 0.0 0.0 0.0
357 1 55.7963701258 30.5487586636 0.0 0.0 0.0 0.0
358 1 60.8983701258 30.2994586636 0.0 0.0 0.0 0.0
359 1 66.1237701258 29.8675586636 0.0 0.0 0.0 0.0
360 1 71.0761701258 30.0089586636 0.0 0.0 0.0 0.0
361 1 1.65293012577 34.3252586636 0.0 0.0 0.0 0.0
362 1 7.52157012577 34.4660586636 0.0 0.0 0.0 0.0
363 1 12.7513701258 34.8799586636 0.0 0.0 0.0 0.0
364 1 17.7610701258 34.4387586636 0.0 0.0 0.0 0.0
365 1 22.8593701258 34.1597586636 0.0 0.0 0.0 0.0
366 1 27.7146701258 34.8357586636 0.0 0.0 0.0 0.0
367 1 33.0334701258 33.0844586636 0.0 0.0 0.0 0.0
368 1 37.7727701258 35.0376586636 0.0 0.0 0.0 0.0
369 1 43.1996701258 34.5247586636 0.0 0.0 0.0 0.0
370 1 48.7812701258 34.6281586636 0.0 0.0 0.0 0.0
371 1 53.8558701258 34.9780586636 0.0 0.0 0.0 0.0
372 1 59.1045701258 34.9858586636 0.0 0.0 0.0 0.0
373 1 64.1861701258 34.8387586636 0.0 0.0 0.0 0.0
374 1 69.4720701258 32.5539586636 0.0 0.0 0.0 0.0
375 1 74.4141701258 34.8315586636 0.0 0.0 0.0 0.0
376 1 78.0531701258 38.9008586636 0.0 0.0 0.0 0.0
377 1 4.98295012577 38.9028586636 0.0 0.0 0.0 0.0
378 1 9.98637012577 39.4178586636 0.0 0.0 0.0 0.0
379 1 15.2023701258 39.3431586636 0.0 0.0 0.0 0.0
380 1 20.2778701258 38.6159586636 0.0 0.0 0.0 0.0
381 1 25.2521701258 39.0162586636 0.0 0.0 0.0 0.0
382 1 30.5358701258 39.4981586636 0.0 0.0 0.0 0.0
383 1 35.6251701258 39.8990586636 0.0 0.0 0.0 0.0
384 1 40.8945701258 38.7655586636 0.0 0.0 0.0 0.0
385 1 46.0239701258 39.3332586636 0.0 0.0 0.0 0.0
386 1 51.0573701258 39.3245586636 0.0 0.0 0.0 0.0
387 1 56.5317701258 39.2266586636 0.0 0.0 0.0 0.0
388 1 61.9591701258 39.4924586636 0.0 0.0 0.0 0.0
389 1 67.3738701258 38.9827586636 0.0 0.0 0.0 0.0
390 1 72.5820701258 38.9197586636 0.0 0.0 0.0 0.0
391 1 2.40751012577 42.9778586636 0.0 0.0 0.0 0.0
392 1 7.70602012577 43.7057586636 0.0 0.0 0.0 0.0
393 1 13.0102701258 44.0439586636 0.0 0.0 0.0 0.0
394 1 18.3542701258 43.3420586636 0.0 0.0 0.0 0.0
395 1 23.7891701258 41.6418586636 0.0 0.0 0.0 0.0
396 1 27.7934701258 44.4048586636 0.0 0.0 0.0 0.0
397 1 32.6666701258 44.2072586636 0.0 0.0 0.0 0.0
398 1 38.3149701258 43.6409586636 0.0 0.0 0.0 0.0
399 1 42.9295701258 43.6487586636 0.0 0.0 0.0 0.0
400 1 48.1823701258 44.0241586636 0.0 0.0 0.0 0.0
401 1 53.4596701258 43.5187586636 0.0 0.0 0.0 0.0
402 1 58.7708701258 43.7578586636 0.0 0.0 0.0 0.0
403 1 65.7403701258 45.9566586636 0.0 0.0 0.0 0.0
404 1 68.2395701258 44.3123586636 0.0 0.0 0.0 0.0
405 1 74.9066701258 43.0732586636 0.0 0.0 0.0 0.0
406 1 77.6951701258 47.4305586636 0.0 0.0 0.0 0.0
407 1 4.78768012577 47.4900586636 0.0 0.0 0.0 0.0
408 1 12.1059701258 49.4409586636 0.0 0.0 0.0 0.0
409 1 16.7394701258 47.8871586636 0.0 0.0 0.0 0.0
410 1 22.3111701258 46.2731586636 0.0 0.0 0.0 0.0
411 1 26.5680701258 49.1423586636 0.0 0.0 0.0 0.0
412 1 31.9272701258 47.1362586636 0.0 0.0 0.0 0.0
413 1 37.0334701258 49.3820586636 0.0 0.0 0.0 0.0
414 1 39.9755701258 48.5108586636 0.0 0.0 0.0 0.0
415 1 45.9250701258 49.1395586636 0.0 0.0 0.0 0.0
416 1 50.9132701258 48.2184586636 0.0 0.0 0.0 0.0
417 1 55.9763701258 48.0775586636 0.0 0.0 0.0 0.0
418 1 61.4746701258 47.9245586636 0.0 0.0 0.0 0.0
419 1 67.4589701258 48.4123586636 0.0 0.0 0.0 0.0
420 1 72.6897701258 47.9909586636 0.0 0.0 0.0 0.0
421 1 2.19444012577 52.1930586636 0.0 0.0 0.0 0.0
422 1 7.29303012577 51.8857586636 0.0 0.0 0.0 0.0
423 1 13.7493701258 51.9781586636 0.0 0.0 0.0 0.0
424 1 19.0415701258 52.6718586636 0.0 0.0 0.0 0.0
425 1 24.2959701258 53.2746586636 0.0 0.0 0.0 0.0
426 1 29.7141701258 53.5738586636 0.0 0.0 0.0 0.0
427 1 34.6742701258 53.7053586636 0.0 0.0 0.0 0.0
428 1 40.0777701258 53.6324586636 0.0 0.0 0.0 0.0
429 1 45.3352701258 54.0175586636 0.0 0.0 0.0 0.0
430 1 50.0093701258 53.2590586636 0.0 0.0 0.0 0.0
431 1 55.0479701258 50.9350586636 0.0 0.0 0.0 0.0
432 1 60.1804701258 52.8262586636 0.0 0.0 0.0 0.0
433 1 64.9360701258 52.5358586636 0.0 0.0 0.0 0.0
434 1 70.3121701258 52.9157586636 0.0 0.0 0.0 0.0
435 1 75.4245701258 52.1412586636 0.0 0.0 0.0 0.0
436 1 0.658940125773 56.7515586636 0.0 0.0 0.0 0.0
437 1 6.15530012577 54.7016586636 0.0 0.0 0.0 0.0
438 1 10.5860701258 56.8084586636 0.0 0.0 0.0 0.0
439 1 15.5211701258 56.5608586636 0.0 0.0 0.0 0.0
440 1 20.8876701258 57.4075586636 0.0 0.0 0.0 0.0
441 1 26.1815701258 57.8017586636 0.0 0.0 0.0 0.0
442 1 32.9780701258 59.0572586636 0.0 0.0 0.0 0.0
443 1 37.6395701258 57.6429586636 0.0 0.0 0.0 0.0
444 1 42.9945701258 58.1893586636 0.0 0.0 0.0 0.0
445 1 48.2757701258 58.6037586636 0.0 0.0 0.0 0.0
446 1 53.0873701258 57.2541586636 0.0 0.0 0.0 0.0
447 1 58.0425701258 57.5888586636 0.0 0.0 0.0 0.0
448 1 61.0355701258 57.7740586636 0.0 0.0 0.0 0.0
449 1 69.8455701258 58.6795586636 0.0 0.0 0.0 0.0
450 1 73.8316701258 56.6656586636 0.0 0.0 0.0 0.0
451 1 3.78035012577 61.8082586636 0.0 0.0 0.0 0.0
452 1 9.00103012577 61.6172586636 0.0 0.0 0.0 0.0
453 1 14.3550701258 59.3484586636 0.0 0.0 0.0 0.0
454 1 19.1251701258 62.0630586636 0.0 0.0 0.0 0.0
455 1 23.6851701258 62.5154586636 0.0 0.0 0.0 0.0
456 1 28.8543701258 62.1266586636 0.0 0.0 0.0 0.0
457 1 34.4810701258 61.6369586636 0.0 0.0 0.0 0.0
458 1 39.8728701258 62.0650586636 0.0 0.0 0.0 0.0
459 1 46.8582701258 64.4123586636 0.0 0.0 0.0 0.0
460 1 50.9357701258 62.5927586636 0.0 0.0 0.0 0.0
461 1 55.2685701258 61.9864586636 0.0 0.0 0.0 0.0
462 1 60.6250701258 61.7294586636 0.0 0.0 0.0 0.0
463 1 65.8831701258 61.0000586636 0.0 0.0 0.0 0.0
464 1 71.7211701258 61.0886586636 0.0 0.0 0.0 0.0
465 1 77.3757701258 59.4343586636 0.0 0.0 0.0 0.0
466 1 1.22546012577 66.3838586636 0.0 0.0 0.0 0.0
467 1 6.40016012577 66.3467586636 0.0 0.0 0.0 0.0
468 1 11.1950701258 66.5750586636 0.0 0.0 0.0 0.0
469 1 14.1861701258 66.8321586636 0.0 0.0 0.0 0.0
470 1 21.5982701258 66.9878586636 0.0 0.0 0.0 0.0
471 1 26.7917701258 67.0949586636 0.0 0.0 0.0 0.0
472 1 31.8178701258 66.5061586636 0.0 0.0 0.0 0.0
473 1 36.7196701258 66.0921586636 0.0 0.0 0.0 0.0
474 1 42.1736701258 66.3385586636 0.0 0.0 0.0 0.0
475 1 49.7104701258 68.2085586636 0.0 0.0 0.0 0.0
476 1 53.8574701258 66.9465586636 0.0 0.0 0.0 0.0
477 1 58.7556701258 66.0271586636 0.0 0.0 0.0 0.0
478 1 64.1459701258 65.7273586636 0.0 0.0 0.0 0.0
479 1 69.0569701258 65.7691586636 0.0 0.0 0.0 0.0
480 1 74.2232701258 65.7430586636 0.0 0.0 0.0 0.0
481 1 3.26708012577 71.0229586636 0.0 0.0 0.0 0.0
482 1 8.11781012577 71.0963586636 0.0 0.0 0.0 0.0
483 1 13.1714701258 71.1836586636 0.0 0.0 0.0 0.0
484 1 18.2681701258 70.8838586636 0.0 0.0 0.0 0.0
485 1 25.5708701258 72.7185586636 0.0 0.0 0.0 0.0
486 1 29.6819701258 71.7016586636 0.0 0.0 0.0 0.0
487 1 32.6786701258 71.7402586636 0.0 0.0 0.0 0.0
488 1 39.2875701258 70.5385586636 0.0 0.0 0.0 0.0
489 1 45.0083701258 69.8849586636 0.0 0.0 0.0 0.0
490 1 51.4817701258 70.6443586636 0.0 0.0 0.0 0.0
491 1 57.2879701258 70.7331586636 0.0 0.0 0.0 0.0
492 1 62.6073701258 68.3141586636 0.0 0.0 0.0 0.0
493 1 66.7395701258 70.9806586636 0.0 0.0 0.0 0.0
494 1 71.3972701258 70.5317586636 0.0 0.0 0.0 0.0
495 1 76.1899701258 70.7340586636 0.0 0.0 0.0 0.0
496 1 0.539480125773 75.5413586636 0.0 0.0 0.0 0.0
497 1 5.56687012577 75.8248586636 0.0 0.0 0.0 0.0
498 1 10.6972701258 75.4388586636 0.0 0.0 0.0 0.0
499 1 16.0417701258 75.5813586636 0.0 0.0 0.0 0.0
500 1 21.1692701258 75.2602586636 0.0 0.0 0.0 0.0
501 1 26.5913701258 75.5672586636 0.0 0.0 0.0 0.0
502 1 32.0107701258 76.2428586636 0.0 0.0 0.0 0.0
503 1 37.0952701258 75.3570586636 0.0 0.0 0.0 0.0
504 1 42.4610701258 74.1759586636 0.0 0.0 0.0 0.0
505 1 47.8628701258 74.3478586636 0.0 0.0 0.0 0.0
506 1 53.2964701258 75.2392586636 0.0 0.0 0.0 0.0
507 1 56.3237701258 75.3735586636 0.0 0.0 0.0 0.0
508 1 63.7598701258 75.3737586636 0.0 0.0 0.0 0.0
509 1 68.9833701258 75.5790586636 0.0 0.0 0.0 0.0
510 1 73.6729701258 75.3931586636 0.0 0.0 0.0 0.0
511 1 5.87085012577 78.8243586636 0.0 0.0 0.0 0.0
512 1 11.0468701258 78.4053586636 0.0 0.0 0.0 0.0
513 1 16.4166701258 78.5518586636 0.0 0.0 0.0 0.0
514 1 21.4475701258 78.2752586636 0.0 0.0 0.0 0.0
515 1 26.5763701258 78.5898586636 0.0 0.0 0.0 0.0
516 1 31.8917701258 79.2385586636 0.0 0.0 0.0 0.0
517 1 37.0598701258 78.3800586636 0.0 0.0 0.0 0.0
518 1 42.4089701258 77.1762586636 0.0 0.0 0.0 0.0
519 1 47.6469701258 77.3503586636 0.0 0.0 0.0 0.0
520 1 52.4487701258 78.1207586636 0.0 0.0 0.0 0.0
521 1 57.5057701258 78.1396586636 0.0 0.0 0.0 0.0
522 1 63.1179701258 78.3157586636 0.0 0.0 0.0 0.0
523 1 68.4567701258 78.5586586636 0.0 0.0 0.0 0.0
524 1 73.6161701258 78.4239586636 0.0 0.0 0.0 0.0
525 1 0.716040125773 78.5552586636 0.0 0.0 0.0 0.0
526 1 3.21679012577 80.2445586636 0.0 0.0 0.0 0.0
527 1 8.59350012577 80.1208586636 0.0 0.0 0.0 0.0
528 1 13.6996701258 79.8079586636 0.0 0.0 0.0 0.0
529 1 19.0113701258 80.0581586636 0.0 0.0 0.0 0.0
530 1 23.9165701258 80.0070586636 0.0 0.0 0.0 0.0
531 1 29.0694701258 80.3118586636 0.0 0.0 0.0 0.0
532 1 34.7110701258 80.3033586636 0.0 0.0 0.0 0.0
533 1 40.0128701258 78.9849586636 0.0 0.0 0.0 0.0
534 1 44.9836701258 78.7265586636 0.0 0.0 0.0 0.0
535 1 49.7685701258 79.4814586636 0.0 0.0 0.0 0.0
536 1 54.9670701258 79.7446586636 0.0 0.0 0.0 0.0
537 1 60.2703701258 79.3384586636 0.0 0.0 0.0 0.0
538 1 65.7173701258 79.8552586636 0.0 0.0 0.0 0.0
539 1 71.0728701258 80.0601586636 0.0 0.0 0.0 0.0
540 1 76.1907701258 80.0119586636 0.0 0.0 0.0 0.0
541 2 3.20458012577 0.360916663626 0.0 0.0 0.0 0.0
542 2 4.50535012577 2.65061866363 0.0 0.0 0.0 0.0
543 2 1.98685012577 2.72942866363 0.0 0.0 0.0 0.0
544 2 9.48847012577 2.48032866363 0.0 0.0 0.0 0.0
545 2 9.36151012577 0.0256996636259 0.0 0.0 0.0 0.0
546 2 11.7762701258 1.38940866363 0.0 0.0 0.0 0.0
547 2 13.5636701258 81.2949586636 0.0 0.0 0.0 0.0
548 2 14.5072701258 2.24974866363 0.0 0.0 0.0 0.0
549 2 18.7589701258 0.152054663626 0.0 0.0 0.0 0.0
550 2 19.8001701258 2.38031866363 0.0 0.0 0.0 0.0
551 2 17.1438701258 2.33323866363 0.0 0.0 0.0 0.0
552 2 23.8298701258 0.122893663626 0.0 0.0 0.0 0.0
553 2 25.0557701258 2.42323866363 0.0 0.0 0.0 0.0
554 2 22.4439701258 2.36534866363 0.0 0.0 0.0 0.0
555 2 29.0453701258 0.430653663626 0.0 0.0 0.0 0.0
556 2 30.3859701258 2.66519866363 0.0 0.0 0.0 0.0
557 2 27.7026701258 2.60569866363 0.0 0.0 0.0 0.0
558 2 34.5573701258 0.415629663626 0.0 0.0 0.0 0.0
559 2 35.6992701258 2.56689866363 0.0 0.0 0.0 0.0
560 2 33.0271701258 2.67428866363 0.0 0.0 0.0 0.0
561 2 40.8157701258 1.38527866363 0.0 0.0 0.0 0.0
562 2 40.7738701258 80.2836586636 0.0 0.0 0.0 0.0
563 2 43.1107701258 0.295954663626 0.0 0.0 0.0 0.0
564 2 44.9035701258 80.2259586636 0.0 0.0 0.0 0.0
565 2 45.5975701258 1.45324866363 0.0 0.0 0.0 0.0
566 2 49.5388701258 80.9704586636 0.0 0.0 0.0 0.0
567 2 50.5759701258 1.94783866363 0.0 0.0 0.0 0.0
568 2 48.0269701258 1.80135866363 0.0 0.0 0.0 0.0
569 2 54.6681701258 81.2112586636 0.0 0.0 0.0 0.0
570 2 55.7848701258 1.90255866363 0.0 0.0 0.0 0.0
571 2 53.1219701258 2.06660866363 0.0 0.0 0.0 0.0
572 2 59.9863701258 80.8199586636 0.0 0.0 0.0 0.0
573 2 60.9900701258 1.70435866363 0.0 0.0 0.0 0.0
574 2 58.4284701258 1.68556866363 0.0 0.0 0.0 0.0
575 2 65.4463701258 81.3461586636 0.0 0.0 0.0 0.0
576 2 65.8748701258 2.66183866363 0.0 0.0 0.0 0.0
577 2 63.6183701258 1.89649866363 0.0 0.0 0.0 0.0
578 2 71.1439701258 0.180764663626 0.0 0.0 0.0 0.0
579 2 72.6418701258 2.35955866363 0.0 0.0 0.0 0.0
580 2 70.3275701258 2.83653866363 0.0 0.0 0.0 0.0
581 2 76.3653701258 0.120876663626 0.0 0.0 0.0 0.0
582 2 77.6767701258 2.58011866363 0.0 0.0 0.0 0.0
583 2 75.2147701258 2.36804866363 0.0 0.0 0.0 0.0
584 2 0.645740125773 5.06430866363 0.0 0.0 0.0 0.0
585 2 1.71915012577 7.54996866363 0.0 0.0 0.0 0.0
586 2 77.4183701258 7.39423866363 0.0 0.0 0.0 0.0
587 2 5.36910012577 5.05148866363 0.0 0.0 0.0 0.0
588 2 6.54739012577 7.29594866363 0.0 0.0 0.0 0.0
589 2 4.07680012577 7.44878866363 0.0 0.0 0.0 0.0
590 2 9.50257012577 4.98318866363 0.0 0.0 0.0 0.0
591 2 11.5735701258 6.89515866363 0.0 0.0 0.0 0.0
592 2 9.05984012577 7.30213866363 0.0 0.0 0.0 0.0
593 2 15.5891701258 4.52223866363 0.0 0.0 0.0 0.0
594 2 16.7491701258 6.72691866363 0.0 0.0 0.0 0.0
595 2 14.1514701258 6.83495866363 0.0 0.0 0.0 0.0
596 2 20.9502701258 4.59790866363 0.0 0.0 0.0 0.0
597 2 22.0581701258 6.86616866363 0.0 0.0 0.0 0.0
598 2 19.4120701258 6.77180866363 0.0 0.0 0.0 0.0