ITEM: TIMESTEP
0
ITEM: NUMBER OF ATOMS
1350
ITEM: BOX BOUNDS xy xz yz pp pp pp
0.0 76.3921477873 0
0.0 82.8630340386 0
-10.0 10.0 0
ITEM: ATOMS id type x y z vx vy vz
1 1 2.43366167048 1.37280701931 0.0 0.0 0.0 0.0
2 1 7.29290167048 1.51430701931 0.0 0.0 0.0 0.0
3 1 12.3317116705 1.02586801931 0.0 0.0 0.0 0.0
4 1 17.6126116705 0.704648019311 0.0 0.0 0.0 0.0
5 1 22.8960116705 1.45815701931 0.0 0.0 0.0 0.0
6 1 28.1410116705 1.52736701931 0.0 0.0 0.0 0.0
7 1 34.9508116705 0.796111019311 0.0 0.0 0.0 0.0
8 1 37.9817116705 0.946028019311 0.0 0.0 0.0 0.0
9 1 43.6103116705 1.33182701931 0.0 0.0 0.0 0.0
10 1 48.9011116705 1.98760701931 0.0 0.0 0.0 0.0
11 1 53.9813116705 2.23463701931 0.0 0.0 0.0 0.0
12 1 59.1270116705 1.83324701931 0.0 0.0 0.0 0.0
13 1 64.0951116705 1.32388701931 0.0 0.0 0.0 0.0
14 1 69.1419116705 1.46287701931 0.0 0.0 0.0 0.0
15 1 73.8500116705 1.54457701931 0.0 0.0 0.0 0.0
16 1 76.0301116705 6.11241701931 0.0 0.0 0.0 0.0
17 1 4.98957167048 6.22192701931 0.0 0.0 0.0 0.0
18 1 11.1597116705 5.60113701931 0.0 0.0 0.0 0.0
19 1 14.1164116705 5.09388701931 0.0 0.0 0.0 0.0
20 1 19.1692116705 5.29865701931 0.0 0.0 0.0 0.0
21 1 24.5751116705 5.85359701931 0.0 0.0 0.0 0.0
22 1 30.3343116705 6.53732701931 0.0 0.0 0.0 0.0
23 1 35.2620116705 5.79356701931 0.0 0.0 0.0 0.0
24 1 40.4205116705 5.27564701931 0.0 0.0 0.0 0.0
25 1 45.6952116705 5.99530701931 0.0 0.0 0.0 0.0
26 1 51.0108116705 6.70973701931 0.0 0.0 0.0 0.0
27 1 56.3370116705 6.59910701931 0.0 0.0 0.0 0.0
28 1 61.3649116705 6.29367701931 0.0 0.0 0.0 0.0
29 1 66.1009116705 6.08898701931 0.0 0.0 0.0 0.0
30 1 71.0209116705 6.35728701931 0.0 0.0 0.0 0.0
31 1 2.18790167048 10.5241170193 0.0 0.0 0.0 0.0
32 1 5.93769167048 13.7138170193 0.0 0.0 0.0 0.0
33 1 12.5395116705 10.0761870193 0.0 0.0 0.0 0.0
34 1 15.5205116705 9.60617701931 0.0 0.0 0.0 0.0
35 1 20.9412116705 9.73175701931 0.0 0.0 0.0 0.0
36 1 25.9151116705 8.53635701931 0.0 0.0 0.0 0.0
37 1 33.1581116705 10.8017170193 0.0 0.0 0.0 0.0
38 1 38.4289116705 10.0625270193 0.0 0.0 0.0 0.0
39 1 43.3436116705 9.98085701931 0.0 0.0 0.0 0.0
40 1 48.0531116705 12.5654170193 0.0 0.0 0.0 0.0
41 1 53.6046116705 11.0911170193 0.0 0.0 0.0 0.0
42 1 58.7645116705 11.1423170193 0.0 0.0 0.0 0.0
43 1 63.4435116705 11.1039170193 0.0 0.0 0.0 0.0
44 1 68.2788116705 10.9767170193 0.0 0.0 0.0 0.0
45 1 73.4381116705 10.8981170193 0.0 0.0 0.0 0.0
46 1 75.7613116705 15.2475170193 0.0 0.0 0.0 0.0
47 1 4.31923167048 16.2540170193 0.0 0.0 0.0 0.0
48 1 8.97861167048 16.9432170193 0.0 0.0 0.0 0.0
49 1 13.5801116705 15.3514170193 0.0 0.0 0.0 0.0
50 1 18.3514116705 13.9565170193 0.0 0.0 0.0 0.0
51 1 23.7553116705 13.6309170193 0.0 0.0 0.0 0.0
52 1 30.2425116705 14.7848170193 0.0 0.0 0.0 0.0
53 1 35.9522116705 14.8227170193 0.0 0.0 0.0 0.0
54 1 41.0835116705 14.7934170193 0.0 0.0 0.0 0.0
55 1 46.4864116705 15.1214170193 0.0 0.0 0.0 0.0
56 1 51.1625116705 15.6875170193 0.0 0.0 0.0 0.0
57 1 56.1059116705 15.7023170193 0.0 0.0 0.0 0.0
58 1 60.8008116705 16.0920170193 0.0 0.0 0.0 0.0
59 1 65.7907116705 15.8812170193 0.0 0.0 0.0 0.0
60 1 70.6468116705 15.5007170193 0.0 0.0 0.0 0.0
61 1 1.29835167048 22.7853170193 0.0 0.0 0.0 0.0
62 1 6.83521167048 21.3734170193 0.0 0.0 0.0 0.0
63 1 12.2914116705 20.7310170193 0.0 0.0 0.0 0.0
64 1 17.6458116705 19.0092170193 0.0 0.0 0.0 0.0
65 1 22.3972116705 17.7625170193 0.0 0.0 0.0 0.0
66 1 27.7366116705 19.7788170193 0.0 0.0 0.0 0.0
67 1 33.2294116705 18.7641170193 0.0 0.0 0.0 0.0
68 1 38.1880116705 19.3910170193 0.0 0.0 0.0 0.0
69 1 44.8236116705 19.0726170193 0.0 0.0 0.0 0.0
70 1 47.6701116705 20.0788170193 0.0 0.0 0.0 0.0
71 1 53.7250116705 20.3857170193 0.0 0.0 0.0 0.0
72 1 56.2159116705 23.4202170193 0.0 0.0 0.0 0.0
73 1 63.7427116705 20.7035170193 0.0 0.0 0.0 0.0
74 1 68.8142116705 20.4623170193 0.0 0.0 0.0 0.0
75 1 73.5379116705 19.9402170193 0.0 0.0 0.0 0.0
76 1 0.0867316704822 25.5398170193 0.0 0.0 0.0 0.0
77 1 4.78720167048 25.9048170193 0.0 0.0 0.0 0.0
78 1 9.90011167048 25.2494170193 0.0 0.0 0.0 0.0
79 1 16.2501116705 23.6821170193 0.0 0.0 0.0 0.0
80 1 21.4654116705 22.9104170193 0.0 0.0 0.0 0.0
81 1 26.4103116705 22.4780170193 0.0 0.0 0.0 0.0
82 1 31.2870116705 23.2400170193 0.0 0.0 0.0 0.0
83 1 34.6790116705 26.4403170193 0.0 0.0 0.0 0.0
84 1 39.8373116705 24.6023170193 0.0 0.0 0.0 0.0
85 1 44.8316116705 24.0888170193 0.0 0.0 0.0 0.0
86 1 49.3750116705 22.5735170193 0.0 0.0 0.0 0.0
87 1 59.0616116705 24.2874170193 0.0 0.0 0.0 0.0
88 1 62.3352116705 25.9114170193 0.0 0.0 0.0 0.0
89 1 66.9064116705 25.2005170193 0.0 0.0 0.0 0.0
90 1 71.6725116705 25.0811170193 0.0 0.0 0.0 0.0
91 1 2.44737167048 30.5484170193 0.0 0.0 0.0 0.0
92 1 7.76590167048 30.0625170193 0.0 0.0 0.0 0.0
93 1 12.0847116705 27.2852170193 0.0 0.0 0.0 0.0
94 1 18.1301116705 30.3092170193 0.0 0.0 0.0 0.0
95 1 24.8340116705 27.3130170193 0.0 0.0 0.0 0.0
96 1 27.8401116705 27.4253170193 0.0 0.0 0.0 0.0
97 1 33.0399116705 28.9638170193 0.0 0.0 0.0 0.0
98 1 38.0902116705 29.6205170193 0.0 0.0 0.0 0.0
99 1 43.1535116705 28.8960170193 0.0 0.0 0.0 0.0
100 1 48.4982116705 27.9604170193 0.0 0.0 0.0 0.0
101 1 53.8528116705 28.6951170193 0.0 0.0 0.0 0.0
102 1 58.6047116705 30.0450170193 0.0 0.0 0.0 0.0
103 1 64.1232116705 30.3336170193 0.0 0.0 0.0 0.0
104 1 69.1757116705 30.0080170193 0.0 0.0 0.0 0.0
105 1 73.9130116705 30.1368170193 0.0 0.0 0.0 0.0
106 1 76.3856116705 35.0715170193 0.0 0.0 0.0 0.0
107 1 5.08079167048 34.6704170193 0.0 0.0 0.0 0.0
108 1 12.6407116705 32.2960170193 0.0 0.0 0.0 0.0
109 1 15.6265116705 31.9684170193 0.0 0.0 0.0 0.0
110 1 19.9973116705 34.0414170193 0.0 0.0 0.0 0.0
111 1 25.6490116705 32.5336170193 0.0 0.0 0.0 0.0
112 1 30.5673116705 34.4012170193 0.0 0.0 0.0 0.0
113 1 35.9087116705 33.8247170193 0.0 0.0 0.0 0.0
114 1 41.2819116705 33.7740170193 0.0 0.0 0.0 0.0
115 1 46.5140116705 32.6707170193 0.0 0.0 0.0 0.0
116 1 50.4610116705 35.2314170193 0.0 0.0 0.0 0.0
117 1 56.0256116705 34.2091170193 0.0 0.0 0.0 0.0
118 1 61.2174116705 34.4085170193 0.0 0.0 0.0 0.0
119 1 66.6207116705 34.8077170193 0.0 0.0 0.0 0.0
120 1 71.4261116705 34.9772170193 0.0 0.0 0.0 0.0
121 1 2.82341167048 39.4882170193 0.0 0.0 0.0 0.0
122 1 7.81185167048 38.5456170193 0.0 0.0 0.0 0.0
123 1 12.3805116705 37.2334170193 0.0 0.0 0.0 0.0
124 1 17.0018116705 39.5515170193 0.0 0.0 0.0 0.0
125 1 21.7290116705 36.4720170193 0.0 0.0 0.0 0.0
126 1 29.1985116705 37.0587170193 0.0 0.0 0.0 0.0
127 1 33.7692116705 38.4234170193 0.0 0.0 0.0 0.0
128 1 38.6343116705 38.1699170193 0.0 0.0 0.0 0.0
129 1 44.0544116705 37.6223170193 0.0 0.0 0.0 0.0
130 1 49.2206116705 38.0036170193 0.0 0.0 0.0 0.0
131 1 53.5580116705 41.2536170193 0.0 0.0 0.0 0.0
132 1 60.2984116705 38.4815170193 0.0 0.0 0.0 0.0
133 1 63.3261116705 38.8881170193 0.0 0.0 0.0 0.0
134 1 68.5706116705 39.7297170193 0.0 0.0 0.0 0.0
135 1 73.8644116705 39.7748170193 0.0 0.0 0.0 0.0
136 1 0.704651670482 44.0246170193 0.0 0.0 0.0 0.0
137 1 7.47097167048 42.9852170193 0.0 0.0 0.0 0.0
138 1 10.4578116705 42.6153170193 0.0 0.0 0.0 0.0
139 1 15.7432116705 42.2784170193 0.0 0.0 0.0 0.0
140 1 20.8775116705 41.7277170193 0.0 0.0 0.0 0.0
141 1 26.3670116705 40.7438170193 0.0 0.0 0.0 0.0
142 1 30.5644116705 44.4949170193 0.0 0.0 0.0 0.0
143 1 36.2420116705 43.0759170193 0.0 0.0 0.0 0.0
144 1 41.6100116705 42.1915170193 0.0 0.0 0.0 0.0
145 1 45.5846116705 44.7153170193 0.0 0.0 0.0 0.0
146 1 51.3055116705 43.3038170193 0.0 0.0 0.0 0.0
147 1 56.2443116705 44.7552170193 0.0 0.0 0.0 0.0
148 1 62.0522116705 43.2553170193 0.0 0.0 0.0 0.0
149 1 65.0615116705 43.7756170193 0.0 0.0 0.0 0.0
150 1 71.4890116705 44.2664170193 0.0 0.0 0.0 0.0
151 1 3.05835167048 48.6297170193 0.0 0.0 0.0 0.0
152 1 8.12879167048 48.1636170193 0.0 0.0 0.0 0.0
153 1 13.3137116705 46.8748170193 0.0 0.0 0.0 0.0
154 1 18.5086116705 46.5229170193 0.0 0.0 0.0 0.0
155 1 23.9320116705 45.2868170193 0.0 0.0 0.0 0.0
156 1 28.6974116705 46.8737170193 0.0 0.0 0.0 0.0
157 1 33.5294116705 47.5896170193 0.0 0.0 0.0 0.0
158 1 38.7550116705 47.0219170193 0.0 0.0 0.0 0.0
159 1 43.8297116705 47.2034170193 0.0 0.0 0.0 0.0
160 1 48.3405116705 47.7160170193 0.0 0.0 0.0 0.0
161 1 53.1488116705 48.4675170193 0.0 0.0 0.0 0.0
162 1 58.0891116705 49.7698170193 0.0 0.0 0.0 0.0
163 1 62.8055116705 48.8022170193 0.0 0.0 0.0 0.0
164 1 66.5959116705 46.4726170193 0.0 0.0 0.0 0.0
165 1 74.1205116705 48.2700170193 0.0 0.0 0.0 0.0
166 1 0.269891670482 52.8372170193 0.0 0.0 0.0 0.0
167 1 5.63197167048 53.0002170193 0.0 0.0 0.0 0.0
168 1 12.9294116705 51.2988170193 0.0 0.0 0.0 0.0
169 1 15.9709116705 51.2045170193 0.0 0.0 0.0 0.0
170 1 23.2708116705 49.3532170193 0.0 0.0 0.0 0.0
171 1 24.1864116705 53.3678170193 0.0 0.0 0.0 0.0
172 1 30.0121116705 51.8608170193 0.0 0.0 0.0 0.0
173 1 35.6406116705 51.7295170193 0.0 0.0 0.0 0.0
174 1 40.7289116705 51.7482170193 0.0 0.0 0.0 0.0
175 1 45.5147116705 52.4070170193 0.0 0.0 0.0 0.0
176 1 50.5293116705 52.7859170193 0.0 0.0 0.0 0.0
177 1 55.4224116705 55.3380170193 0.0 0.0 0.0 0.0
178 1 61.1641116705 53.9971170193 0.0 0.0 0.0 0.0
179 1 65.9798116705 52.5044170193 0.0 0.0 0.0 0.0
180 1 71.1593116705 52.2737170193 0.0 0.0 0.0 0.0
181 1 2.91259167048 57.3310170193 0.0 0.0 0.0 0.0
182 1 7.80901167048 57.3514170193 0.0 0.0 0.0 0.0
183 1 12.6815116705 56.4649170193 0.0 0.0 0.0 0.0
184 1 17.9278116705 55.6732170193 0.0 0.0 0.0 0.0
185 1 23.0200116705 56.1379170193 0.0 0.0 0.0 0.0
186 1 27.7502116705 56.0237170193 0.0 0.0 0.0 0.0
187 1 33.0308116705 55.9198170193 0.0 0.0 0.0 0.0
188 1 38.0525116705 56.3866170193 0.0 0.0 0.0 0.0
189 1 42.7843116705 56.8908170193 0.0 0.0 0.0 0.0
190 1 47.9429116705 57.2270170193 0.0 0.0 0.0 0.0
191 1 53.6090116705 57.7302170193 0.0 0.0 0.0 0.0
192 1 58.4611116705 58.2269170193 0.0 0.0 0.0 0.0
193 1 63.5666116705 57.9154170193 0.0 0.0 0.0 0.0
194 1 68.7605116705 57.0123170193 0.0 0.0 0.0 0.0
195 1 74.2287116705 56.7781170193 0.0 0.0 0.0 0.0
196 1 0.150751670482 61.6690170193 0.0 0.0 0.0 0.0
197 1 5.72642167048 62.0919170193 0.0 0.0 0.0 0.0
198 1 10.4922116705 61.5758170193 0.0 0.0 0.0 0.0
199 1 15.2109116705 60.5125170193 0.0 0.0 0.0 0.0
200 1 20.3714116705 60.4987170193 0.0 0.0 0.0 0.0
201 1 25.0006116705 60.8719170193 0.0 0.0 0.0 0.0
202 1 30.0112116705 60.3503170193 0.0 0.0 0.0 0.0
203 1 34.9608116705 60.7650170193 0.0 0.0 0.0 0.0
204 1 39.8070116705 61.4904170193 0.0 0.0 0.0 0.0
205 1 45.2630116705 61.6201170193 0.0 0.0 0.0 0.0
206 1 50.6086116705 61.4389170193 0.0 0.0 0.0 0.0
207 1 55.9603116705 62.6822170193 0.0 0.0 0.0 0.0
208 1 60.7176116705 62.6207170193 0.0 0.0 0.0 0.0
209 1 64.7723116705 60.6939170193 0.0 0.0 0.0 0.0
210 1 71.5208116705 61.1265170193 0.0 0.0 0.0 0.0
211 1 1.28711167048 64.4559170193 0.0 0.0 0.0 0.0
212 1 8.06283167048 66.6399170193 0.0 0.0 0.0 0.0
213 1 12.7074116705 65.7733170193 0.0 0.0 0.0 0.0
214 1 17.8942116705 65.0246170193 0.0 0.0 0.0 0.0
215 1 22.9331116705 65.5709170193 0.0 0.0 0.0 0.0
216 1 27.9424116705 65.1953170193 0.0 0.0 0.0 0.0
217 1 32.9172116705 67.1033170193 0.0 0.0 0.0 0.0
218 1 37.3240116705 67.7416170193 0.0 0.0 0.0 0.0
219 1 42.8185116705 65.8444170193 0.0 0.0 0.0 0.0
220 1 49.5663116705 65.4829170193 0.0 0.0 0.0 0.0
221 1 52.4917116705 66.1786170193 0.0 0.0 0.0 0.0
222 1 57.6087116705 67.4108170193 0.0 0.0 0.0 0.0
223 1 63.6010116705 66.5325170193 0.0 0.0 0.0 0.0
224 1 68.8190116705 65.6116170193 0.0 0.0 0.0 0.0
225 1 73.6161116705 65.9676170193 0.0 0.0 0.0 0.0
226 1 0.439661670482 70.1471170193 0.0 0.0 0.0 0.0
227 1 4.99877167048 72.6486170193 0.0 0.0 0.0 0.0
228 1 10.8217116705 71.0880170193 0.0 0.0 0.0 0.0
229 1 16.0389116705 69.7778170193 0.0 0.0 0.0 0.0
230 1 20.7445116705 72.1335170193 0.0 0.0 0.0 0.0
231 1 25.9784116705 70.0193170193 0.0 0.0 0.0 0.0
232 1 31.3127116705 69.6816170193 0.0 0.0 0.0 0.0
233 1 35.8053116705 70.3385170193 0.0 0.0 0.0 0.0
234 1 40.5082116705 70.4772170193 0.0 0.0 0.0 0.0
235 1 45.2570116705 70.7003170193 0.0 0.0 0.0 0.0
236 1 49.8238116705 70.6112170193 0.0 0.0 0.0 0.0
237 1 54.9661116705 71.2239170193 0.0 0.0 0.0 0.0
238 1 59.2580116705 69.9333170193 0.0 0.0 0.0 0.0
239 1 66.4797116705 70.4724170193 0.0 0.0 0.0 0.0
240 1 71.8056116705 70.5285170193 0.0 0.0 0.0 0.0
241 1 3.10134167048 75.0547170193 0.0 0.0 0.0 0.0
242 1 8.16198167048 75.4434170193 0.0 0.0 0.0 0.0
243 1 15.7913116705 74.1148170193 0.0 0.0 0.0 0.0
244 1 18.8315116705 74.4680170193 0.0 0.0 0.0 0.0
245 1 25.4461116705 74.5483170193 0.0 0.0 0.0 0.0
246 1 28.4399116705 74.2735170193 0.0 0.0 0.0 0.0
247 1 32.7851116705 74.9191170193 0.0 0.0 0.0 0.0
248 1 37.9894116705 75.2170170193 0.0 0.0 0.0 0.0
249 1 43.2961116705 75.3041170193 0.0 0.0 0.0 0.0
250 1 48.3309116705 75.4855170193 0.0 0.0 0.0 0.0
251 1 52.9405116705 77.8130170193 0.0 0.0 0.0 0.0
252 1 58.2094116705 75.5052170193 0.0 0.0 0.0 0.0
253 1 63.3642116705 74.7963170193 0.0 0.0 0.0 0.0
254 1 68.7717116705 74.8771170193 0.0 0.0 0.0 0.0
255 1 74.0549116705 75.0645170193 0.0 0.0 0.0 0.0
256 1 76.3887116705 3.12829701931 0.0 0.0 0.0 0.0
257 1 4.82158167048 3.21115701931 0.0 0.0 0.0 0.0
258 1 9.96531167048 2.85887701931 0.0 0.0 0.0 0.0
259 1 15.0514116705 2.25547701931 0.0 0.0 0.0 0.0
260 1 20.0552116705 2.43571701931 0.0 0.0 0.0 0.0
261 1 25.4904116705 2.98322701931 0.0 0.0 0.0 0.0
262 1 30.4232116705 3.52567701931 0.0 0.0 0.0 0.0
263 1 33.4429116705 3.38725701931 0.0 0.0 0.0 0.0
264 1 40.7120116705 2.27126701931 0.0 0.0 0.0 0.0
265 1 46.0787116705 3.03773701931 0.0 0.0 0.0 0.0
266 1 51.3601116705 3.71854701931 0.0 0.0 0.0 0.0
267 1 56.6670116705 3.59523701931 0.0 0.0 0.0 0.0
268 1 61.7702116705 3.28031701931 0.0 0.0 0.0 0.0
269 1 66.5627116705 3.07033701931 0.0 0.0 0.0 0.0
270 1 71.4545116705 3.37404701931 0.0 0.0 0.0 0.0
271 1 2.27891167048 7.52757701931 0.0 0.0 0.0 0.0
272 1 7.02576167048 8.44441701931 0.0 0.0 0.0 0.0
273 1 10.0442116705 8.38147701931 0.0 0.0 0.0 0.0
274 1 16.5667116705 6.79931701931 0.0 0.0 0.0 0.0
275 1 21.7313116705 6.83873701931 0.0 0.0 0.0 0.0
276 1 28.8441116705 9.14794701931 0.0 0.0 0.0 0.0
277 1 33.0515116705 7.80719701931 0.0 0.0 0.0 0.0
278 1 37.9977116705 7.06476701931 0.0 0.0 0.0 0.0
279 1 42.8720116705 7.01659701931 0.0 0.0 0.0 0.0
280 1 48.1581116705 7.70421701931 0.0 0.0 0.0 0.0
281 1 53.6992116705 8.07857701931 0.0 0.0 0.0 0.0
282 1 58.9445116705 8.11549701931 0.0 0.0 0.0 0.0
283 1 63.7991116705 8.07177701931 0.0 0.0 0.0 0.0
284 1 68.4664116705 7.95636701931 0.0 0.0 0.0 0.0
285 1 73.6015116705 7.89078701931 0.0 0.0 0.0 0.0
286 1 76.1194116705 12.2612170193 0.0 0.0 0.0 0.0
287 1 5.17443167048 10.8211170193 0.0 0.0 0.0 0.0
288 1 8.92451167048 13.9559170193 0.0 0.0 0.0 0.0
289 1 11.7567116705 12.9674170193 0.0 0.0 0.0 0.0
290 1 18.1946116705 10.9707170193 0.0 0.0 0.0 0.0
291 1 23.7943116705 10.6528170193 0.0 0.0 0.0 0.0
292 1 30.3159116705 11.7763170193 0.0 0.0 0.0 0.0
293 1 35.9838116705 11.8216170193 0.0 0.0 0.0 0.0
294 1 40.9240116705 11.7734170193 0.0 0.0 0.0 0.0
295 1 46.3546116705 10.1082670193 0.0 0.0 0.0 0.0
296 1 51.0533116705 12.6911170193 0.0 0.0 0.0 0.0
297 1 56.1670116705 12.6802170193 0.0 0.0 0.0 0.0
298 1 61.1079116705 13.0484170193 0.0 0.0 0.0 0.0
299 1 65.9055116705 12.8471170193 0.0 0.0 0.0 0.0
300 1 70.8784116705 12.4941170193 0.0 0.0 0.0 0.0
301 1 1.51748167048 17.3356170193 0.0 0.0 0.0 0.0
302 1 6.38306167048 18.4191170193 0.0 0.0 0.0 0.0
303 1 11.8368116705 17.7817170193 0.0 0.0 0.0 0.0
304 1 16.4404116705 16.2514170193 0.0 0.0 0.0 0.0
305 1 21.1296116705 15.0521170193 0.0 0.0 0.0 0.0
306 1 25.0265116705 16.3272170193 0.0 0.0 0.0 0.0
307 1 33.0929116705 15.7714170193 0.0 0.0 0.0 0.0
308 1 38.5249116705 16.3948170193 0.0 0.0 0.0 0.0
309 1 43.7181116705 16.2673170193 0.0 0.0 0.0 0.0
310 1 48.6067116705 17.2406170193 0.0 0.0 0.0 0.0
311 1 53.6157116705 17.3889170193 0.0 0.0 0.0 0.0
312 1 58.2750116705 17.7914170193 0.0 0.0 0.0 0.0
313 1 63.3688116705 17.6916170193 0.0 0.0 0.0 0.0
314 1 68.3624116705 17.4649170193 0.0 0.0 0.0 0.0
315 1 73.2762116705 16.9420170193 0.0 0.0 0.0 0.0
316 1 0.147791670482 20.0176170193 0.0 0.0 0.0 0.0
317 1 4.29113167048 22.9585170193 0.0 0.0 0.0 0.0
318 1 9.70791167048 22.2630170193 0.0 0.0 0.0 0.0
319 1 15.2847116705 20.8639170193 0.0 0.0 0.0 0.0
320 1 20.4770116705 20.0660170193 0.0 0.0 0.0 0.0
321 1 27.9792116705 16.7834170193 0.0 0.0 0.0 0.0
322 1 30.6766116705 20.3196170193 0.0 0.0 0.0 0.0
323 1 35.4968116705 20.7305170193 0.0 0.0 0.0 0.0
324 1 40.1908116705 21.6268170193 0.0 0.0 0.0 0.0
325 1 43.1893116705 21.5710170193 0.0 0.0 0.0 0.0
326 1 52.3462116705 23.0912170193 0.0 0.0 0.0 0.0
327 1 56.7274116705 20.4271170193 0.0 0.0 0.0 0.0
328 1 61.7525116705 22.9689170193 0.0 0.0 0.0 0.0
329 1 66.3632116705 22.2185170193 0.0 0.0 0.0 0.0
330 1 71.3861116705 22.0572170193 0.0 0.0 0.0 0.0
331 1 2.29871167048 27.5575170193 0.0 0.0 0.0 0.0
332 1 7.52939167048 27.0759170193 0.0 0.0 0.0 0.0
333 1 14.9250116705 26.3529170193 0.0 0.0 0.0 0.0
334 1 19.0635116705 24.6928170193 0.0 0.0 0.0 0.0
335 1 24.0847116705 24.3831170193 0.0 0.0 0.0 0.0
336 1 28.5985116705 24.5316170193 0.0 0.0 0.0 0.0
337 1 34.2648116705 23.4748170193 0.0 0.0 0.0 0.0
338 1 37.6641116705 26.6616170193 0.0 0.0 0.0 0.0
339 1 42.5073116705 25.9735170193 0.0 0.0 0.0 0.0
340 1 47.6839116705 25.0551170193 0.0 0.0 0.0 0.0
341 1 54.0769116705 25.5938170193 0.0 0.0 0.0 0.0
342 1 59.6431116705 27.2212170193 0.0 0.0 0.0 0.0
343 1 64.8962116705 27.4301170193 0.0 0.0 0.0 0.0
344 1 69.3345116705 26.9769170193 0.0 0.0 0.0 0.0
345 1 73.9121116705 27.1006170193 0.0 0.0 0.0 0.0
346 1 76.2422116705 32.0552170193 0.0 0.0 0.0 0.0
347 1 5.22800167048 31.6759170193 0.0 0.0 0.0 0.0
348 1 10.7616116705 29.9747170193 0.0 0.0 0.0 0.0
349 1 17.7368116705 27.3608170193 0.0 0.0 0.0 0.0
350 1 20.9878116705 31.2144170193 0.0 0.0 0.0 0.0
351 1 23.7993116705 30.1454170193 0.0 0.0 0.0 0.0
352 1 30.0611116705 29.4505170193 0.0 0.0 0.0 0.0
353 1 35.3631116705 30.8762170193 0.0 0.0 0.0 0.0
354 1 40.8431116705 30.8079170193 0.0 0.0 0.0 0.0
355 1 46.0424116705 29.7065170193 0.0 0.0 0.0 0.0
356 1 50.9717116705 29.6939170193 0.0 0.0 0.0 0.0
357 1 55.7723116705 31.1229170193 0.0 0.0 0.0 0.0
358 1 61.2997116705 31.4054170193 0.0 0.0 0.0 0.0
359 1 66.7476116705 31.7973170193 0.0 0.0 0.0 0.0
360 1 71.4935116705 31.9392170193 0.0 0.0 0.0 0.0
361 1 2.66539167048 36.4738170193 0.0 0.0 0.0 0.0
362 1 7.94463167048 35.5547170193 0.0 0.0 0.0 0.0
363 1 10.8166116705 34.6803170193 0.0 0.0 0.0 0.0
364 1 17.0508116705 34.5929170193 0.0 0.0 0.0 0.0
365 1 24.5124116705 35.3368170193 0.0 0.0 0.0 0.0
366 1 28.6390116705 32.0989170193 0.0 0.0 0.0 0.0
367 1 33.3856116705 35.4406170193 0.0 0.0 0.0 0.0
368 1 38.6055116705 35.1633170193 0.0 0.0 0.0 0.0
369 1 44.1824116705 34.6099170193 0.0 0.0 0.0 0.0
370 1 49.5224116705 32.3692170193 0.0 0.0 0.0 0.0
371 1 53.4224116705 35.8074170193 0.0 0.0 0.0 0.0
372 1 58.6060116705 35.9132170193 0.0 0.0 0.0 0.0
373 1 63.8261116705 35.9247170193 0.0 0.0 0.0 0.0
374 1 68.9525116705 36.7186170193 0.0 0.0 0.0 0.0
375 1 73.8764116705 36.7439170193 0.0 0.0 0.0 0.0
376 1 0.232171670482 41.0404170193 0.0 0.0 0.0 0.0
377 1 5.62934167048 40.5996170193 0.0 0.0 0.0 0.0
378 1 10.6009116705 39.6314170193 0.0 0.0 0.0 0.0
379 1 15.3627116705 37.0605170193 0.0 0.0 0.0 0.0
380 1 19.9376116705 38.8897170193 0.0 0.0 0.0 0.0
381 1 26.2928116705 37.7481170193 0.0 0.0 0.0 0.0
382 1 30.9697116705 39.4708170193 0.0 0.0 0.0 0.0
383 1 36.2879116705 40.0594170193 0.0 0.0 0.0 0.0
384 1 41.4614116705 39.1849170193 0.0 0.0 0.0 0.0
385 1 46.4816116705 39.4077170193 0.0 0.0 0.0 0.0
386 1 52.1980116705 38.5681170193 0.0 0.0 0.0 0.0
387 1 56.5652116705 41.7817170193 0.0 0.0 0.0 0.0
388 1 59.5936116705 41.4155170193 0.0 0.0 0.0 0.0
389 1 65.7171116705 40.8045170193 0.0 0.0 0.0 0.0
390 1 71.2057116705 41.2479170193 0.0 0.0 0.0 0.0
391 1 3.27963167048 45.6355170193 0.0 0.0 0.0 0.0
392 1 6.30568167048 45.7446170193 0.0 0.0 0.0 0.0
393 1 13.1850116705 43.8725170193 0.0 0.0 0.0 0.0
394 1 18.4690116705 43.5295170193 0.0 0.0 0.0 0.0
395 1 23.8156116705 42.3052170193 0.0 0.0 0.0 0.0
396 1 29.1579116705 41.8502170193 0.0 0.0 0.0 0.0
397 1 33.5926116705 44.5814170193 0.0 0.0 0.0 0.0
398 1 39.1357116705 44.0091170193 0.0 0.0 0.0 0.0
399 1 44.6414116705 41.8598170193 0.0 0.0 0.0 0.0
400 1 48.6124116705 44.7196170193 0.0 0.0 0.0 0.0
401 1 53.3450116705 45.4927170193 0.0 0.0 0.0 0.0
402 1 58.4306116705 46.7973170193 0.0 0.0 0.0 0.0
403 1 61.3568116705 46.1720170193 0.0 0.0 0.0 0.0
404 1 69.6283116705 46.6629170193 0.0 0.0 0.0 0.0
405 1 74.3404116705 45.2686170193 0.0 0.0 0.0 0.0
406 1 0.303951670482 49.8337170193 0.0 0.0 0.0 0.0
407 1 5.74378167048 49.9995170193 0.0 0.0 0.0 0.0
408 1 11.0822116705 48.8918170193 0.0 0.0 0.0 0.0
409 1 16.0178116705 48.1989170193 0.0 0.0 0.0 0.0
410 1 21.4668116705 46.9714170193 0.0 0.0 0.0 0.0
411 1 25.7718116705 47.6486170193 0.0 0.0 0.0 0.0
412 1 30.8425116705 48.9681170193 0.0 0.0 0.0 0.0
413 1 36.2872116705 48.7816170193 0.0 0.0 0.0 0.0
414 1 41.2240116705 48.7494170193 0.0 0.0 0.0 0.0
415 1 45.8581116705 49.4112170193 0.0 0.0 0.0 0.0
416 1 50.4772116705 49.7971170193 0.0 0.0 0.0 0.0
417 1 55.2250116705 50.6050170193 0.0 0.0 0.0 0.0
418 1 60.8002116705 51.0276170193 0.0 0.0 0.0 0.0
419 1 65.7399116705 49.4266170193 0.0 0.0 0.0 0.0
420 1 71.2601116705 49.2312170193 0.0 0.0 0.0 0.0
421 1 2.91148167048 54.3150170193 0.0 0.0 0.0 0.0
422 1 8.30484167048 54.3864170193 0.0 0.0 0.0 0.0
423 1 11.2677116705 53.8108170193 0.0 0.0 0.0 0.0
424 1 18.6204116705 52.7168170193 0.0 0.0 0.0 0.0
425 1 21.5697116705 51.8518170193 0.0 0.0 0.0 0.0
426 1 27.2158116705 53.0696170193 0.0 0.0 0.0 0.0
427 1 32.8534116705 52.9187170193 0.0 0.0 0.0 0.0
428 1 38.1745116705 53.3648170193 0.0 0.0 0.0 0.0
429 1 42.8805116705 53.8638170193 0.0 0.0 0.0 0.0
430 1 47.9046116705 54.2277170193 0.0 0.0 0.0 0.0
431 1 53.5096116705 53.0529170193 0.0 0.0 0.0 0.0
432 1 58.4240116705 55.2417170193 0.0 0.0 0.0 0.0
433 1 64.0436116705 54.8903170193 0.0 0.0 0.0 0.0
434 1 68.6355116705 53.9690170193 0.0 0.0 0.0 0.0
435 1 73.7976116705 53.7895170193 0.0 0.0 0.0 0.0
436 1 0.210591670482 58.6496170193 0.0 0.0 0.0 0.0
437 1 5.35552167048 59.0949170193 0.0 0.0 0.0 0.0
438 1 10.5436116705 58.5766170193 0.0 0.0 0.0 0.0
439 1 15.5058116705 57.4944170193 0.0 0.0 0.0 0.0
440 1 20.3338116705 57.4833170193 0.0 0.0 0.0 0.0
441 1 25.4220116705 57.9104170193 0.0 0.0 0.0 0.0
442 1 30.4147116705 57.3824170193 0.0 0.0 0.0 0.0
443 1 35.3871116705 57.7818170193 0.0 0.0 0.0 0.0
444 1 40.2189116705 58.4831170193 0.0 0.0 0.0 0.0
445 1 45.2679116705 58.6057170193 0.0 0.0 0.0 0.0
446 1 50.6922116705 58.4436170193 0.0 0.0 0.0 0.0
447 1 55.8598116705 59.6969170193 0.0 0.0 0.0 0.0
448 1 61.0898116705 59.6277170193 0.0 0.0 0.0 0.0
449 1 67.6399116705 59.8396170193 0.0 0.0 0.0 0.0
450 1 71.5490116705 58.1257170193 0.0 0.0 0.0 0.0
451 1 4.25549167048 64.7107170193 0.0 0.0 0.0 0.0
452 1 8.30320167048 63.6278170193 0.0 0.0 0.0 0.0
453 1 13.2192116705 62.7912170193 0.0 0.0 0.0 0.0
454 1 17.7965116705 62.0254170193 0.0 0.0 0.0 0.0
455 1 22.5445116705 62.5809170193 0.0 0.0 0.0 0.0
456 1 27.6628116705 62.2128170193 0.0 0.0 0.0 0.0
457 1 32.3331116705 62.2271170193 0.0 0.0 0.0 0.0
458 1 37.0988116705 62.8687170193 0.0 0.0 0.0 0.0
459 1 42.5088116705 62.8523170193 0.0 0.0 0.0 0.0
460 1 47.9954116705 62.9147170193 0.0 0.0 0.0 0.0
461 1 53.0228116705 63.2350170193 0.0 0.0 0.0 0.0
462 1 58.3552116705 64.4903170193 0.0 0.0 0.0 0.0
463 1 63.5795116705 63.4959170193 0.0 0.0 0.0 0.0
464 1 68.9116116705 62.5816170193 0.0 0.0 0.0 0.0
465 1 73.8556116705 62.9795170193 0.0 0.0 0.0 0.0
466 1 76.3546116705 67.1654170193 0.0 0.0 0.0 0.0
467 1 5.19968167048 67.5688170193 0.0 0.0 0.0 0.0
468 1 10.7151116705 68.0548170193 0.0 0.0 0.0 0.0
469 1 15.5033116705 66.8323170193 0.0 0.0 0.0 0.0
470 1 20.2382116705 66.8955170193 0.0 0.0 0.0 0.0
471 1 25.5652116705 67.0381170193 0.0 0.0 0.0 0.0
472 1 30.9250116705 64.8855170193 0.0 0.0 0.0 0.0
473 1 35.4518116705 65.4231170193 0.0 0.0 0.0 0.0
474 1 40.3113116705 67.4956170193 0.0 0.0 0.0 0.0
475 1 45.1853116705 67.7109170193 0.0 0.0 0.0 0.0
476 1 48.1613116705 68.1035170193 0.0 0.0 0.0 0.0
477 1 54.7124116705 68.2221170193 0.0 0.0 0.0 0.0
478 1 62.1843116705 69.2206170193 0.0 0.0 0.0 0.0
479 1 66.4510116705 67.4637170193 0.0 0.0 0.0 0.0
480 1 71.1031116705 67.5891170193 0.0 0.0 0.0 0.0
481 1 3.46748167048 70.0556170193 0.0 0.0 0.0 0.0
482 1 8.05810167048 72.4427170193 0.0 0.0 0.0 0.0
483 1 13.8062116705 71.8109170193 0.0 0.0 0.0 0.0
484 1 19.0507116705 69.6581170193 0.0 0.0 0.0 0.0
485 1 23.7632116705 72.0571170193 0.0 0.0 0.0 0.0
486 1 28.7323116705 71.2577170193 0.0 0.0 0.0 0.0
487 1 33.2688116705 71.9455170193 0.0 0.0 0.0 0.0
488 1 38.0982116705 72.2360170193 0.0 0.0 0.0 0.0
489 1 42.8024116705 72.3685170193 0.0 0.0 0.0 0.0
490 1 47.5817116705 72.5855170193 0.0 0.0 0.0 0.0
491 1 52.2180116705 72.4209170193 0.0 0.0 0.0 0.0
492 1 57.6891116705 72.5166170193 0.0 0.0 0.0 0.0
493 1 63.7722116705 71.7919170193 0.0 0.0 0.0 0.0
494 1 69.1247116705 71.8977170193 0.0 0.0 0.0 0.0
495 1 74.4370116705 72.0374170193 0.0 0.0 0.0 0.0
496 1 0.363791670482 76.4670170193 0.0 0.0 0.0 0.0
497 1 5.49846167048 76.8722170193 0.0 0.0 0.0 0.0
498 1 10.8303116705 76.8127170193 0.0 0.0 0.0 0.0
499 1 13.8203116705 76.3914170193 0.0 0.0 0.0 0.0
500 1 20.9640116705 76.6310170193 0.0 0.0 0.0 0.0
501 1 23.9524116705 77.1462170193 0.0 0.0 0.0 0.0
502 1 30.3198116705 76.6473170193 0.0 0.0 0.0 0.0
503 1 35.3074116705 76.5341170193 0.0 0.0 0.0 0.0
504 1 40.6198116705 76.6332170193 0.0 0.0 0.0 0.0
505 1 45.7543116705 77.0038170193 0.0 0.0 0.0 0.0
506 1 51.3219116705 75.2906170193 0.0 0.0 0.0 0.0
507 1 55.9486116705 77.5251170193 0.0 0.0 0.0 0.0
508 1 61.0008116705 76.6991170193 0.0 0.0 0.0 0.0
509 1 66.0469116705 76.1834170193 0.0 0.0 0.0 0.0
510 1 71.3287116705 76.4724170193 0.0 0.0 0.0 0.0
511 1 4.81714167048 79.8010170193 0.0 0.0 0.0 0.0
512 1 9.83071167048 79.6444170193 0.0 0.0 0.0 0.0
513 1 14.9600116705 79.1625170193 0.0 0.0 0.0 0.0
514 1 20.4244116705 79.5770170193 0.0 0.0 0.0 0.0
515 1 25.4497116705 79.7788170193 0.0 0.0 0.0 0.0
516 1 30.5705116705 79.6826170193 0.0 0.0 0.0 0.0
517 1 35.7112116705 79.4971170193 0.0 0.0 0.0 0.0
518 1 41.1127116705 79.5762170193 0.0 0.0 0.0 0.0
519 1 45.7149116705 82.0196170193 0.0 0.0 0.0 0.0
520 1 51.4184116705 80.4263170193 0.0 0.0 0.0 0.0
521 1 56.4873116705 80.4859170193 0.0 0.0 0.0 0.0
522 1 61.5501116705 79.6945170193 0.0 0.0 0.0 0.0
523 1 66.5343116705 79.1568170193 0.0 0.0 0.0 0.0
524 1 70.7224116705 81.7262170193 0.0 0.0 0.0 0.0
525 1 76.0976116705 79.4564170193 0.0 0.0 0.0 0.0
526 1 2.16141167048 81.2226170193 0.0 0.0 0.0 0.0
527 1 7.37113167048 81.3739170193 0.0 0.0 0.0 0.0
528 1 12.5330116705 80.9148170193 0.0 0.0 0.0 0.0
529 1 17.6025116705 80.5736170193 0.0 0.0 0.0 0.0
530 1 22.8752116705 81.3212170193 0.0 0.0 0.0 0.0
531 1 28.0454116705 81.3511170193 0.0 0.0 0.0 0.0
532 1 33.2219116705 81.1713170193 0.0 0.0 0.0 0.0
533 1 38.3985116705 80.8456170193 0.0 0.0 0.0 0.0
534 1 44.1123116705 79.5081170193 0.0 0.0 0.0 0.0
535 1 48.7408116705 81.8532170193 0.0 0.0 0.0 0.0
536 1 53.9311116705 82.0890170193 0.0 0.0 0.0 0.0
537 1 59.2551116705 81.6731170193 0.0 0.0 0.0 0.0
538 1 64.2219116705 81.1379170193 0.0 0.0 0.0 0.0
539 1 69.5644116705 78.9538170193 0.0 0.0 0.0 0.0
540 1 73.7364116705 81.3960170193 0.0 0.0 0.0 0.0
541 2 2.29204167048 82.7323170193 0.0 0.0 0.0 0.0
542 2 3.63420167048 2.28668701931 0.0 0.0 0.0 0.0
543 2 1.22029167048 2.26374701931 0.0 0.0 0.0 0.0
544 2 7.33581167048 0.0128910193105 0.0 0.0 0.0 0.0
545 2 8.60941167048 2.23519701931 0.0 0.0 0.0 0.0
546 2 6.07098167048 2.37519701931 0.0 0.0 0.0 0.0
547 2 11.1254116705 1.90492701931 0.0 0.0 0.0 0.0
548 2 13.7114116705 1.59286701931 0.0 0.0 0.0 0.0
549 2 12.4272116705 82.4018170193 0.0 0.0 0.0 0.0
550 2 17.5838116705 82.0741170193 0.0 0.0 0.0 0.0
551 2 18.8723116705 1.51179701931 0.0 0.0 0.0 0.0
552 2 16.3368116705 1.49698701931 0.0 0.0 0.0 0.0
553 2 22.8875116705 82.8189170193 0.0 0.0 0.0 0.0
554 2 24.1948116705 2.20675701931 0.0 0.0 0.0 0.0
555 2 21.4889116705 1.99621701931 0.0 0.0 0.0 0.0
556 2 28.1137116705 0.00950101931053 0.0 0.0 0.0 0.0
557 2 29.3233116705 2.48576701931 0.0 0.0 0.0 0.0
558 2 26.8176116705 2.27262701931 0.0 0.0 0.0 0.0
559 2 34.1826116705 2.08463701931 0.0 0.0 0.0 0.0
560 2 34.0026116705 82.4757170193 0.0 0.0 0.0 0.0
561 2 36.4627116705 0.965352019311 0.0 0.0 0.0 0.0
562 2 38.2506116705 82.3294170193 0.0 0.0 0.0 0.0
563 2 39.3267116705 1.64834701931 0.0 0.0 0.0 0.0
564 2 44.6020116705 0.181412019311 0.0 0.0 0.0 0.0
565 2 44.7883116705 2.28216701931 0.0 0.0 0.0 0.0
566 2 42.1384116705 1.71938701931 0.0 0.0 0.0 0.0
567 2 48.9296116705 0.488302019311 0.0 0.0 0.0 0.0
568 2 50.1252116705 2.85551701931 0.0 0.0 0.0 0.0
569 2 47.4877116705 2.51370701931 0.0 0.0 0.0 0.0
570 2 53.9494116705 0.729822019311 0.0 0.0 0.0 0.0
571 2 52.6852116705 3.00316701931 0.0 0.0 0.0 0.0
572 2 55.3230116705 2.90938701931 0.0 0.0 0.0 0.0
573 2 59.2075116705 0.322787419311 0.0 0.0 0.0 0.0
574 2 60.4446116705 2.55914701931 0.0 0.0 0.0 0.0
575 2 57.8960116705 2.71644701931 0.0 0.0 0.0 0.0
576 2 64.1690116705 82.6638170193 0.0 0.0 0.0 0.0
577 2 65.3457116705 2.17416701931 0.0 0.0 0.0 0.0
578 2 62.9262116705 2.29862701931 0.0 0.0 0.0 0.0
579 2 70.2595116705 2.46984701931 0.0 0.0 0.0 0.0
580 2 69.8529116705 0.112725019311 0.0 0.0 0.0 0.0
581 2 67.8295116705 2.22653701931 0.0 0.0 0.0 0.0
582 2 73.8987116705 0.0450090193105 0.0 0.0 0.0 0.0
583 2 72.6691116705 2.48318701931 0.0 0.0 0.0 0.0
584 2 75.1269116705 2.32537701931 0.0 0.0 0.0 0.0
585 2 76.2001116705 4.61912701931 0.0 0.0 0.0 0.0
586 2 0.968041670482 6.80612701931 0.0 0.0 0.0 0.0
587 2 74.8170116705 7.00010701931 0.0 0.0 0.0 0.0
588 2 4.93956167048 4.71400701931 0.0 0.0 0.0 0.0
589 2 6.10284167048 7.24259701931 0.0 0.0 0.0 0.0
590 2 3.62192167048 6.85799701931 0.0 0.0 0.0 0.0
591 2 10.5582116705 6.96537701931 0.0 0.0 0.0 0.0
592 2 10.4463116705 4.27946701931 0.0 0.0 0.0 0.0
593 2 12.6528116705 5.40754701931 0.0 0.0 0.0 0.0
594 2 14.6491116705 3.69372701931 0.0 0.0 0.0 0.0
595 2 15.3188116705 5.97322701931 0.0 0.0 0.0 0.0
596 2 19.5685116705 3.85427701931 0.0 0.0 0.0 0.0
597 2 20.4601116705 6.05295701931 0.0 0.0 0.0 0.0
598 2 17.8745116705 6.06016701931 0.0 0.0 0.0 0.0