# input file

1350 atoms
2 atom types

0.0 78.1252333429 xlo xhi
0.0 81.3196117696 ylo yhi
-10.0 10.0 zlo zhi
0.0 0.0 0.0 xy xz yz

Masses

1 28.0855 #Si
2 15.9994 #O

Atoms

1 1 2.49813444832 1.22261588478 0.0
2 1 7.73005444832 1.01616588478 0.0
3 1 12.8130544483 1.72834588478 0.0
4 1 17.9461544483 1.77229588478 0.0
5 1 23.3687544483 1.49450588478 0.0
6 1 28.6684544483 1.16276588478 0.0
7 1 33.6698544483 1.48756588478 0.0
8 1 38.8835544483 1.60145588478 0.0
9 1 44.0192544483 1.26509588478 0.0
10 1 49.2704544483 0.977705884781 0.0
11 1 54.3948544483 1.75270588478 0.0
12 1 59.9488544483 1.17842588478 0.0
13 1 64.9299544483 3.31350588478 0.0
14 1 70.3274544483 1.78254588478 0.0
15 1 75.5082544483 1.66686588478 0.0
16 1 0.577434448322 5.97885588478 0.0
17 1 5.75545444832 5.53860588478 0.0
18 1 10.2231544483 8.31619588478 0.0
19 1 15.7622544483 6.36166588478 0.0
20 1 21.0274544483 5.93986588478 0.0
21 1 26.2214544483 5.76418588478 0.0
22 1 31.3275544483 6.05990588478 0.0
23 1 36.6047544483 6.08967588478 0.0
24 1 42.0656544483 5.99139588478 0.0
25 1 47.3077544483 5.53087588478 0.0
26 1 52.3810544483 7.82413588478 0.0
27 1 57.7719544483 5.53297588478 0.0
28 1 63.5404544483 5.96527588478 0.0
29 1 68.4004544483 6.51806588478 0.0
30 1 73.4320544483 6.22625588478 0.0
31 1 3.26698444832 10.3026058848 0.0
32 1 8.62544444832 10.8983058848 0.0
33 1 14.2742544483 10.8411058848 0.0
34 1 19.8186544483 10.3793058848 0.0
35 1 24.4173544483 10.2980058848 0.0
36 1 28.8712544483 12.9328058848 0.0
37 1 34.3052544483 10.5887058848 0.0
38 1 39.7638544483 10.3594058848 0.0
39 1 45.2751544483 10.2621058848 0.0
40 1 50.8731544483 10.4518058848 0.0
41 1 57.6957544483 9.31433588478 0.0
42 1 60.6846544483 9.58810588478 0.0
43 1 65.7751544483 10.9702058848 0.0
44 1 70.7859544483 11.0029058848 0.0
45 1 76.2056544483 10.5645058848 0.0
46 1 0.713194448322 14.9807058848 0.0
47 1 5.63201444832 14.9552058848 0.0
48 1 9.69655444832 13.7173058848 0.0
49 1 17.3019544483 14.6889058848 0.0
50 1 22.4685544483 15.3652058848 0.0
51 1 27.6452544483 15.7252058848 0.0
52 1 32.6324544483 15.2728058848 0.0
53 1 37.6839544483 14.7763058848 0.0
54 1 42.4967544483 14.6240058848 0.0
55 1 48.0024544483 14.5909058848 0.0
56 1 54.5336544483 14.9428058848 0.0
57 1 57.5059544483 14.6465058848 0.0
58 1 62.8905544483 14.6935058848 0.0
59 1 68.2193544483 15.7004058848 0.0
60 1 73.5257544483 15.0697058848 0.0
61 1 3.29151444832 19.7300058848 0.0
62 1 8.83089444832 19.3642058848 0.0
63 1 14.3684544483 18.7132058848 0.0
64 1 18.0036544483 21.4723058848 0.0
65 1 24.9586544483 20.2396058848 0.0
66 1 31.9805544483 19.6700058848 0.0
67 1 34.9952544483 19.6085058848 0.0
68 1 39.8045544483 19.5600058848 0.0
69 1 44.8856544483 18.8292058848 0.0
70 1 49.9919544483 19.7079058848 0.0
71 1 55.0726544483 19.7646058848 0.0
72 1 60.4902544483 18.9872058848 0.0
73 1 64.8383544483 21.6730058848 0.0
74 1 72.8333544483 19.2690058848 0.0
75 1 75.8788544483 19.4300058848 0.0
76 1 0.649404448322 23.8795058848 0.0
77 1 6.16000444832 23.8536058848 0.0
78 1 12.8733544483 23.0789058848 0.0
79 1 15.8517544483 23.5541058848 0.0
80 1 20.3709544483 23.2853058848 0.0
81 1 26.9754544483 24.9078058848 0.0
82 1 31.7392544483 24.9710058848 0.0
83 1 37.0004544483 24.4424058848 0.0
84 1 44.0308544483 23.3922058848 0.0
85 1 47.0282544483 23.7311058848 0.0
86 1 52.5929544483 24.3234058848 0.0
87 1 58.1036544483 23.6676058848 0.0
88 1 63.7204544483 24.4697058848 0.0
89 1 68.2508544483 24.9601058848 0.0
90 1 73.4124544483 26.4089058848 0.0
91 1 3.60941444832 28.1544058848 0.0
92 1 8.47980444832 28.7495058848 0.0
93 1 12.9187544483 28.5018058848 0.0
94 1 18.5167544483 28.3738058848 0.0
95 1 23.6447544483 28.7881058848 0.0
96 1 28.4791544483 29.6505058848 0.0
97 1 33.8146544483 29.1322058848 0.0
98 1 39.6906544483 29.2306058848 0.0
99 1 44.4770544483 28.1260058848 0.0
100 1 50.0330544483 28.1481058848 0.0
101 1 55.4281544483 28.1934058848 0.0
102 1 60.7269544483 28.0817058848 0.0
103 1 65.8261544483 29.6829058848 0.0
104 1 72.1142544483 29.1402058848 0.0
105 1 76.9622544483 28.6256058848 0.0
106 1 0.923714448322 33.1418058848 0.0
107 1 5.76839444832 33.1702058848 0.0
108 1 10.3960544483 33.6534058848 0.0
109 1 17.0649544483 32.2524058848 0.0
110 1 19.9750544483 33.0183058848 0.0
111 1 25.5029544483 33.9954058848 0.0
112 1 31.4409544483 33.7550058848 0.0
113 1 35.4324544483 31.6728058848 0.0
114 1 42.6608544483 33.3327058848 0.0
115 1 47.6154544483 32.2587058848 0.0
116 1 52.7632544483 32.5107058848 0.0
117 1 59.2920544483 32.3006058848 0.0
118 1 62.1855544483 33.0961058848 0.0
119 1 67.3428544483 32.2964058848 0.0
120 1 74.4048544483 33.5764058848 0.0
121 1 3.42752444832 37.9066058848 0.0
122 1 7.00265444832 40.9329058848 0.0
123 1 13.7671544483 38.3073058848 0.0
124 1 16.7018544483 37.7273058848 0.0
125 1 20.6319544483 35.9865058848 0.0
126 1 27.2725544483 36.4226058848 0.0
127 1 34.4555544483 37.4745058848 0.0
128 1 39.6622544483 37.5240058848 0.0
129 1 46.7519544483 37.0439058848 0.0
130 1 49.7383544483 36.8926058848 0.0
131 1 54.4571544483 37.6995058848 0.0
132 1 59.4417544483 37.3489058848 0.0
133 1 63.8234544483 35.6265058848 0.0
134 1 71.2371544483 37.2389058848 0.0
135 1 76.5715544483 38.2048058848 0.0
136 1 0.568824448322 42.7270058848 0.0
137 1 5.46823444832 43.5351058848 0.0
138 1 10.1842544483 44.6551058848 0.0
139 1 14.9618544483 43.2837058848 0.0
140 1 20.2057544483 41.7733058848 0.0
141 1 25.7107544483 41.7867058848 0.0
142 1 30.9871544483 41.9133058848 0.0
143 1 36.3211544483 41.9054058848 0.0
144 1 41.4602544483 42.2582058848 0.0
145 1 46.6163544483 42.0697058848 0.0
146 1 52.1323544483 42.0514058848 0.0
147 1 57.4842544483 42.1277058848 0.0
148 1 62.8724544483 41.1903058848 0.0
149 1 68.0287544483 40.9461058848 0.0
150 1 73.4206544483 42.0225058848 0.0
151 1 2.41975444832 47.8302058848 0.0
152 1 7.54617444832 48.8036058848 0.0
153 1 13.0720544483 48.5715058848 0.0
154 1 17.7578544483 46.8183058848 0.0
155 1 23.0412544483 46.1003058848 0.0
156 1 28.9381544483 46.3592058848 0.0
157 1 34.0437544483 46.2994058848 0.0
158 1 38.8817544483 46.6099058848 0.0
159 1 44.1169544483 46.6720058848 0.0
160 1 49.6628544483 46.2408058848 0.0
161 1 55.1739544483 46.4477058848 0.0
162 1 60.4248544483 45.8997058848 0.0
163 1 65.4997544483 45.6638058848 0.0
164 1 70.4673544483 45.7199058848 0.0
165 1 75.7014544483 46.8023058848 0.0
166 1 76.9092544483 51.9077058848 0.0
167 1 5.02361444832 52.7923058848 0.0
168 1 10.6995544483 52.8731058848 0.0
169 1 16.1084544483 52.2983058848 0.0
170 1 21.1645544483 50.7683058848 0.0
171 1 24.8488544483 48.5195058848 0.0
172 1 31.4209544483 50.9221058848 0.0
173 1 36.3153544483 51.2326058848 0.0
174 1 41.3060544483 51.0909058848 0.0
175 1 46.6693544483 50.5481058848 0.0
176 1 52.1954544483 50.5269058848 0.0
177 1 59.2790544483 50.3131058848 0.0
178 1 62.2965544483 50.3054058848 0.0
179 1 68.9131544483 50.2442058848 0.0
180 1 71.9106544483 50.4753058848 0.0
181 1 0.070335448322 54.6378058848 0.0
182 1 7.29124444832 56.7892058848 0.0
183 1 14.8361544483 56.6145058848 0.0
184 1 18.1244544483 54.5487058848 0.0
185 1 23.9168544483 54.4362058848 0.0
186 1 28.2241544483 55.1163058848 0.0
187 1 33.4150544483 55.8083058848 0.0
188 1 38.8422544483 55.8417058848 0.0
189 1 44.1273544483 55.1108058848 0.0
190 1 49.2916544483 54.6767058848 0.0
191 1 53.0850544483 57.6938058848 0.0
192 1 58.3154544483 55.4308058848 0.0
193 1 63.7637544483 55.4600058848 0.0
194 1 68.5330544483 55.5765058848 0.0
195 1 73.7410544483 55.6526058848 0.0
196 1 76.7867544483 60.0671058848 0.0
197 1 3.91621444832 60.6974058848 0.0
198 1 8.95124444832 61.6151058848 0.0
199 1 14.0191544483 61.2057058848 0.0
200 1 19.5172544483 59.9994058848 0.0
201 1 25.1038544483 59.8753058848 0.0
202 1 30.3430544483 60.0041058848 0.0
203 1 35.9766544483 60.1523058848 0.0
204 1 43.2543544483 59.4087058848 0.0
205 1 46.2582544483 59.3369058848 0.0
206 1 51.4188544483 60.1857058848 0.0
207 1 56.3342544483 60.3836058848 0.0
208 1 61.3386544483 59.6776058848 0.0
209 1 66.3145544483 60.3516058848 0.0
210 1 71.4580544483 60.1296058848 0.0
211 1 1.44836444832 64.8401058848 0.0
212 1 6.55744444832 65.7110058848 0.0
213 1 11.7398544483 65.9929058848 0.0
214 1 16.6677544483 64.6458058848 0.0
215 1 22.1409544483 64.2987058848 0.0
216 1 28.1240544483 64.5514058848 0.0
217 1 33.4897544483 64.1921058848 0.0
218 1 38.3143544483 64.7924058848 0.0
219 1 43.0792544483 64.4213058848 0.0
220 1 48.4709544483 64.2103058848 0.0
221 1 53.9974544483 64.9657058848 0.0
222 1 59.1994544483 64.5923058848 0.0
223 1 63.6423544483 66.8963058848 0.0
224 1 69.0086544483 64.8164058848 0.0
225 1 74.2496544483 64.5396058848 0.0
226 1 76.9013544483 69.1004058848 0.0
227 1 3.99375444832 69.8168058848 0.0
228 1 10.0887544483 70.2270058848 0.0
229 1 15.5249544483 69.7093058848 0.0
230 1 20.1418544483 68.5902058848 0.0
231 1 24.9397544483 69.4309058848 0.0
232 1 31.6829544483 68.6199058848 0.0
233 1 36.2037544483 69.2109058848 0.0
234 1 41.1027544483 69.3977058848 0.0
235 1 45.9265544483 68.6492058848 0.0
236 1 51.1728544483 68.6882058848 0.0
237 1 56.4670544483 69.2784058848 0.0
238 1 61.9654544483 69.3957058848 0.0
239 1 67.0500544483 69.6444058848 0.0
240 1 71.9491544483 69.1652058848 0.0
241 1 1.48022444832 73.8673058848 0.0
242 1 5.68545444832 72.3217058848 0.0
243 1 13.3078544483 74.1949058848 0.0
244 1 18.5830544483 73.9639058848 0.0
245 1 25.4915544483 72.4372058848 0.0
246 1 28.4818544483 72.8594058848 0.0
247 1 33.4179544483 73.8453058848 0.0
248 1 38.6217544483 74.0391058848 0.0
249 1 43.8979544483 73.7542058848 0.0
250 1 49.0186544483 73.0754058848 0.0
251 1 53.5263544483 75.4809058848 0.0
252 1 58.9699544483 73.5712058848 0.0
253 1 64.4973544483 74.0921058848 0.0
254 1 69.6073544483 74.1107058848 0.0
255 1 74.5965544483 73.8359058848 0.0
256 1 0.079487448322 3.00778588478 0.0
257 1 5.17282444832 2.59035588478 0.0
258 1 10.0448544483 2.94168588478 0.0
259 1 15.3703544483 3.35588588478 0.0
260 1 20.7265544483 2.94799588478 0.0
261 1 26.1069544483 2.75487588478 0.0
262 1 31.0712544483 3.02813588478 0.0
263 1 36.2516544483 3.08127588478 0.0
264 1 41.5608544483 3.00953588478 0.0
265 1 46.7246544483 2.57898588478 0.0
266 1 51.5991544483 2.87958588478 0.0
267 1 57.2904544483 2.58356588478 0.0
268 1 62.9521544483 1.07247588478 0.0
269 1 67.9151544483 3.56103588478 0.0
270 1 72.9565544483 3.25242588478 0.0
271 1 3.29715444832 7.28776588478 0.0
272 1 8.76740444832 5.67866588478 0.0
273 1 13.2357544483 8.03033588478 0.0
274 1 18.5383544483 7.62456588478 0.0
275 1 23.6778544483 7.37651588478 0.0
276 1 28.6708544483 7.51855588478 0.0
277 1 33.9638544483 7.57574588478 0.0
278 1 39.3656544483 7.36495588478 0.0
279 1 44.8282544483 7.26625588478 0.0
280 1 50.3315544483 5.61224588478 0.0
281 1 55.3937544483 7.37497588478 0.0
282 1 60.6083544483 6.58924588478 0.0
283 1 65.7769544483 7.96911588478 0.0
284 1 71.0050544483 8.00269588478 0.0
285 1 76.1355544483 7.55453588478 0.0
286 1 0.749714448322 11.9637058848 0.0
287 1 5.79660444832 11.9334058848 0.0
288 1 12.6637544483 13.3684058848 0.0
289 1 17.1405544483 11.7094058848 0.0
290 1 22.1711544483 12.3191058848 0.0
291 1 27.4355544483 10.2812058848 0.0
292 1 31.8547544483 12.3787058848 0.0
293 1 37.0990544483 11.8067058848 0.0
294 1 42.5408544483 11.5979058848 0.0
295 1 48.0376544483 11.5576058848 0.0
296 1 53.3147544483 12.2162058848 0.0
297 1 56.2952544483 11.9195058848 0.0
298 1 62.8556544483 11.6885058848 0.0
299 1 68.2683544483 12.6731058848 0.0
300 1 73.5967544483 12.0707058848 0.0
301 1 3.18254444832 16.7079058848 0.0
302 1 8.28478444832 16.3807058848 0.0
303 1 14.4889544483 15.7330058848 0.0
304 1 19.6615544483 16.5297058848 0.0
305 1 24.9460544483 17.1646058848 0.0
306 1 30.3015544483 17.1662058848 0.0
307 1 35.3149544483 16.6199058848 0.0
308 1 40.1399544483 16.5322058848 0.0
309 1 45.2514544483 15.8432058848 0.0
310 1 50.1644544483 16.7183058848 0.0
311 1 53.0711544483 17.5128058848 0.0
312 1 60.1828544483 16.0048058848 0.0
313 1 65.2886544483 16.5296058848 0.0
314 1 71.0636544483 16.8010058848 0.0
315 1 76.2058544483 16.4407058848 0.0
316 1 0.454624448322 20.8600058848 0.0
317 1 6.14654444832 20.8233058848 0.0
318 1 11.7532544483 20.2671058848 0.0
319 1 17.4066544483 18.5557058848 0.0
320 1 23.3384544483 22.8341058848 0.0
321 1 27.4548544483 21.9409058848 0.0
322 1 30.4498544483 22.2452058848 0.0
323 1 37.4048544483 21.4273058848 0.0
324 1 42.5773544483 20.7474058848 0.0
325 1 47.1966544483 20.7424058848 0.0
326 1 52.5257544483 21.3367058848 0.0
327 1 57.9657544483 20.6537058848 0.0
328 1 63.5128544483 18.9810058848 0.0
329 1 67.8175544483 21.9918058848 0.0
330 1 70.7673544483 21.4523058848 0.0
331 1 3.41379444832 25.1375058848 0.0
332 1 8.53911444832 25.7395058848 0.0
333 1 11.5562544483 25.7882058848 0.0
334 1 18.2323544483 25.3906058848 0.0
335 1 24.1132544483 25.7780058848 0.0
336 1 29.3256544483 26.7646058848 0.0
337 1 34.5031544483 26.1736058848 0.0
338 1 39.4327544483 26.2365058848 0.0
339 1 42.4299544483 25.9163058848 0.0
340 1 49.6961544483 25.1681058848 0.0
341 1 55.4870544483 25.1886058848 0.0
342 1 60.7734544483 25.0795058848 0.0
343 1 65.7937544483 26.6688058848 0.0
344 1 71.1850544483 24.4173058848 0.0
345 1 76.3489544483 25.6940058848 0.0
346 1 1.38790444832 30.1717058848 0.0
347 1 5.84348444832 30.1609058848 0.0
348 1 10.8078544483 30.6535058848 0.0
349 1 15.7532544483 29.5500058848 0.0
350 1 20.9521544483 30.1595058848 0.0
351 1 25.7595544483 30.9651058848 0.0
352 1 31.2657544483 30.7551058848 0.0
353 1 38.4049544483 31.9379058848 0.0
354 1 42.4746544483 30.3424058848 0.0
355 1 47.2544544483 29.2800058848 0.0
356 1 52.7226544483 29.5083058848 0.0
357 1 58.1118544483 29.5434058848 0.0
358 1 62.8803544483 30.1817058848 0.0
359 1 70.2387544483 31.5051058848 0.0
360 1 74.7188544483 30.6050058848 0.0
361 1 3.32822444832 34.9080058848 0.0
362 1 7.87345444832 35.3086058848 0.0
363 1 12.7677544483 35.4910058848 0.0
364 1 15.6986544483 34.9039058848 0.0
365 1 23.6065544483 36.3377058848 0.0
366 1 30.2503544483 36.5039058848 0.0
367 1 34.3411544483 34.4698058848 0.0
368 1 39.9204544483 34.5324058848 0.0
369 1 45.4707544483 34.3432058848 0.0
370 1 50.1185544483 33.9136058848 0.0
371 1 54.7842544483 34.7251058848 0.0
372 1 57.7724544483 34.8577058848 0.0
373 1 66.8104544483 35.2892058848 0.0
374 1 71.4950544483 34.2417058848 0.0
375 1 76.8896544483 35.2225058848 0.0
376 1 1.03252444832 39.7467058848 0.0
377 1 6.43771444832 37.9780058848 0.0
378 1 9.90715444832 41.6802058848 0.0
379 1 12.8526544483 41.1435058848 0.0
380 1 19.5048544483 38.8055058848 0.0
381 1 25.3978544483 38.7645058848 0.0
382 1 31.8732544483 39.0247058848 0.0
383 1 37.0386544483 38.9881058848 0.0
384 1 42.0640544483 39.3261058848 0.0
385 1 45.0624544483 39.5018058848 0.0
386 1 51.8015544483 39.0695058848 0.0
387 1 57.0699544483 39.1683058848 0.0
388 1 62.3167544483 38.2266058848 0.0
389 1 68.3110544483 37.9288058848 0.0
390 1 73.6726544483 39.0253058848 0.0
391 1 2.74102444832 44.8170058848 0.0
392 1 7.42941444832 45.8103058848 0.0
393 1 13.0317544483 45.5790058848 0.0
394 1 17.9277544483 43.7915058848 0.0
395 1 22.9609544483 43.0706058848 0.0
396 1 28.3230544483 43.3693058848 0.0
397 1 33.6599544483 43.3134058848 0.0
398 1 38.7871544483 43.6137058848 0.0
399 1 44.0948544483 43.6866058848 0.0
400 1 49.3825544483 43.2545058848 0.0
401 1 54.7958544483 43.4685058848 0.0
402 1 60.3900544483 42.8995058848 0.0
403 1 65.5219544483 42.6361058848 0.0
404 1 70.4868544483 42.7109058848 0.0
405 1 75.8729544483 43.7903058848 0.0
406 1 77.7646544483 49.0054058848 0.0
407 1 4.70850444832 49.8024058848 0.0
408 1 10.3630544483 49.8878058848 0.0
409 1 15.9920544483 49.2812058848 0.0
410 1 20.5781544483 47.8246058848 0.0
411 1 27.7642544483 49.1541058848 0.0
412 1 31.5143544483 47.9018058848 0.0
413 1 36.3538544483 48.2207058848 0.0
414 1 41.4799544483 48.0998058848 0.0
415 1 46.9718544483 47.5765058848 0.0
416 1 52.3769544483 47.5409058848 0.0
417 1 57.9556544483 47.6112058848 0.0
418 1 63.0314544483 47.3883058848 0.0
419 1 67.9705544483 47.3843058848 0.0
420 1 72.8078544483 47.6082058848 0.0
421 1 3.04366444832 55.0614058848 0.0
422 1 7.84645444832 53.8448058848 0.0
423 1 13.5515544483 53.8811058848 0.0
424 1 20.9954544483 53.7476058848 0.0
425 1 24.0822544483 51.4257058848 0.0
426 1 28.6446544483 52.0766058848 0.0
427 1 33.7563544483 52.8120058848 0.0
428 1 38.8592544483 52.8325058848 0.0
429 1 44.1173544483 52.1206058848 0.0
430 1 49.4285544483 51.6927058848 0.0
431 1 54.3256544483 52.6297058848 0.0
432 1 57.3333544483 52.6003058848 0.0
433 1 64.3472544483 52.5175058848 0.0
434 1 67.3444544483 52.8022058848 0.0
435 1 73.9913544483 52.6511058848 0.0
436 1 76.4036544483 57.0633058848 0.0
437 1 4.43830444832 57.7268058848 0.0
438 1 9.59855444832 58.6930058848 0.0
439 1 12.5889544483 58.5781058848 0.0
440 1 17.7235544483 57.5274058848 0.0
441 1 25.7241544483 56.8641058848 0.0
442 1 30.6195544483 56.9799058848 0.0
443 1 36.1224544483 57.1502058848 0.0
444 1 41.6827544483 56.8500058848 0.0
445 1 46.8362544483 56.3991058848 0.0
446 1 52.2795544483 54.8303058848 0.0
447 1 56.0677544483 57.4159058848 0.0
448 1 61.0365544483 56.6935058848 0.0
449 1 66.1065544483 57.3473058848 0.0
450 1 71.1210544483 57.1278058848 0.0
451 1 1.12757444832 61.8297058848 0.0
452 1 6.16178444832 62.7200058848 0.0
453 1 11.6143544483 63.0019058848 0.0
454 1 16.9911544483 61.6651058848 0.0
455 1 22.3398544483 61.2379058848 0.0
456 1 27.6904544483 61.5202058848 0.0
457 1 33.1393544483 61.2014058848 0.0
458 1 38.5116544483 61.7993058848 0.0
459 1 41.5236544483 61.8472058848 0.0
460 1 48.5989544483 61.2117058848 0.0
461 1 53.8095544483 61.9843058848 0.0
462 1 59.0468544483 61.6047058848 0.0
463 1 63.6018544483 61.6383058848 0.0
464 1 68.9502544483 61.8044058848 0.0
465 1 74.1409544483 61.5230058848 0.0
466 1 76.8359544483 66.0919058848 0.0
467 1 3.75963444832 66.8066058848 0.0
468 1 9.07753444832 67.3871058848 0.0
469 1 14.6211544483 66.8420058848 0.0
470 1 19.4686544483 65.6748058848 0.0
471 1 27.2099544483 67.4519058848 0.0
472 1 30.9117544483 65.7068058848 0.0
473 1 35.6984544483 66.2406058848 0.0
474 1 40.8400544483 66.4101058848 0.0
475 1 45.8263544483 65.6421058848 0.0
476 1 51.0852544483 65.6996058848 0.0
477 1 56.7029544483 66.2817058848 0.0
478 1 62.1858544483 64.2928058848 0.0
479 1 66.6417544483 66.6787058848 0.0
480 1 71.7070544483 66.1609058848 0.0
481 1 1.19325444832 70.8812058848 0.0
482 1 8.64116444832 72.8576058848 0.0
483 1 12.9304544483 71.2162058848 0.0
484 1 18.2710544483 70.9564058848 0.0
485 1 22.8408544483 67.2651058848 0.0
486 1 28.9867544483 69.8866058848 0.0
487 1 33.6983544483 70.8456058848 0.0
488 1 38.5921544483 71.0307058848 0.0
489 1 43.7768544483 70.7473058848 0.0
490 1 48.5385544483 70.1179058848 0.0
491 1 53.6547544483 70.3728058848 0.0
492 1 59.1847544483 70.5703058848 0.0
493 1 64.4308544483 71.1021058848 0.0
494 1 69.6606544483 71.1072058848 0.0
495 1 74.4490544483 70.8287058848 0.0
496 1 77.0981544483 75.4975058848 0.0
497 1 4.26793444832 74.9742058848 0.0
498 1 10.4897544483 75.2421058848 0.0
499 1 16.0006544483 75.5493058848 0.0
500 1 21.1853544483 75.5062058848 0.0
501 1 24.1986544483 75.1811058848 0.0
502 1 30.6325544483 75.0065058848 0.0
503 1 35.9661544483 75.4652058848 0.0
504 1 41.3356544483 75.3484058848 0.0
505 1 46.6605544483 74.9508058848 0.0
506 1 52.0231544483 72.9008058848 0.0
507 1 56.5249544483 75.3321058848 0.0
508 1 61.6309544483 74.9720058848 0.0
509 1 67.0474544483 75.6825058848 0.0
510 1 72.1928544483 75.6327058848 0.0
511 1 4.89647444832 77.9219058848 0.0
512 1 10.3737544483 78.2518058848 0.0
513 1 15.4675544483 78.5221058848 0.0
514 1 20.5902544483 78.4593058848 0.0
515 1 25.5948544483 77.8865058848 0.0
516 1 30.8396544483 78.0325058848 0.0
517 1 36.0334544483 78.4788058848 0.0
518 1 41.2945544483 78.3590058848 0.0
519 1 46.6026544483 77.9588058848 0.0
520 1 52.0585544483 78.1048058848 0.0
521 1 56.7542544483 78.3202058848 0.0
522 1 61.9939544483 77.9401058848 0.0
523 1 67.1866544483 78.6864058848 0.0
524 1 72.4213544483 78.6301058848 0.0
525 1 77.6673544483 78.4445058848 0.0
526 1 2.35023444832 79.5375058848 0.0
527 1 7.56487444832 79.3320058848 0.0
528 1 12.8349544483 80.0144058848 0.0
529 1 18.0439544483 80.0774058848 0.0
530 1 23.2760544483 79.8087058848 0.0
531 1 28.1894544483 79.4783058848 0.0
532 1 33.3162544483 79.7954058848 0.0
533 1 38.6997544483 79.9058058848 0.0
534 1 44.0525544483 79.5729058848 0.0
535 1 49.2978544483 79.2914058848 0.0
536 1 54.3187544483 80.0717058848 0.0
537 1 59.4747544483 79.5485058848 0.0
538 1 64.3782544483 79.7502058848 0.0
539 1 69.8217544483 80.1404058848 0.0
540 1 75.1004544483 80.0082058848 0.0
541 2 1.27967444832 2.10066588478 0.0
542 2 3.83364444832 1.91261588478 0.0
543 2 2.42762444832 81.0420058848 0.0
544 2 7.64179444832 80.8366058848 0.0
545 2 6.42809444832 1.76716588478 0.0
546 2 8.93160444832 1.92078588478 0.0
547 2 12.8262544483 0.210291884781 0.0
548 2 14.0757544483 2.56543588478 0.0
549 2 11.4515544483 2.39437588478 0.0
550 2 17.9828544483 0.262485884781 0.0
551 2 19.3333544483 2.37264588478 0.0
552 2 16.6604544483 2.56152588478 0.0
553 2 23.3399544483 81.3099058848 0.0
554 2 24.7328544483 2.13359588478 0.0
555 2 22.0411544483 2.20778588478 0.0
556 2 28.4306544483 80.9817058848 0.0
557 2 27.3771544483 1.95161588478 0.0
558 2 29.8757544483 2.08740588478 0.0
559 2 33.4770544483 81.3033058848 0.0
560 2 34.9645544483 2.27985588478 0.0
561 2 32.3825544483 2.27464588478 0.0
562 2 38.7973544483 0.0920708847811 0.0
563 2 40.2121544483 2.32420588478 0.0
564 2 37.5691544483 2.33948588478 0.0
565 2 44.0405544483 81.0794058848 0.0
566 2 45.3675544483 1.93544588478 0.0
567 2 42.7816544483 2.11968588478 0.0
568 2 49.2951544483 80.7963058848 0.0
569 2 50.4824544483 1.86655588478 0.0
570 2 47.9705544483 1.73557588478 0.0
571 2 54.3359544483 0.246732884781 0.0
572 2 55.8370544483 2.18907588478 0.0
573 2 53.0331544483 2.40256588478 0.0
574 2 59.6675544483 81.0245058848 0.0
575 2 58.6352544483 1.90435588478 0.0
576 2 61.4571544483 1.25428588478 0.0
577 2 63.9525544483 2.18532588478 0.0
578 2 66.4301544483 3.32261588478 0.0
579 2 64.2061544483 4.62515588478 0.0
580 2 70.0601544483 0.305286884781 0.0
581 2 71.6450544483 2.51060588478 0.0
582 2 69.0893544483 2.63637588478 0.0
583 2 75.3005544483 0.177771884781 0.0
584 2 76.8497544483 2.34876588478 0.0
585 2 74.2334544483 2.45978588478 0.0
586 2 0.334483448322 4.49065588478 0.0
587 2 77.4266544483 6.78317588478 0.0
588 2 1.94151444832 6.61885588478 0.0
589 2 5.40459444832 4.07283588478 0.0
590 2 7.25574444832 5.69532588478 0.0
591 2 4.56544444832 6.46719588478 0.0
592 2 9.48795444832 6.99923588478 0.0
593 2 11.7255544483 8.11758588478 0.0
594 2 9.41771444832 9.60610588478 0.0
595 2 15.5507544483 4.85849588478 0.0
596 2 17.1350544483 7.02729588478 0.0
597 2 14.4549544483 7.13534588478 0.0
598 2 20.8871544483 4.44501588478 0.0
599 2 22.3460544483 6.67408588478 0.0
600 2 19.7492544483 6.72255588478 0.0
601 2 26.1817544483 4.26005588478 0.0
602 2 27.4775544483 6.59025588478 0.0
603 2 24.9292544483 6.53767588478 0.0
604 2 31.1859544483 4.54530588478 0.0
605 2 32.6436544483 6.82079588478 0.0
606 2 30.0273544483 6.84927588478 0.0
607 2 36.4161544483 4.58571588478 0.0
608 2 37.9866544483 6.72454588478 0.0
609 2 35.2902544483 6.84297588478 0.0
610 2 41.8292544483 4.49411588478 0.0
611 2 43.4423544483 6.63720588478 0.0
612 2 40.7163544483 6.67983588478 0.0
613 2 46.9660544483 4.06136588478 0.0
614 2 48.8182544483 5.68719588478 0.0
615 2 46.0971544483 6.43316588478 0.0
616 2 51.3554544483 6.71572588478 0.0
617 2 53.8886544483 7.57244588478 0.0
618 2 51.5993544483 9.12210588478 0.0
619 2 57.5410544483 4.05914588478 0.0
620 2 59.2047544483 6.03412588478 0.0
621 2 56.4873544483 6.31510588478 0.0
622 2 64.5931544483 7.04314588478 0.0
623 2 62.0512544483 6.15237588478 0.0
624 2 68.2191544483 5.03130588478 0.0
625 2 69.7078544483 7.24436588478 0.0
626 2 67.1068544483 7.27505588478 0.0
627 2 73.1756544483 4.74204588478 0.0
628 2 74.7948544483 6.86581588478 0.0
629 2 72.2367544483 7.14203588478 0.0
630 2 2.00139444832 11.1233058848 0.0
631 2 4.54449444832 11.0990058848 0.0
632 2 3.29626444832 8.79597588478 0.0
633 2 9.18224444832 12.3022058848 0.0
634 2 7.15709444832 11.2816058848 0.0
635 2 13.7533544483 9.44606588478 0.0
636 2 15.7375544483 11.1843058848 0.0
637 2 13.4033544483 12.0650058848 0.0
638 2 19.2196544483 8.97997588478 0.0
639 2 20.9877544483 11.3483058848 0.0
640 2 18.4783544483 11.0650058848 0.0
641 2 23.9606544483 8.85460588478 0.0
642 2 25.9253544483 10.3475058848 0.0
643 2 23.3664544483 11.3783058848 0.0
644 2 28.1744544483 14.2881058848 0.0
645 2 28.1260544483 11.6170058848 0.0
646 2 30.3514544483 12.5772058848 0.0
647 2 34.1112544483 9.08498588478 0.0
648 2 35.7040544483 11.1985058848 0.0
649 2 33.0320544483 11.4227058848 0.0
650 2 39.5593544483 8.86313588478 0.0
651 2 41.1602544483 10.9583058848 0.0
652 2 38.4292544483 11.0776058848 0.0
653 2 45.0722544483 8.75877588478 0.0
654 2 46.6682544483 10.8879058848 0.0
655 2 43.9160544483 10.9488058848 0.0
656 2 52.0539544483 11.4124058848 0.0
657 2 49.4345544483 10.9364058848 0.0
658 2 57.0303544483 10.6435058848 0.0
659 2 56.5216544483 8.38321588478 0.0
660 2 59.1768544483 9.52540588478 0.0
661 2 60.7543544483 8.08489588478 0.0
662 2 61.7438544483 10.6618058848 0.0
663 2 65.8037544483 9.46483588478 0.0
664 2 66.9994544483 11.8451058848 0.0
665 2 64.3179544483 11.3375058848 0.0
666 2 70.8751544483 9.49740588478 0.0
667 2 72.1936544483 11.5349058848 0.0
668 2 69.5387544483 11.8486058848 0.0
669 2 74.8954544483 11.3109058848 0.0
670 2 77.5370544483 11.2673058848 0.0
671 2 76.1726544483 9.05953588478 0.0
672 2 0.755634448322 13.4726058848 0.0
673 2 1.93372444832 15.8609058848 0.0
674 2 77.5141544483 15.7001058848 0.0
675 2 5.68802444832 13.4440058848 0.0
676 2 6.91575444832 15.7408058848 0.0
677 2 4.40614444832 15.8272058848 0.0
678 2 11.1901544483 13.5731058848 0.0
679 2 9.08471444832 15.0913058848 0.0
680 2 17.2522544483 13.2004058848 0.0
681 2 18.5502544483 15.5032058848 0.0
682 2 15.9215544483 15.2770058848 0.0
683 2 22.3479544483 13.8357058848 0.0
684 2 23.7055544483 16.2640058848 0.0
685 2 21.0925544483 16.0368058848 0.0
686 2 26.2874544483 16.4192058848 0.0
687 2 28.9176544483 16.5650058848 0.0
688 2 32.3309544483 13.8095058848 0.0
689 2 33.9843544483 15.9187058848 0.0
690 2 31.4391544483 16.1792058848 0.0
691 2 37.3908544483 13.2972058848 0.0
692 2 38.9261544483 15.6291058848 0.0
693 2 36.5007544483 15.7090058848 0.0
694 2 42.4903544483 13.1123058848 0.0
695 2 43.8932544483 15.1970058848 0.0
696 2 41.3466544483 15.6080058848 0.0
697 2 46.6152544483 15.2039058848 0.0
698 2 49.1391544483 15.6063058848 0.0
699 2 48.0512544483 13.0788058848 0.0
700 2 53.8182544483 16.2274058848 0.0
701 2 53.7400544483 13.6660058848 0.0
702 2 56.0364544483 14.9905058848 0.0
703 2 57.0760544483 13.2010058848 0.0
704 2 58.8389544483 15.3221058848 0.0
705 2 62.8218544483 13.1920058848 0.0
706 2 64.1459544483 15.5261058848 0.0
707 2 61.5232544483 15.3299058848 0.0
708 2 68.2509544483 14.1812058848 0.0
709 2 69.6079544483 16.3411058848 0.0
710 2 66.7734544483 16.2007058848 0.0
711 2 73.5741544483 13.5718058848 0.0
712 2 74.8711544483 15.7464058848 0.0
713 2 72.2383544483 15.8421058848 0.0
714 2 3.23952444832 18.2123058848 0.0
715 2 4.71465444832 20.2855058848 0.0
716 2 1.87655444832 20.3028058848 0.0
717 2 8.60109444832 17.8561058848 0.0
718 2 10.2870544483 19.8406058848 0.0
719 2 7.49968444832 20.1129058848 0.0
720 2 14.2661544483 17.2054058848 0.0
721 2 15.8910544483 18.6809058848 0.0
722 2 13.0580544483 19.4729058848 0.0
723 2 17.7957544483 20.0049058848 0.0
724 2 19.2934544483 22.2328058848 0.0
725 2 16.8228544483 22.4026058848 0.0
726 2 24.8989544483 18.7076058848 0.0
727 2 26.2950544483 20.9783058848 0.0
728 2 24.0526544483 21.4871058848 0.0
729 2 31.2496544483 20.9787058848 0.0
730 2 31.0626544483 18.4717058848 0.0
731 2 33.4886544483 19.7192058848 0.0
732 2 35.2530544483 18.1197058848 0.0
733 2 36.1524544483 20.5713058848 0.0
734 2 39.9516544483 18.0417058848 0.0
735 2 41.1665544483 20.2266058848 0.0
736 2 38.6226544483 20.5148058848 0.0
737 2 45.0788544483 17.3445058848 0.0
738 2 46.0644544483 19.7666058848 0.0
739 2 43.6625544483 19.7002058848 0.0
740 2 49.9466544483 18.2137058848 0.0
741 2 51.2592544483 20.5184058848 0.0
742 2 48.6068544483 20.2537058848 0.0
743 2 54.1251544483 18.5846058848 0.0
744 2 56.5351544483 20.1373058848 0.0
745 2 53.8677544483 20.6760058848 0.0
746 2 60.2509544483 17.4997058848 0.0
747 2 62.0017544483 19.0629058848 0.0
748 2 59.2496544483 19.8515058848 0.0
749 2 64.1599544483 20.3397058848 0.0
750 2 66.3473544483 21.6868058848 0.0
751 2 64.2224544483 23.0473058848 0.0
752 2 71.8259544483 20.3991058848 0.0
753 2 71.8987544483 18.0683058848 0.0
754 2 74.3430544483 19.4668058848 0.0
755 2 76.1124544483 17.9383058848 0.0
756 2 77.1993544483 20.1978058848 0.0
757 2 0.513214448322 22.3765058848 0.0
758 2 2.03885444832 24.4975058848 0.0
759 2 77.5127544483 24.7315058848 0.0
760 2 6.19687444832 22.3426058848 0.0
761 2 7.38230444832 24.7641058848 0.0
762 2 4.77441444832 24.4729058848 0.0
763 2 12.2059544483 24.4283058848 0.0
764 2 12.2406544483 21.7095058848 0.0
765 2 14.3702544483 23.3200058848 0.0
766 2 16.9150544483 24.6403058848 0.0
767 2 21.8307544483 22.9888058848 0.0
768 2 19.4332544483 24.4744058848 0.0
769 2 27.1504544483 23.4191058848 0.0
770 2 28.1444544483 25.8370058848 0.0
771 2 25.5830544483 25.4482058848 0.0
772 2 31.1574544483 23.5774058848 0.0
773 2 33.1482544483 25.4970058848 0.0
774 2 30.5990544483 25.9641058848 0.0
775 2 37.2081544483 22.9366058848 0.0
776 2 38.2413544483 25.3183058848 0.0
777 2 35.7413544483 25.2989058848 0.0
778 2 43.1708544483 24.6160058848 0.0
779 2 43.2606544483 22.0942058848 0.0
780 2 45.5128544483 23.6974058848 0.0
781 2 47.1588544483 22.2325058848 0.0
782 2 48.3362544483 24.4953058848 0.0
783 2 52.5469544483 22.8235058848 0.0
784 2 54.0335544483 24.7710058848 0.0
785 2 51.1477544483 24.7470058848 0.0
786 2 58.0571544483 22.1601058848 0.0
787 2 59.4576544483 24.3450058848 0.0