# input file

1350 atoms
2 atom types

0.0 77.8505632158 xlo xhi
0.0 81.5070499976 ylo yhi
-10.0 10.0 zlo zhi
0.0 0.0 0.0 xy xz yz

Masses

1 28.0855 #Si
2 15.9994 #O

Atoms

1 1 3.45726938475 0.716894998812 0.0
2 1 7.74977938475 3.44837499881 0.0
3 1 13.3342193848 1.81803499881 0.0
4 1 18.8198193848 2.25407499881 0.0
5 1 24.3664193848 2.20261499881 0.0
6 1 29.9035193848 2.61481499881 0.0
7 1 34.7424193848 2.10638499881 0.0
8 1 39.4261193848 1.10111499881 0.0
9 1 44.7221193848 0.931984998812 0.0
10 1 49.8057193848 1.38594499881 0.0
11 1 55.1427193848 1.36716499881 0.0
12 1 60.0270193848 1.83783499881 0.0
13 1 65.1137193848 1.31458499881 0.0
14 1 70.4777193848 1.15578499881 0.0
15 1 76.0189193848 1.11481499881 0.0
16 1 0.903489384751 5.43546499881 0.0
17 1 6.09449938475 6.00076499881 0.0
18 1 10.8242193848 6.51854499881 0.0
19 1 16.0313193848 6.39057499881 0.0
20 1 23.1995193848 6.07753499881 0.0
21 1 26.2073193848 6.49655499881 0.0
22 1 33.6412193848 6.98113499881 0.0
23 1 39.0332193848 5.94106499881 0.0
24 1 41.9659193848 5.36717499881 0.0
25 1 46.7449193848 5.66730499881 0.0
26 1 52.0294193848 5.67698499881 0.0
27 1 57.1214193848 6.33931499881 0.0
28 1 62.4275193848 6.17694499881 0.0
29 1 67.7055193848 5.64746499881 0.0
30 1 73.3177193848 5.37588499881 0.0
31 1 2.86811938475 10.2785249988 0.0
32 1 7.65737938475 11.0624249988 0.0
33 1 12.6928193848 10.8998249988 0.0
34 1 17.9199193848 11.1498249988 0.0
35 1 22.8688193848 11.1901249988 0.0
36 1 28.0740193848 11.6361249988 0.0
37 1 32.7736193848 11.6160249988 0.0
38 1 35.9248193848 9.00512499881 0.0
39 1 44.1033193848 10.3001249988 0.0
40 1 49.3355193848 10.0701249988 0.0
41 1 53.5778193848 12.5112249988 0.0
42 1 59.1795193848 10.6590249988 0.0
43 1 65.2653193848 10.3802249988 0.0
44 1 70.5900193848 9.63252499881 0.0
45 1 75.8096193848 9.75562499881 0.0
46 1 77.2685193848 14.6753249988 0.0
47 1 4.39438938475 15.4326249988 0.0
48 1 10.1506193848 15.6516249988 0.0
49 1 15.4348193848 15.4704249988 0.0
50 1 20.5917193848 15.8444249988 0.0
51 1 25.9352193848 15.8585249988 0.0
52 1 31.1291193848 16.4218249988 0.0
53 1 37.9727193848 14.1230249988 0.0
54 1 41.0216193848 14.0312249988 0.0
55 1 46.4780193848 14.6971249988 0.0
56 1 51.8032193848 14.9390249988 0.0
57 1 57.0576193848 15.0796249988 0.0
58 1 60.9102193848 13.1239249988 0.0
59 1 67.7096193848 14.2961249988 0.0
60 1 72.6165193848 14.1414249988 0.0
61 1 1.40193938475 19.6779249988 0.0
62 1 5.62697938475 18.1889249988 0.0
63 1 12.7387193848 19.9543249988 0.0
64 1 17.7847193848 20.1572249988 0.0
65 1 22.9054193848 20.1838249988 0.0
66 1 28.2309193848 20.6403249988 0.0
67 1 33.9897193848 20.6861249988 0.0
68 1 38.7517193848 19.1944249988 0.0
69 1 44.2464193848 18.6720249988 0.0
70 1 49.5071193848 19.2565249988 0.0
71 1 54.7614193848 19.3960249988 0.0
72 1 60.1680193848 18.9591249988 0.0
73 1 65.1186193848 18.8793249988 0.0
74 1 70.0724193848 18.9237249988 0.0
75 1 74.0043193848 21.6886249988 0.0
76 1 77.4451193848 24.6488249988 0.0
77 1 4.58740938475 23.8391249988 0.0
78 1 9.65551938475 23.9594249988 0.0
79 1 14.8618193848 24.6296249988 0.0
80 1 20.1779193848 24.7099249988 0.0
81 1 25.4338193848 24.7365249988 0.0
82 1 29.7031193848 23.2591249988 0.0
83 1 36.9969193848 24.5224249988 0.0
84 1 42.0570193848 23.1240249988 0.0
85 1 47.1491193848 23.4568249988 0.0
86 1 53.8732193848 23.2912249988 0.0
87 1 56.9085193848 23.4031249988 0.0
88 1 62.2012193848 23.6373249988 0.0
89 1 67.3306193848 23.6766249988 0.0
90 1 72.4821193848 24.2912249988 0.0
91 1 2.07030938475 28.8507249988 0.0
92 1 7.15924938475 28.5379249988 0.0
93 1 12.2301193848 28.7459249988 0.0
94 1 17.5941193848 29.0440249988 0.0
95 1 23.1184193848 29.1250249988 0.0
96 1 28.5268193848 28.8423249988 0.0
97 1 33.7466193848 28.8509249988 0.0
98 1 41.1103193848 27.9543249988 0.0
99 1 44.1099193848 27.8741249988 0.0
100 1 48.8002193848 28.6268249988 0.0
101 1 53.7134193848 28.4512249988 0.0
102 1 59.3965193848 28.0175249988 0.0
103 1 64.4678193848 28.2931249988 0.0
104 1 69.4756193848 28.5498249988 0.0
105 1 74.6508193848 29.1462249988 0.0
106 1 77.2069193848 33.4565249988 0.0
107 1 4.66712938475 33.2975249988 0.0
108 1 9.83651938475 33.2575249988 0.0
109 1 14.9197193848 33.2335249988 0.0
110 1 20.4831193848 33.2442249988 0.0
111 1 25.8670193848 33.2870249988 0.0
112 1 30.9348193848 33.3491249988 0.0
113 1 35.7765193848 33.6656249988 0.0
114 1 40.5161193848 32.7785249988 0.0
115 1 46.0593193848 33.0973249988 0.0
116 1 51.5083193848 33.2762249988 0.0
117 1 56.8536193848 32.2351249988 0.0
118 1 61.8201193848 32.8499249988 0.0
119 1 66.7396193848 33.1462249988 0.0
120 1 71.8959193848 33.3796249988 0.0
121 1 2.11759938475 37.8043249988 0.0
122 1 7.48912938475 37.8148249988 0.0
123 1 12.6821193848 37.8503249988 0.0
124 1 17.8802193848 37.3393249988 0.0
125 1 23.2805193848 37.5858249988 0.0
126 1 28.2537193848 37.9366249988 0.0
127 1 33.2594193848 38.2754249988 0.0
128 1 40.0847193848 37.4787249988 0.0
129 1 43.0442193848 37.0430249988 0.0
130 1 47.2767193848 35.8660249988 0.0
131 1 54.7146193848 36.9654249988 0.0
132 1 58.7990193848 39.6773249988 0.0
133 1 64.1481193848 37.7937249988 0.0
134 1 69.3189193848 37.8578249988 0.0
135 1 74.5678193848 37.8727249988 0.0
136 1 77.5084193848 42.1894249988 0.0
137 1 5.01080938475 42.1706249988 0.0
138 1 10.1900193848 42.3642249988 0.0
139 1 17.0535193848 41.5962249988 0.0
140 1 20.0536193848 41.7049249988 0.0
141 1 25.3115193848 42.4182249988 0.0
142 1 30.2572193848 42.7439249988 0.0
143 1 35.2759193848 43.0779249988 0.0
144 1 40.4469193848 42.4892249988 0.0
145 1 45.9399193848 41.4545249988 0.0
146 1 51.5336193848 41.4132249988 0.0
147 1 57.0199193848 42.1225249988 0.0
148 1 61.9551193848 42.7312249988 0.0
149 1 66.8931193848 42.4251249988 0.0
150 1 72.0396193848 42.3852249988 0.0
151 1 2.94516938475 46.5173249988 0.0
152 1 7.46993938475 46.8134249988 0.0
153 1 12.4943193848 47.1653249988 0.0
154 1 17.1663193848 46.7562249988 0.0
155 1 22.3803193848 46.4535249988 0.0
156 1 27.5873193848 47.2985249988 0.0
157 1 32.6628193848 47.5511249988 0.0
158 1 38.0321193848 47.2679249988 0.0
159 1 43.2994193848 46.1438249988 0.0
160 1 48.5837193848 45.6380249988 0.0
161 1 53.8913193848 46.0298249988 0.0
162 1 58.9924193848 47.1155249988 0.0
163 1 64.1412193848 47.2908249988 0.0
164 1 69.0795193848 46.9785249988 0.0
165 1 75.3930193848 46.5021249988 0.0
166 1 0.313189384751 50.7820249988 0.0
167 1 5.09524938475 51.6683249988 0.0
168 1 10.5030193848 51.5250249988 0.0
169 1 15.7073193848 51.7294249988 0.0
170 1 20.4189193848 51.0339249988 0.0
171 1 25.0694193848 53.4873249988 0.0
172 1 30.3665193848 52.0411249988 0.0
173 1 35.5048193848 51.7705249988 0.0
174 1 40.7570193848 51.0444249988 0.0
175 1 45.8971193848 50.3309249988 0.0
176 1 50.8677193848 50.2605249988 0.0
177 1 55.7904193848 51.0672249988 0.0
178 1 61.2074193848 51.7707249988 0.0
179 1 67.3979193848 51.7864249988 0.0
180 1 71.0251193848 49.2615249988 0.0
181 1 2.29761938475 55.9400249988 0.0
182 1 6.18617938475 54.4850249988 0.0
183 1 12.6990193848 58.5663249988 0.0
184 1 17.9729193848 56.2007249988 0.0
185 1 23.5389193848 56.0646249988 0.0
186 1 28.4389193848 56.9238249988 0.0
187 1 33.3931193848 56.4769249988 0.0
188 1 38.4055193848 55.8338249988 0.0
189 1 43.6579193848 55.1904249988 0.0
190 1 48.6070193848 54.9934249988 0.0
191 1 53.1519193848 57.5606249988 0.0
192 1 58.5536193848 55.6725249988 0.0
193 1 63.0664193848 54.1489249988 0.0
194 1 72.1760193848 54.6135249988 0.0
195 1 75.1738193848 54.8356249988 0.0
196 1 0.0445303847509 59.9371249988 0.0
197 1 5.62148938475 60.2380249988 0.0
198 1 11.0113193848 61.0738249988 0.0
199 1 16.0935193848 61.1938249988 0.0
200 1 21.3357193848 60.2240249988 0.0
201 1 25.8201193848 63.3566249988 0.0
202 1 31.2587193848 61.3937249988 0.0
203 1 36.6711193848 60.7526249988 0.0
204 1 41.8686193848 59.8580249988 0.0
205 1 46.4585193848 62.0904249988 0.0
206 1 51.9969193848 60.3391249988 0.0
207 1 57.1240193848 60.3111249988 0.0
208 1 62.2651193848 59.5401249988 0.0
209 1 67.4742193848 59.8435249988 0.0
210 1 72.4860193848 59.8842249988 0.0
211 1 2.77762938475 64.3186249988 0.0
212 1 8.08205938475 65.0677249988 0.0
213 1 13.7988193848 65.7618249988 0.0
214 1 19.2545193848 65.0557249988 0.0
215 1 24.3183193848 65.9716249988 0.0
216 1 29.2015193848 66.1812249988 0.0
217 1 34.4476193848 65.3742249988 0.0
218 1 39.7829193848 64.7874249988 0.0
219 1 45.2029193848 64.8354249988 0.0
220 1 50.0248193848 64.9277249988 0.0
221 1 55.2791193848 64.8009249988 0.0
222 1 60.2307193848 64.3946249988 0.0
223 1 65.3911193848 64.1276249988 0.0
224 1 70.4588193848 64.4897249988 0.0
225 1 75.5042193848 64.2743249988 0.0
226 1 0.312149384751 68.9101249988 0.0
227 1 5.42935938475 69.0797249988 0.0
228 1 9.52731938475 67.7603249988 0.0
229 1 16.8475193848 69.5826249988 0.0
230 1 20.9001193848 72.4004249988 0.0
231 1 26.4722193848 70.8225249988 0.0
232 1 31.8546193848 70.1843249988 0.0
233 1 37.1202193848 69.4702249988 0.0
234 1 42.4955193848 69.1630249988 0.0
235 1 47.9312193848 69.6633249988 0.0
236 1 53.1787193848 69.2455249988 0.0
237 1 58.4063193848 69.2385249988 0.0
238 1 63.2499193848 68.7489249988 0.0
239 1 68.2787193848 68.8806249988 0.0
240 1 73.1269193848 69.0323249988 0.0
241 1 3.14830938475 73.5704249988 0.0
242 1 8.66433938475 73.4498249988 0.0
243 1 13.8377193848 74.0271249988 0.0
244 1 19.1113193848 74.8445249988 0.0
245 1 24.2567193848 75.4259249988 0.0
246 1 29.4475193848 74.8368249988 0.0
247 1 34.4438193848 74.2496249988 0.0
248 1 39.6232193848 73.6763249988 0.0
249 1 45.1268193848 73.6955249988 0.0
250 1 52.4773193848 73.3324249988 0.0
251 1 55.4728193848 73.6886249988 0.0
252 1 62.3844193848 73.4046249988 0.0
253 1 65.3884193848 73.4166249988 0.0
254 1 70.4057193848 73.7431249988 0.0
255 1 75.6243193848 73.6326249988 0.0
256 1 0.924249384751 2.40206499881 0.0
257 1 6.49214938475 0.708494998812 0.0
258 1 10.7848193848 3.50272499881 0.0
259 1 15.9798193848 3.35666499881 0.0
260 1 21.6297193848 3.48415499881 0.0
261 1 27.0471193848 3.60958499881 0.0
262 1 32.5295193848 4.14729499881 0.0
263 1 37.4659193848 3.37130499881 0.0
264 1 42.1216193848 2.38790499881 0.0
265 1 47.1251193848 2.70437499881 0.0
266 1 52.4759193848 2.72365499881 0.0
267 1 57.4192193848 3.33566499881 0.0
268 1 62.7228193848 3.17075499881 0.0
269 1 67.8317193848 2.63080499881 0.0
270 1 73.2577193848 2.36310499881 0.0
271 1 3.32739938475 7.26232499881 0.0
272 1 8.25032938475 8.10034499881 0.0
273 1 13.4520193848 7.97615499881 0.0
274 1 18.4600193848 8.19795499881 0.0
275 1 21.4633193848 8.52025499881 0.0
276 1 28.3593193848 8.63957499881 0.0
277 1 31.3656193848 8.94013499881 0.0
278 1 38.9365193848 8.94408499881 0.0
279 1 44.2435193848 7.30586499881 0.0
280 1 49.3740193848 7.07778499881 0.0
281 1 54.3541193848 7.55879499881 0.0
282 1 59.8113193848 7.70786499881 0.0
283 1 65.2008193848 7.36313499881 0.0
284 1 70.5644193848 6.62846499881 0.0
285 1 76.0202193848 6.74265499881 0.0
286 1 0.218023384751 11.7471249988 0.0
287 1 4.97601938475 12.4504249988 0.0
288 1 10.2187193848 12.6344249988 0.0
289 1 15.2393193848 12.4826249988 0.0
290 1 20.3848193848 12.8601249988 0.0
291 1 25.3580193848 12.8969249988 0.0
292 1 30.4457193848 13.4955249988 0.0
293 1 35.7599193848 12.0214249988 0.0
294 1 41.1706193848 11.0100249988 0.0
295 1 46.7828193848 11.6956249988 0.0
296 1 52.3394193848 9.80632499881 0.0
297 1 56.5601193848 12.1311249988 0.0
298 1 63.8981193848 13.0777249988 0.0
299 1 68.1069193848 11.3204249988 0.0
300 1 73.1590193848 11.1820249988 0.0
301 1 1.65485938475 16.6730249988 0.0
302 1 8.61704938475 18.2450249988 0.0
303 1 12.8432193848 16.9612249988 0.0
304 1 17.9047193848 17.1655249988 0.0
305 1 23.2573193848 17.2121249988 0.0
306 1 28.3803193848 17.6364249988 0.0
307 1 33.8711193848 17.6846249988 0.0
308 1 36.7919193848 16.8968249988 0.0
309 1 43.6107193848 15.6954249988 0.0
310 1 49.0849193848 16.2555249988 0.0
311 1 54.3917193848 16.4419249988 0.0
312 1 59.9122193848 15.9617249988 0.0
313 1 65.1373193848 15.8366249988 0.0
314 1 70.2022193848 15.9255249988 0.0
315 1 74.7097193848 16.2805249988 0.0
316 1 77.0086193848 21.6832249988 0.0
317 1 4.17632938475 20.8389249988 0.0
318 1 9.91991938475 20.9591249988 0.0
319 1 15.1958193848 21.6559249988 0.0
320 1 20.3360193848 21.7195249988 0.0
321 1 25.4520193848 21.7456249988 0.0
322 1 32.6860193848 23.3884249988 0.0
323 1 36.8639193848 21.5254249988 0.0
324 1 41.6160193848 20.1434249988 0.0
325 1 46.7303193848 20.4497249988 0.0
326 1 52.1216193848 20.8211249988 0.0
327 1 57.5653193848 20.4739249988 0.0
328 1 62.6614193848 20.6432249988 0.0
329 1 67.5801193848 20.6460249988 0.0
330 1 73.0846193848 18.8370249988 0.0
331 1 2.34031938475 25.8497249988 0.0
332 1 7.08683938475 25.5192249988 0.0
333 1 12.0777193848 25.7458249988 0.0
334 1 17.4991193848 26.0530249988 0.0
335 1 22.8026193848 26.1519249988 0.0
336 1 28.2073193848 25.8586249988 0.0
337 1 34.3327193848 25.9002249988 0.0
338 1 39.9071193848 25.2133249988 0.0
339 1 44.5034193848 24.8828249988 0.0
340 1 49.2458193848 25.6457249988 0.0
341 1 52.2560193848 25.8146249988 0.0
342 1 59.4864193848 24.9944249988 0.0
343 1 64.7492193848 25.2698249988 0.0
344 1 69.7243193848 25.5262249988 0.0
345 1 74.8420193848 26.1502249988 0.0
346 1 77.3626193848 30.4498249988 0.0
347 1 4.70956938475 30.2868249988 0.0
348 1 9.63481938475 30.2533249988 0.0
349 1 14.8395193848 30.2371249988 0.0
350 1 20.3413193848 30.2573249988 0.0
351 1 25.8900193848 30.2878249988 0.0
352 1 31.1324193848 30.3419249988 0.0
353 1 36.1282193848 30.6810249988 0.0
354 1 39.0830193848 30.1549249988 0.0
355 1 46.1697193848 30.0787249988 0.0
356 1 51.3181193848 30.2763249988 0.0
357 1 56.6324193848 29.2354249988 0.0
358 1 61.8441193848 29.8093249988 0.0
359 1 66.8839193848 30.1128249988 0.0
360 1 71.8948193848 30.3615249988 0.0
361 1 2.05377938475 34.7963249988 0.0
362 1 7.26725938475 34.8149249988 0.0
363 1 12.3910193848 34.8539249988 0.0
364 1 17.7011193848 34.3575249988 0.0
365 1 23.1667193848 34.5912249988 0.0
366 1 28.3791193848 34.9301249988 0.0
367 1 33.2454193848 35.2677249988 0.0
368 1 38.4720193848 34.9616249988 0.0
369 1 43.2238193848 34.0477249988 0.0
370 1 50.2724193848 36.0210249988 0.0
371 1 54.4138193848 33.9808249988 0.0
372 1 59.1228193848 34.2046249988 0.0
373 1 64.1740193848 34.7534249988 0.0
374 1 69.2504193848 34.8335249988 0.0
375 1 74.5317193848 34.8558249988 0.0
376 1 77.2883193848 39.1857249988 0.0
377 1 4.80454938475 39.1729249988 0.0
378 1 10.0797193848 39.3564249988 0.0
379 1 15.4355193848 39.0675249988 0.0
380 1 20.5247193848 38.7506249988 0.0
381 1 25.6484193848 39.4292249988 0.0
382 1 30.6427193848 39.7570249988 0.0
383 1 35.6423193848 40.1052249988 0.0
384 1 38.6451193848 40.0886249988 0.0
385 1 45.6965193848 38.4409249988 0.0
386 1 52.0822193848 38.4359249988 0.0
387 1 57.7202193848 36.8803249988 0.0
388 1 61.8143193848 39.7259249988 0.0
389 1 66.7177193848 39.3995249988 0.0
390 1 71.9406193848 39.3667249988 0.0
391 1 2.34966938475 43.5654249988 0.0
392 1 7.54441938475 43.8012249988 0.0
393 1 12.6002193848 44.1684249988 0.0
394 1 15.5991193848 44.1981249988 0.0
395 1 22.4920193848 43.4583249988 0.0
396 1 27.6735193848 44.2840249988 0.0
397 1 32.6595193848 44.5462249988 0.0
398 1 38.0308193848 44.2752249988 0.0
399 1 43.3998193848 43.1242249988 0.0
400 1 48.7406193848 42.6180249988 0.0
401 1 54.1179193848 43.0101249988 0.0
402 1 59.2780193848 44.1167249988 0.0
403 1 64.5211193848 44.2944249988 0.0
404 1 69.4771193848 43.9834249988 0.0
405 1 74.8203193848 43.5537249988 0.0
406 1 0.244717384751 47.7881249988 0.0
407 1 5.08731938475 48.6390249988 0.0
408 1 9.87401938475 48.5983249988 0.0
409 1 15.0000193848 48.8159249988 0.0
410 1 19.8578193848 48.0775249988 0.0
411 1 24.7493193848 48.2928249988 0.0
412 1 30.0470193848 49.0435249988 0.0
413 1 35.4178193848 48.7665249988 0.0
414 1 40.9381193848 48.0393249988 0.0
415 1 46.0717193848 47.3212249988 0.0
416 1 51.1313193848 47.2547249988 0.0
417 1 56.1287193848 48.0665249988 0.0
418 1 61.5143193848 48.7714249988 0.0
419 1 66.7151193848 48.8433249988 0.0
420 1 74.0022193848 49.1581249988 0.0
421 1 2.38647938475 52.9342249988 0.0
422 1 9.14874938475 54.1862249988 0.0
423 1 13.0513193848 53.0966249988 0.0
424 1 18.3205193848 53.2002249988 0.0
425 1 23.4250193848 50.9865249988 0.0
426 1 28.0383193848 53.9436249988 0.0
427 1 33.0209193848 53.4781249988 0.0
428 1 38.3213193848 52.8249249988 0.0
429 1 43.5308193848 52.1880249988 0.0
430 1 48.4005193848 51.9856249988 0.0
431 1 53.0515193848 52.3242249988 0.0
432 1 58.3363193848 52.6779249988 0.0
433 1 66.0609193848 54.4785249988 0.0
434 1 70.3732193848 52.1918249988 0.0
435 1 75.3735193848 51.8334249988 0.0
436 1 77.3279193848 56.9695249988 0.0
437 1 5.00199938475 57.2640249988 0.0
438 1 11.6840193848 55.7552249988 0.0
439 1 15.7007193848 58.2128249988 0.0
440 1 20.7875193848 57.2712249988 0.0
441 1 25.6991193848 58.1471249988 0.0
442 1 31.0636193848 58.3857249988 0.0
443 1 36.1112193848 57.7843249988 0.0
444 1 41.2015193848 56.9284249988 0.0
445 1 46.1872193848 56.8131249988 0.0
446 1 51.6206193848 54.9810249988 0.0
447 1 56.1581193848 57.4778249988 0.0
448 1 61.4009193848 56.6524249988 0.0
449 1 67.9086193848 56.8761249988 0.0
450 1 70.8944193848 57.3166249988 0.0
451 1 2.77188938475 61.2950249988 0.0
452 1 8.11999938475 62.0148249988 0.0
453 1 13.5072193848 62.7654249988 0.0
454 1 18.9700193848 62.0740249988 0.0
455 1 24.2846193848 60.7866249988 0.0
456 1 28.8313193848 63.2005249988 0.0
457 1 34.1181193848 62.3798249988 0.0
458 1 39.5244193848 61.7765249988 0.0
459 1 44.8747193848 59.5387249988 0.0
460 1 49.4681193848 61.9776249988 0.0
461 1 54.5755193848 61.8880249988 0.0
462 1 59.9158193848 61.4095249988 0.0
463 1 64.7935193848 61.1764249988 0.0
464 1 69.9732193848 61.5268249988 0.0
465 1 75.1837193848 61.2699249988 0.0
466 1 0.204439384751 65.8888249988 0.0
467 1 5.24124938475 66.0664249988 0.0
468 1 12.4629193848 68.4677249988 0.0
469 1 16.6744193848 66.5863249988 0.0
470 1 21.4966193848 67.0453249988 0.0
471 1 26.6775193848 67.8244249988 0.0
472 1 32.0321193848 67.1830249988 0.0
473 1 37.2600193848 66.4575249988 0.0
474 1 42.4819193848 66.1426249988 0.0
475 1 47.5839193848 66.6740249988 0.0
476 1 52.6912193848 66.2958249988 0.0
477 1 57.8964193848 66.2753249988 0.0
478 1 62.8908193848 65.7739249988 0.0
479 1 67.8203193848 65.9084249988 0.0
480 1 73.0502193848 66.0176249988 0.0
481 1 2.82472938475 70.5747249988 0.0
482 1 8.11993938475 70.4454249988 0.0
483 1 14.1702193848 70.9899249988 0.0
484 1 19.8612193848 69.5875249988 0.0
485 1 23.9208193848 72.4450249988 0.0
486 1 29.3175193848 71.8288249988 0.0
487 1 34.6696193848 71.2457249988 0.0
488 1 39.8782193848 70.6768249988 0.0
489 1 45.1007193848 70.6925249988 0.0
490 1 50.6878193848 70.9073249988 0.0
491 1 55.8025193848 70.7124249988 0.0
492 1 61.0098193848 70.7326249988 0.0
493 1 65.7259193848 70.4363249988 0.0
494 1 70.6452193848 70.7330249988 0.0
495 1 75.6813193848 70.6171249988 0.0
496 1 0.474599384751 74.9782249988 0.0
497 1 5.93049938475 74.7644249988 0.0
498 1 11.0799193848 75.3328249988 0.0
499 1 16.2537193848 75.8959249988 0.0
500 1 21.5112193848 76.6647249988 0.0
501 1 27.0185193848 76.6146249988 0.0
502 1 32.1315193848 76.1909249988 0.0
503 1 37.1873193848 75.4613249988 0.0
504 1 42.3674193848 74.8996249988 0.0
505 1 47.6801193848 75.2933249988 0.0
506 1 50.6613193848 75.6952249988 0.0
507 1 57.7735193848 75.6486249988 0.0
508 1 60.7745193848 75.9248249988 0.0
509 1 67.7836193848 75.2434249988 0.0
510 1 73.0447193848 75.2067249988 0.0
511 1 5.74576938475 77.7748249988 0.0
512 1 10.9010193848 78.3967249988 0.0
513 1 16.0678193848 78.9454249988 0.0
514 1 21.3701193848 79.6627249988 0.0
515 1 27.0149193848 79.6221249988 0.0
516 1 31.9940193848 79.2075249988 0.0
517 1 36.7704193848 78.4430249988 0.0
518 1 41.9541193848 77.8683249988 0.0
519 1 47.2003193848 78.2430249988 0.0
520 1 52.1853193848 78.2839249988 0.0
521 1 57.4279193848 78.6249249988 0.0
522 1 62.2907193848 78.5318249988 0.0
523 1 67.6402193848 78.2592249988 0.0
524 1 72.9947193848 78.2255249988 0.0
525 1 0.363019384751 77.9865249988 0.0
526 1 3.10353938475 79.2348249988 0.0
527 1 8.11428938475 79.6423249988 0.0
528 1 13.3217193848 80.2672249988 0.0
529 1 18.5413193848 80.7386249988 0.0
530 1 24.2036193848 80.7157249988 0.0
531 1 29.6474193848 81.1048249988 0.0
532 1 34.6594193848 80.5944249988 0.0
533 1 39.5190193848 79.6149249988 0.0
534 1 44.4802193848 79.4651249988 0.0
535 1 49.6822193848 79.9127249988 0.0
536 1 54.7219193848 79.8969249988 0.0
537 1 59.8955193848 80.3420249988 0.0
538 1 65.0348193848 79.7959249988 0.0
539 1 70.3263193848 79.6469249988 0.0
540 1 75.6773193848 79.6205249988 0.0
541 2 3.21029938475 80.7338249988 0.0
542 2 4.97385938475 0.789874998812 0.0
543 2 2.22372938475 1.60733499881 0.0
544 2 7.11942938475 2.07947499881 0.0
545 2 9.26628938475 3.38276499881 0.0
546 2 6.85352938475 4.68045499881 0.0
547 2 13.3020193848 0.291017998812 0.0
548 2 14.6671193848 2.57514499881 0.0
549 2 12.0274193848 2.62139499881 0.0
550 2 18.6645193848 0.744024998812 0.0
551 2 20.2092193848 2.91758499881 0.0
552 2 17.4096193848 2.82943499881 0.0
553 2 24.3054193848 0.705774998812 0.0
554 2 25.7248193848 2.86767499881 0.0
555 2 22.9691193848 2.76753499881 0.0
556 2 29.8184193848 1.09799499881 0.0
557 2 31.1747193848 3.44502499881 0.0
558 2 28.4824193848 3.14449499881 0.0
559 2 34.7105193848 0.595954998812 0.0
560 2 36.0791193848 2.80336499881 0.0
561 2 33.6151193848 3.09627499881 0.0
562 2 39.4611193848 81.1128249988 0.0
563 2 40.7974193848 1.70563499881 0.0
564 2 38.4055193848 2.19291499881 0.0
565 2 44.5987193848 80.9547249988 0.0
566 2 45.9443193848 1.78725499881 0.0
567 2 43.4176193848 1.65668499881 0.0
568 2 49.7304193848 81.4018249988 0.0
569 2 51.1496193848 2.02925499881 0.0
570 2 48.4860193848 2.08702499881 0.0
571 2 54.9362193848 81.3858249988 0.0
572 2 56.2909193848 2.33376499881 0.0
573 2 53.8051193848 2.05512499881 0.0
574 2 61.3738193848 2.49661499881 0.0
575 2 59.9482193848 0.333822998812 0.0
576 2 58.7471193848 2.62481499881 0.0
577 2 65.0573193848 81.3093249988 0.0
578 2 66.4848193848 1.94865499881 0.0
579 2 63.9252193848 2.25455499881 0.0
580 2 70.3898193848 81.1541249988 0.0
581 2 71.8715193848 1.74917499881 0.0
582 2 69.1625193848 1.90852499881 0.0
583 2 75.8610193848 81.1163249988 0.0
584 2 77.3931193848 1.75920499881 0.0
585 2 74.6395193848 1.74700499881 0.0
586 2 0.948159384751 3.91957499881 0.0
587 2 2.12043938475 6.33912499881 0.0
588 2 77.3791193848 6.07975499881 0.0
589 2 7.12865938475 7.09950499881 0.0
590 2 4.68724938475 6.57749499881 0.0
591 2 10.8725193848 5.01564499881 0.0
592 2 12.1498193848 7.22147499881 0.0
593 2 9.56621938475 7.35632499881 0.0
594 2 15.9935193848 4.88006499881 0.0
595 2 17.3020193848 7.22805499881 0.0
596 2 14.7491193848 7.20265499881 0.0
597 2 22.3409193848 7.30790499881 0.0
598 2 22.3283193848 4.84055499881 0.0
599 2 24.6955193848 6.34499499881 0.0
600 2 26.7229193848 5.08039499881 0.0
601 2 27.2657193848 7.59087499881 0.0
602 2 32.4454193848 7.89698499881 0.0
603 2 33.1142193848 5.55202499881 0.0
604 2 34.8643193848 7.90696499881 0.0
605 2 40.5052193848 5.65872499881 0.0
606 2 39.0048193848 7.43623499881 0.0
607 2 38.1327193848 4.72610499881 0.0
608 2 43.0696193848 6.37183499881 0.0
609 2 42.1275193848 3.88011499881 0.0
610 2 46.8976193848 4.17979499881 0.0
611 2 48.0679193848 6.35896499881 0.0
612 2 45.5054193848 6.49550499881 0.0
613 2 52.2632193848 4.20355499881 0.0
614 2 53.2457193848 6.53952499881 0.0
615 2 50.6914193848 6.35898499881 0.0
616 2 57.2454193848 4.83087499881 0.0
617 2 58.4650193848 7.02135499881 0.0
618 2 55.7687193848 7.02687499881 0.0
619 2 62.5768193848 4.67330499881 0.0
620 2 63.8056193848 6.78965499881 0.0
621 2 61.1255193848 6.95765499881 0.0
622 2 67.7402193848 4.13725499881 0.0
623 2 69.1399193848 6.13226499881 0.0
624 2 66.4551193848 6.50705499881 0.0
625 2 73.2909193848 3.87070499881 0.0
626 2 74.6696193848 6.05584499881 0.0
627 2 71.9353193848 5.99466499881 0.0
628 2 3.10735938475 8.77391499881 0.0
629 2 3.92852938475 11.3616249988 0.0
630 2 1.54034938475 11.0143249988 0.0
631 2 7.94135938475 9.57748499881 0.0
632 2 8.92143938475 11.8777249988 0.0
633 2 6.33578938475 11.7849249988 0.0
634 2 13.0757193848 9.44142499881 0.0
635 2 13.9586193848 11.7172249988 0.0
636 2 11.4449193848 11.7501249988 0.0
637 2 18.1143193848 9.66762499881 0.0
638 2 19.1303193848 12.0408249988 0.0
639 2 16.5688193848 11.7915249988 0.0
640 2 22.2454193848 9.81512499881 0.0
641 2 24.1414193848 12.0028249988 0.0
642 2 21.6577193848 12.0796249988 0.0
643 2 28.1412193848 10.1354249988 0.0
644 2 29.2216193848 12.6157249988 0.0
645 2 26.7011193848 12.2311249988 0.0
646 2 31.6649193848 12.6240249988 0.0
647 2 34.2348193848 11.9796249988 0.0
648 2 32.0782193848 10.2723249988 0.0
649 2 37.4316193848 8.97018499881 0.0
650 2 35.8463193848 10.5147249988 0.0
651 2 44.1914193848 8.79442499881 0.0
652 2 45.4317193848 11.0115249988 0.0
653 2 42.6435193848 10.6668249988 0.0
654 2 49.2519193848 8.56489499881 0.0
655 2 50.8465193848 10.0224249988 0.0
656 2 48.0962193848 10.9341249988 0.0
657 2 52.9473193848 11.1649249988 0.0
658 2 55.0625193848 12.2570249988 0.0
659 2 52.6035193848 13.6561249988 0.0
660 2 59.5594193848 9.20302499881 0.0
661 2 60.0963193848 11.8593249988 0.0
662 2 57.7817193848 11.2508249988 0.0
663 2 65.1704193848 8.87529499881 0.0
664 2 66.7172193848 10.7683249988 0.0
665 2 64.5221193848 11.6978249988 0.0
666 2 70.5802193848 8.13677499881 0.0
667 2 71.8864193848 10.3852249988 0.0
668 2 69.3450193848 10.4774249988 0.0
669 2 75.9344193848 8.25468499881 0.0
670 2 76.9445193848 10.7405249988 0.0
671 2 74.4758193848 10.4642249988 0.0
672 2 77.6635193848 13.2113249988 0.0
673 2 0.536309384751 15.6805249988 0.0
674 2 76.0117193848 15.5164249988 0.0
675 2 4.72566938475 13.9523249988 0.0
676 2 5.09908938475 16.7750249988 0.0
677 2 2.99259938475 15.9925249988 0.0
678 2 10.1343193848 14.1449249988 0.0
679 2 11.5327193848 16.2468249988 0.0
680 2 9.29968938475 16.8992249988 0.0
681 2 15.3364193848 13.9786249988 0.0
682 2 16.6816193848 16.3004249988 0.0
683 2 14.1394193848 16.2196249988 0.0
684 2 20.4825193848 14.3516249988 0.0
685 2 21.9325193848 16.5056249988 0.0
686 2 19.2619193848 16.5337249988 0.0
687 2 25.6397193848 14.3801249988 0.0
688 2 27.1750193848 16.7220249988 0.0
689 2 24.6018193848 16.5624249988 0.0
690 2 30.7875193848 14.9552249988 0.0
691 2 32.5143193848 17.0174249988 0.0
692 2 29.7785193848 17.0884249988 0.0
693 2 37.3562193848 15.5033249988 0.0
694 2 36.8835193848 13.0453249988 0.0
695 2 39.4930193848 14.1490249988 0.0
696 2 41.1064193848 12.5169249988 0.0
697 2 42.2891193848 14.9068249988 0.0
698 2 46.6707193848 13.1967249988 0.0
699 2 47.7633193848 15.5127249988 0.0
700 2 45.0351193848 15.1493249988 0.0
701 2 53.0522193848 15.7889249988 0.0
702 2 50.4159193848 15.5154249988 0.0
703 2 56.8961193848 13.5950249988 0.0
704 2 58.4468193848 15.6166249988 0.0
705 2 55.7274193848 15.7633249988 0.0
706 2 62.4021193848 13.0450249988 0.0
707 2 60.4966193848 14.5758249988 0.0
708 2 67.9401193848 12.8149249988 0.0
709 2 68.9494193848 15.1194249988 0.0
710 2 66.4675193848 15.1242249988 0.0
711 2 72.8992193848 12.6670249988 0.0
712 2 73.7010193848 15.1702249988 0.0
713 2 71.3853193848 15.0026249988 0.0
714 2 1.46620938475 18.1711249988 0.0
715 2 2.75675938475 20.3304249988 0.0
716 2 0.225580384751 20.6219249988 0.0
717 2 7.12326938475 18.2232249988 0.0
718 2 4.96842938475 19.5492249988 0.0
719 2 12.8255193848 18.4588249988 0.0
720 2 13.9630193848 20.8086249988 0.0
721 2 11.3607193848 20.5281249988 0.0
722 2 17.8269193848 18.6610249988 0.0
723 2 19.0608193848 20.9371249988 0.0
724 2 16.4975193848 20.9188249988 0.0
725 2 23.0796193848 18.7001249988 0.0
726 2 24.1790193848 20.9673249988 0.0
727 2 21.6174193848 20.9452249988 0.0
728 2 28.3461193848 19.1446249988 0.0
729 2 29.0524193848 21.9028249988 0.0
730 2 26.8110193848 21.1308249988 0.0
731 2 35.4385193848 21.0713249988 0.0
732 2 33.8128193848 19.1958249988 0.0
733 2 33.2605193848 21.9991249988 0.0
734 2 37.8404193848 17.9921249988 0.0
735 2 40.2142193848 19.5741249988 0.0
736 2 37.8671193848 20.4157249988 0.0
737 2 43.9149193848 17.1902249988 0.0
738 2 45.4993193848 19.5476249988 0.0
739 2 42.9209193848 19.4016249988 0.0
740 2 49.3159193848 17.7506249988 0.0
741 2 48.1229193848 19.8602249988 0.0
742 2 50.7883193848 20.0879249988 0.0
743 2 54.5742193848 17.9170249988 0.0
744 2 56.1712193848 19.9007249988 0.0
745 2 53.4182193848 20.0496249988 0.0
746 2 60.1430193848 17.4488249988 0.0
747 2 61.4155193848 19.7893249988 0.0
748 2 58.8599193848 19.7137249988 0.0
749 2 65.0661193848 17.3535249988 0.0
750 2 66.3617193848 19.7458249988 0.0
751 2 63.8938193848 19.7698249988 0.0
752 2 70.0472193848 17.4119249988 0.0
753 2 71.5817193848 18.9650249988 0.0
754 2 68.8757193848 19.8454249988 0.0
755 2 73.5537193848 20.2609249988 0.0
756 2 75.5087193848 21.6428249988 0.0
757 2 73.1480193848 22.9306249988 0.0
758 2 77.3136193848 23.1556249988 0.0
759 2 0.962499384751 25.2496249988 0.0
760 2 76.1677193848 25.4399249988 0.0
761 2 4.44179938475 22.3314249988 0.0
762 2 5.85724938475 24.6527249988 0.0
763 2 3.45801938475 24.8437249988 0.0
764 2 9.71671938475 22.4519249988 0.0
765 2 10.8758193848 24.8460249988 0.0
766 2 8.36808938475 24.7312249988 0.0
767 2 15.0349193848 23.1397249988 0.0
768 2 16.1698193848 25.3635249988 0.0
769 2 13.4729193848 25.1827249988 0.0
770 2 20.2617193848 23.2135249988 0.0
771 2 21.4812193848 25.4505249988 0.0
772 2 18.8339193848 25.3684249988 0.0
773 2 25.4140193848 23.2401249988 0.0
774 2 26.7837193848 25.3752249988 0.0
775 2 24.1153193848 25.4354249988 0.0
776 2 31.1935193848 23.3462249988 0.0
777 2 29.0222193848 24.5984249988 0.0
778 2 36.9593193848 23.0202249988 0.0
779 2 38.4334193848 24.9487249988 0.0
780 2 35.7227193848 25.3111249988 0.0
781 2 41.8305193848 21.6403249988 0.0
782 2 43.3152193848 23.9545249988 0.0
783 2 40.9198193848 24.1095249988 0.0
784 2 46.9407193848 21.9585249988 0.0
785 2 48.2665193848 24.4931249988 0.0
786 2 45.8319193848 24.1876249988 0.0
787 2 53.0881193848 24.5703249988 0.0