# input file

1350 atoms
2 atom types

0.0 78.0834773466 xlo xhi
0.0 81.3612296706 ylo yhi
-10.0 10.0 zlo zhi
0.0 0.0 0.0 xy xz yz

Masses

1 28.0855 #Si
2 15.9994 #O

Atoms

1 1 3.59547645017 1.54199483529 0.0
2 1 8.60286645017 1.45806483529 0.0
3 1 13.8721764502 1.40194483529 0.0
4 1 19.0370764502 0.892614835294 0.0
5 1 24.2028764502 1.43761483529 0.0
6 1 28.8170764502 1.68236483529 0.0
7 1 33.9809764502 1.51254483529 0.0
8 1 38.7469764502 1.08897483529 0.0
9 1 43.6474764502 0.744084835294 0.0
10 1 48.7772764502 0.945564835294 0.0
11 1 53.8038764502 1.57742483529 0.0
12 1 59.0324764502 1.98989483529 0.0
13 1 65.1293764502 2.14947483529 0.0
14 1 70.7599764502 2.26257483529 0.0
15 1 76.5346764502 2.25407483529 0.0
16 1 1.16443645017 6.38778483529 0.0
17 1 5.96464645017 6.15233483529 0.0
18 1 11.2460764502 5.86928483529 0.0
19 1 16.3843764502 5.66570483529 0.0
20 1 21.3861764502 5.72043483529 0.0
21 1 26.4771764502 6.47031483529 0.0
22 1 31.6134764502 6.05938483529 0.0
23 1 36.9616764502 6.05119483529 0.0
24 1 41.9182764502 5.63532483529 0.0
25 1 46.7018764502 5.35630483529 0.0
26 1 51.0899764502 8.21569483529 0.0
27 1 56.3389764502 6.26968483529 0.0
28 1 60.5647764502 4.58981483529 0.0
29 1 67.9880764502 6.21278483529 0.0
30 1 72.2003764502 4.90032483529 0.0
31 1 3.29951645017 11.0597148353 0.0
32 1 8.45491645017 10.4050148353 0.0
33 1 13.6068764502 10.3133148353 0.0
34 1 18.4361764502 10.3502148353 0.0
35 1 23.6030764502 10.6461148353 0.0
36 1 30.8198764502 10.3050148353 0.0
37 1 33.8289764502 10.3499148353 0.0
38 1 39.2560764502 10.5212148353 0.0
39 1 44.6416764502 10.3567148353 0.0
40 1 49.8716764502 10.9697148353 0.0
41 1 54.9182764502 11.1675148353 0.0
42 1 59.9110764502 10.2071148353 0.0
43 1 65.4025764502 10.2565148353 0.0
44 1 70.8591764502 10.5029148353 0.0
45 1 76.1990764502 10.6642148353 0.0
46 1 0.417963450173 15.4267148353 0.0
47 1 7.42525645017 14.9087148353 0.0
48 1 10.4287764502 14.8277148353 0.0
49 1 15.2664764502 15.0490148353 0.0
50 1 20.2537764502 14.9537148353 0.0
51 1 25.4385764502 15.4355148353 0.0
52 1 30.4654764502 15.2581148353 0.0
53 1 36.0782764502 14.7342148353 0.0
54 1 41.7363764502 14.8152148353 0.0
55 1 47.1392764502 15.1803148353 0.0
56 1 52.4747764502 15.7094148353 0.0
57 1 57.9193764502 15.2996148353 0.0
58 1 62.9886764502 14.4743148353 0.0
59 1 68.2227764502 14.7016148353 0.0
60 1 73.2403764502 15.0194148353 0.0
61 1 2.31455645017 20.2533148353 0.0
62 1 7.32045645017 20.0473148353 0.0
63 1 12.5873764502 19.7449148353 0.0
64 1 17.5180764502 19.6738148353 0.0
65 1 22.6781764502 19.6629148353 0.0
66 1 27.6877764502 19.9673148353 0.0
67 1 33.1037764502 19.0741148353 0.0
68 1 38.5654764502 18.8255148353 0.0
69 1 44.0088764502 19.3466148353 0.0
70 1 50.0425764502 19.8558148353 0.0
71 1 55.5047764502 19.8103148353 0.0
72 1 62.2122764502 19.0663148353 0.0
73 1 65.2251764502 19.0624148353 0.0
74 1 70.1373764502 19.5299148353 0.0
75 1 75.2767764502 19.6851148353 0.0
76 1 77.7831764502 24.5201148353 0.0
77 1 5.07669645017 24.8014148353 0.0
78 1 10.3581764502 24.3720148353 0.0
79 1 15.5811764502 24.4305148353 0.0
80 1 20.6494764502 24.1490148353 0.0
81 1 25.3524764502 26.6264148353 0.0
82 1 30.4433764502 23.7348148353 0.0
83 1 35.9942764502 23.1889148353 0.0
84 1 41.2692764502 23.3129148353 0.0
85 1 45.4434764502 21.9972148353 0.0
86 1 52.3900764502 24.0765148353 0.0
87 1 57.3078764502 24.6282148353 0.0
88 1 62.2031764502 24.4653148353 0.0
89 1 67.2969764502 24.0754148353 0.0
90 1 72.4607764502 24.2112148353 0.0
91 1 2.51363645017 29.0167148353 0.0
92 1 7.89598645017 29.0395148353 0.0
93 1 13.1723764502 28.9427148353 0.0
94 1 18.5258764502 28.9533148353 0.0
95 1 23.9349764502 29.3053148353 0.0
96 1 30.4469764502 27.8942148353 0.0
97 1 33.4246764502 27.5534148353 0.0
98 1 38.8957764502 27.6460148353 0.0
99 1 44.3119764502 27.6212148353 0.0
100 1 49.1413764502 28.1650148353 0.0
101 1 54.1244764502 28.9840148353 0.0
102 1 59.5784764502 29.2726148353 0.0
103 1 64.8133764502 28.9222148353 0.0
104 1 69.8194764502 28.7492148353 0.0
105 1 75.2179764502 28.7788148353 0.0
106 1 77.9727764502 33.2605148353 0.0
107 1 5.24445645017 33.4091148353 0.0
108 1 10.5479764502 33.4882148353 0.0
109 1 15.5996764502 33.3919148353 0.0
110 1 20.7863764502 33.5163148353 0.0
111 1 26.8552764502 34.1694148353 0.0
112 1 31.3658764502 32.6196148353 0.0
113 1 36.5137764502 31.7861148353 0.0
114 1 41.5615764502 31.9373148353 0.0
115 1 46.3651764502 32.7076148353 0.0
116 1 51.0268764502 33.2096148353 0.0
117 1 56.2406764502 33.3441148353 0.0
118 1 61.6876764502 33.5465148353 0.0
119 1 67.5746764502 33.5665148353 0.0
120 1 72.8260764502 33.1074148353 0.0
121 1 2.33399645017 37.7102148353 0.0
122 1 7.81369645017 37.9035148353 0.0
123 1 13.1027764502 38.1293148353 0.0
124 1 18.3323764502 38.0185148353 0.0
125 1 22.4788764502 36.0185148353 0.0
126 1 31.7614764502 37.2645148353 0.0
127 1 34.6652764502 36.5815148353 0.0
128 1 39.3130764502 36.4387148353 0.0
129 1 42.8281764502 39.7006148353 0.0
130 1 48.2630764502 37.8897148353 0.0
131 1 53.5094764502 37.7867148353 0.0
132 1 58.7439764502 37.6964148353 0.0
133 1 63.1855764502 36.1537148353 0.0
134 1 70.1306764502 37.7746148353 0.0
135 1 75.1362764502 37.7427148353 0.0
136 1 77.3609764502 42.1454148353 0.0
137 1 4.50746645017 42.0149148353 0.0
138 1 9.87547645017 42.4522148353 0.0
139 1 16.1161764502 42.5947148353 0.0
140 1 23.4500764502 40.8820148353 0.0
141 1 26.3445764502 41.7929148353 0.0
142 1 31.6231764502 42.5508148353 0.0
143 1 37.2241764502 41.4032148353 0.0
144 1 41.1608764502 44.2617148353 0.0
145 1 46.5191764502 42.7100148353 0.0
146 1 51.6220764502 42.2887148353 0.0
147 1 56.6409764502 42.1841148353 0.0
148 1 61.8948764502 41.6835148353 0.0
149 1 66.9298764502 42.0379148353 0.0
150 1 72.0236764502 42.3752148353 0.0
151 1 1.81506645017 46.5590148353 0.0
152 1 6.82269645017 46.5355148353 0.0
153 1 11.2820764502 45.1137148353 0.0
154 1 19.8075764502 46.3877148353 0.0
155 1 22.7960764502 46.3679148353 0.0
156 1 29.1262764502 46.6243148353 0.0
157 1 34.6073764502 46.0717148353 0.0
158 1 39.7351764502 46.9113148353 0.0
159 1 44.5943764502 47.5251148353 0.0
160 1 49.6886764502 47.0455148353 0.0
161 1 54.9514764502 46.8287148353 0.0
162 1 59.9963764502 46.3180148353 0.0
163 1 64.2423764502 49.0326148353 0.0
164 1 69.3420764502 46.8656148353 0.0
165 1 74.7158764502 46.6534148353 0.0
166 1 77.6434764502 51.1123148353 0.0
167 1 4.41655645017 51.2019148353 0.0
168 1 9.40985645017 50.6387148353 0.0
169 1 14.4545764502 50.8294148353 0.0
170 1 19.6226764502 51.1853148353 0.0
171 1 24.3182764502 48.9680148353 0.0
172 1 31.7424764502 50.5728148353 0.0
173 1 36.7625764502 51.0197148353 0.0
174 1 41.8807764502 51.9383148353 0.0
175 1 47.0775764502 51.8443148353 0.0
176 1 52.4428764502 51.4038148353 0.0
177 1 57.9664764502 51.2340148353 0.0
178 1 63.0907764502 51.8375148353 0.0
179 1 67.7385764502 52.0491148353 0.0
180 1 72.5797764502 51.0841148353 0.0
181 1 1.84914645017 55.9286148353 0.0
182 1 6.89661645017 55.5658148353 0.0
183 1 11.9966764502 55.3419148353 0.0
184 1 17.4442764502 55.4574148353 0.0
185 1 23.0242764502 54.4379148353 0.0
186 1 28.5269764502 54.6022148353 0.0
187 1 33.5846764502 55.4065148353 0.0
188 1 38.9611764502 55.9896148353 0.0
189 1 44.3556764502 56.4216148353 0.0
190 1 49.6102764502 55.9678148353 0.0
191 1 55.0716764502 55.5280148353 0.0
192 1 60.2005764502 56.1599148353 0.0
193 1 65.1843764502 56.8778148353 0.0
194 1 71.9857764502 55.8526148353 0.0
195 1 74.9864764502 55.7046148353 0.0
196 1 77.5985764502 60.5458148353 0.0
197 1 4.62814645017 60.3858148353 0.0
198 1 9.63867645017 60.0320148353 0.0
199 1 14.9131764502 59.6392148353 0.0
200 1 20.4317764502 58.9480148353 0.0
201 1 25.6169764502 58.7540148353 0.0
202 1 30.5148764502 59.6173148353 0.0
203 1 35.5706764502 59.9898148353 0.0
204 1 41.0785764502 60.5152148353 0.0
205 1 47.6676764502 60.6088148353 0.0
206 1 53.0209764502 59.9185148353 0.0
207 1 57.1891764502 62.8170148353 0.0
208 1 62.4077764502 61.2252148353 0.0
209 1 67.4329764502 61.5904148353 0.0
210 1 72.3620764502 61.0574148353 0.0
211 1 2.64048645017 65.0429148353 0.0
212 1 7.73519645017 64.8410148353 0.0
213 1 12.6244764502 64.2369148353 0.0
214 1 18.0582764502 63.3904148353 0.0
215 1 23.3531764502 63.3486148353 0.0
216 1 27.6574764502 66.2453148353 0.0
217 1 32.9470764502 64.4591148353 0.0
218 1 38.2199764502 64.4245148353 0.0
219 1 42.8624764502 62.9357148353 0.0
220 1 50.4362764502 64.5765148353 0.0
221 1 55.7645764502 65.4675148353 0.0
222 1 60.4460764502 66.2352148353 0.0
223 1 65.2570764502 66.0388148353 0.0
224 1 70.5287764502 65.9728148353 0.0
225 1 75.6290764502 65.2538148353 0.0
226 1 0.527236450173 69.7554148353 0.0
227 1 5.83796645017 69.5173148353 0.0
228 1 11.1689764502 69.1796148353 0.0
229 1 16.3087764502 67.8895148353 0.0
230 1 20.7108764502 70.0814148353 0.0
231 1 26.4277764502 68.9999148353 0.0
232 1 31.1388764502 69.4000148353 0.0
233 1 36.0953764502 68.8650148353 0.0
234 1 41.5714764502 68.3166148353 0.0
235 1 46.9902764502 68.4454148353 0.0
236 1 52.1168764502 69.2251148353 0.0
237 1 57.3101764502 70.6339148353 0.0
238 1 63.1440764502 70.9381148353 0.0
239 1 68.4189764502 70.4175148353 0.0
240 1 73.4841764502 70.1626148353 0.0
241 1 3.31575645017 74.0856148353 0.0
242 1 8.77696645017 73.7918148353 0.0
243 1 15.7026764502 72.5132148353 0.0
244 1 18.7193764502 72.3459148353 0.0
245 1 23.5610764502 73.2890148353 0.0
246 1 28.6454764502 74.0780148353 0.0
247 1 33.8676764502 73.8245148353 0.0
248 1 39.0550764502 72.8059148353 0.0
249 1 44.3026764502 72.7000148353 0.0
250 1 49.2536764502 73.3647148353 0.0
251 1 54.2978764502 74.2104148353 0.0
252 1 58.6345764502 73.3359148353 0.0
253 1 65.8054764502 75.0744148353 0.0
254 1 70.9860764502 74.9227148353 0.0
255 1 76.1367764502 74.5388148353 0.0
256 1 1.22786645017 3.38178483529 0.0
257 1 6.12376645017 3.15163483529 0.0
258 1 11.2523764502 2.86905483529 0.0
259 1 16.5983764502 2.66271483529 0.0
260 1 21.4639764502 2.69193483529 0.0
261 1 26.4081764502 3.46732483529 0.0
262 1 31.4483764502 3.08341483529 0.0
263 1 36.5264764502 3.08981483529 0.0
264 1 41.3285764502 2.65614483529 0.0
265 1 46.1538764502 2.39955483529 0.0
266 1 51.0813764502 2.87158483529 0.0
267 1 56.2978764502 3.25665483529 0.0
268 1 63.5603764502 4.71769483529 0.0
269 1 67.9262764502 3.21769483529 0.0
270 1 75.1876764502 4.95191483529 0.0
271 1 3.64575645017 8.06707483529 0.0
272 1 8.67835645017 7.41852483529 0.0
273 1 13.8718764502 7.31966483529 0.0
274 1 18.8586764502 7.36415483529 0.0
275 1 23.7122764502 7.63892483529 0.0
276 1 29.1769764502 7.79165483529 0.0
277 1 34.2904764502 7.39632483529 0.0
278 1 39.5716764502 7.52462483529 0.0
279 1 44.4273764502 7.32984483529 0.0
280 1 49.7046764502 5.55089483529 0.0
281 1 54.0983764502 8.27634483529 0.0
282 1 59.1773764502 7.26923483529 0.0
283 1 65.1844764502 7.25461483529 0.0
284 1 70.6925764502 7.49857483529 0.0
285 1 76.5272764502 7.65424483529 0.0
286 1 0.594636450173 12.4058148353 0.0
287 1 6.07162645017 12.2281148353 0.0
288 1 11.0562764502 11.8931148353 0.0
289 1 15.9963764502 12.1211148353 0.0
290 1 20.9273764502 12.0215148353 0.0
291 1 25.9774764502 12.4904148353 0.0
292 1 28.9758764502 12.6532148353 0.0
293 1 36.4901764502 11.7562148353 0.0
294 1 41.9870764502 11.8096148353 0.0
295 1 47.0912764502 12.1483148353 0.0
296 1 52.3334764502 12.7050148353 0.0
297 1 57.7167764502 12.2850148353 0.0
298 1 62.6503764502 11.4818148353 0.0
299 1 68.0765764502 11.6868148353 0.0
300 1 73.4835764502 12.0036148353 0.0
301 1 2.80213645017 17.2888148353 0.0
302 1 5.81573645017 17.4346148353 0.0
303 1 12.7588764502 16.7274148353 0.0
304 1 17.7863764502 16.6754148353 0.0
305 1 22.7102764502 16.6685148353 0.0
306 1 28.0068764502 16.9859148353 0.0
307 1 33.3644764502 16.0753148353 0.0
308 1 38.8861764502 15.8419148353 0.0
309 1 44.3477764502 16.3517148353 0.0
310 1 49.6746764502 16.8569148353 0.0
311 1 55.2977764502 16.8061148353 0.0
312 1 60.7171764502 16.4440148353 0.0
313 1 65.5467764502 16.0686148353 0.0
314 1 70.6194764502 16.5352148353 0.0
315 1 75.7528764502 16.6970148353 0.0
316 1 77.6725764502 21.5127148353 0.0
317 1 4.88912645017 21.8069148353 0.0
318 1 10.0414764502 21.3610148353 0.0
319 1 15.0841764502 21.4431148353 0.0
320 1 20.1018764502 21.1975148353 0.0
321 1 25.0727764502 21.4703148353 0.0
322 1 30.5876764502 20.7412148353 0.0
323 1 35.8915764502 20.1957148353 0.0
324 1 41.1701764502 20.3154148353 0.0
325 1 48.4115764502 22.3927148353 0.0
326 1 52.7833764502 21.0944148353 0.0
327 1 57.8688764502 21.6797148353 0.0
328 1 60.8789764502 21.7545148353 0.0
329 1 67.5108764502 21.0453148353 0.0
330 1 72.6571764502 21.1923148353 0.0
331 1 2.32232645017 26.0157148353 0.0
332 1 7.83127645017 26.0262148353 0.0
333 1 12.9572764502 25.9267148353 0.0
334 1 18.2165764502 25.9377148353 0.0
335 1 23.6662764502 24.1390148353 0.0
336 1 28.2749764502 25.8249148353 0.0
337 1 33.3319764502 24.5669148353 0.0
338 1 38.6029764502 24.6681148353 0.0
339 1 43.9691764502 24.6214148353 0.0
340 1 49.5933764502 25.1692148353 0.0
341 1 54.6580764502 26.0300148353 0.0
342 1 59.8111764502 26.2792148353 0.0
343 1 64.8678764502 25.8845148353 0.0
344 1 69.8361764502 25.7176148353 0.0
345 1 75.0454764502 25.7743148353 0.0
346 1 77.8514764502 30.2550148353 0.0
347 1 5.19935645017 30.3970148353 0.0
348 1 10.5598764502 30.4676148353 0.0
349 1 15.8443764502 30.3730148353 0.0
350 1 21.1420764502 30.4996148353 0.0
351 1 26.2464764502 31.2356148353 0.0
352 1 29.1758764502 30.5852148353 0.0
353 1 36.1397764502 28.8256148353 0.0
354 1 41.6095764502 28.9369148353 0.0
355 1 46.5294764502 29.6742148353 0.0
356 1 51.3665764502 30.2043148353 0.0
357 1 56.7790764502 30.3930148353 0.0
358 1 62.2869764502 30.5910148353 0.0
359 1 67.3722764502 30.5371148353 0.0
360 1 72.5169764502 30.1129148353 0.0
361 1 2.52641645017 34.7102148353 0.0
362 1 7.87469645017 34.8883148353 0.0
363 1 13.1040764502 35.1005148353 0.0
364 1 18.1543764502 34.9956148353 0.0
365 1 25.3911764502 36.7673148353 0.0
366 1 29.7052764502 35.0925148353 0.0
367 1 34.1774764502 33.6287148353 0.0
368 1 38.9855764502 33.4604148353 0.0
369 1 43.6778764502 34.0615148353 0.0
370 1 48.4919764502 34.8538148353 0.0
371 1 53.5956764502 34.7782148353 0.0
372 1 58.9123764502 34.7012148353 0.0
373 1 66.1796764502 36.2560148353 0.0
374 1 70.3256764502 34.7709148353 0.0
375 1 75.3524764502 34.7392148353 0.0
376 1 77.7804764502 39.1687148353 0.0
377 1 5.02370645017 39.0576148353 0.0
378 1 10.3942764502 39.4793148353 0.0
379 1 15.7499764502 39.5972148353 0.0
380 1 21.2640764502 38.7669148353 0.0
381 1 27.4221764502 39.0037148353 0.0
382 1 30.3083764502 39.8537148353 0.0
383 1 37.0417764502 38.4033148353 0.0
384 1 42.2978764502 36.7417148353 0.0
385 1 45.8687764502 39.7704148353 0.0
386 1 50.9282764502 39.3427148353 0.0
387 1 56.1566764502 39.2198148353 0.0
388 1 61.5725764502 38.6931148353 0.0
389 1 67.3968764502 39.0299148353 0.0
390 1 72.6340764502 39.4233148353 0.0
391 1 1.92791645017 43.5584148353 0.0
392 1 7.08022645017 43.5472148353 0.0
393 1 14.2826764502 44.9964148353 0.0
394 1 18.9820764502 43.5191148353 0.0
395 1 21.9826764502 43.4778148353 0.0
396 1 28.7784764502 43.6313148353 0.0
397 1 34.6385764502 43.0480148353 0.0
398 1 40.2771764502 41.3927148353 0.0
399 1 44.1503764502 44.5628148353 0.0
400 1 49.2030764502 44.0734148353 0.0
401 1 54.1804764502 43.9042148353 0.0
402 1 59.4029764502 43.3697148353 0.0
403 1 64.2816764502 43.5151148353 0.0
404 1 69.3684764502 43.8321148353 0.0
405 1 74.7501764502 43.6491148353 0.0
406 1 77.3376764502 48.1238148353 0.0
407 1 4.32613645017 48.2001148353 0.0
408 1 9.61257645017 47.6299148353 0.0
409 1 15.0762764502 47.9005148353 0.0
410 1 17.9584764502 48.7039148353 0.0
411 1 27.3270764502 49.0462148353 0.0
412 1 31.9870764502 47.5716148353 0.0
413 1 36.9285764502 47.9996148353 0.0
414 1 41.9506764502 48.9389148353 0.0
415 1 47.2817764502 48.8478148353 0.0
416 1 52.3791764502 48.3956148353 0.0
417 1 57.6473764502 48.2200148353 0.0
418 1 63.0157764502 46.2734148353 0.0
419 1 67.2585764502 49.0671148353 0.0
420 1 72.0876764502 48.1160148353 0.0
421 1 1.95601645017 52.9193148353 0.0
422 1 7.08910645017 52.5589148353 0.0
423 1 11.8732764502 52.3438148353 0.0
424 1 16.9455764502 52.5170148353 0.0
425 1 22.6167764502 51.4590148353 0.0
426 1 28.9173764502 51.6068148353 0.0
427 1 34.1010764502 52.4357148353 0.0
428 1 39.0608764502 52.9769148353 0.0
429 1 44.5035764502 53.4149148353 0.0
430 1 49.8630764502 52.9727148353 0.0
431 1 55.2402764502 52.5288148353 0.0
432 1 60.3474764502 53.1183148353 0.0
433 1 65.3301764502 53.8576148353 0.0
434 1 70.4964764502 53.2386148353 0.0
435 1 75.1094764502 52.7026148353 0.0
436 1 77.3841764502 57.5336148353 0.0
437 1 4.48833645017 57.3738148353 0.0
438 1 9.51467645017 57.0323148353 0.0
439 1 14.6955764502 56.6580148353 0.0
440 1 20.4136764502 55.9527148353 0.0
441 1 25.7386764502 55.7475148353 0.0
442 1 30.8039764502 56.5996148353 0.0
443 1 36.1248764502 57.0321148353 0.0
444 1 41.5547764502 57.5457148353 0.0
445 1 47.1073764502 57.6522148353 0.0
446 1 52.4384764502 56.9794148353 0.0
447 1 57.4364764502 57.3855148353 0.0
448 1 62.4576764502 58.1891148353 0.0
449 1 67.6711764502 58.5968148353 0.0
450 1 70.6857764502 58.5499148353 0.0
451 1 2.12758645017 62.0634148353 0.0
452 1 7.25428645017 61.8630148353 0.0
453 1 12.3811764502 61.2492148353 0.0
454 1 17.8118764502 60.4103148353 0.0
455 1 23.0760764502 60.3573148353 0.0
456 1 27.7645764502 60.8565148353 0.0
457 1 32.9232764502 61.4377148353 0.0
458 1 38.2123764502 61.4245148353 0.0
459 1 45.8656764502 63.0170148353 0.0
460 1 50.5152764502 61.5782148353 0.0
461 1 56.0254764502 60.0503148353 0.0
462 1 60.1629764502 63.2374148353 0.0
463 1 64.8123764502 63.0520148353 0.0
464 1 70.0828764502 63.0075148353 0.0
465 1 75.1283764502 62.2709148353 0.0
466 1 0.164487450173 66.7566148353 0.0
467 1 5.26030645017 66.5505148353 0.0
468 1 10.3998764502 66.2577148353 0.0
469 1 15.5228764502 65.0023148353 0.0
470 1 20.7082764502 64.8002148353 0.0
471 1 26.3598764502 63.5313148353 0.0
472 1 30.6610764502 66.4272148353 0.0
473 1 35.5980764502 65.8969148353 0.0
474 1 41.0787764502 65.3532148353 0.0
475 1 47.5732764502 65.4926148353 0.0
476 1 52.8806764502 66.3181148353 0.0
477 1 57.8107764502 67.6701148353 0.0
478 1 62.9209764502 67.9334148353 0.0
479 1 67.9178764502 67.4532148353 0.0
480 1 73.2927764502 67.1564148353 0.0
481 1 3.24587645017 71.0703148353 0.0
482 1 8.59738645017 70.7763148353 0.0
483 1 14.1059764502 69.9531148353 0.0
484 1 19.2922764502 67.4536148353 0.0
485 1 23.7093764502 70.2943148353 0.0
486 1 28.6276764502 71.0589148353 0.0
487 1 33.7950764502 70.8097148353 0.0
488 1 38.9543764502 69.8061148353 0.0
489 1 44.2515764502 69.6906148353 0.0
490 1 49.3267764502 70.3503148353 0.0
491 1 54.3697764502 71.2110148353 0.0
492 1 61.6213764502 73.5360148353 0.0
493 1 65.9191764502 72.0731148353 0.0
494 1 71.0304764502 71.9086148353 0.0
495 1 76.1662764502 71.5243148353 0.0
496 1 0.801866450173 75.7703148353 0.0
497 1 6.11144645017 75.2279148353 0.0
498 1 11.3794764502 75.3401148353 0.0
499 1 14.4036764502 75.2309148353 0.0
500 1 20.8049764502 74.5029148353 0.0
501 1 25.8527764502 75.2231148353 0.0
502 1 31.3289764502 75.4628148353 0.0
503 1 36.7444764502 74.7249148353 0.0
504 1 41.7100764502 74.2085148353 0.0
505 1 46.5578764502 74.6877148353 0.0
506 1 51.5261764502 75.3385148353 0.0
507 1 56.8677764502 75.7686148353 0.0
508 1 63.0185764502 76.2036148353 0.0
509 1 68.4325764502 76.5248148353 0.0
510 1 73.6724764502 76.2829148353 0.0
511 1 5.89519645017 78.2323148353 0.0
512 1 11.0467764502 78.3246148353 0.0
513 1 15.9670764502 77.8259148353 0.0
514 1 21.0891764502 77.4898148353 0.0
515 1 25.7189764502 80.1900148353 0.0
516 1 31.3282764502 78.4799148353 0.0
517 1 38.3354764502 77.2759148353 0.0
518 1 41.3395764502 77.1859148353 0.0
519 1 46.3403764502 77.6928148353 0.0
520 1 51.7332764502 78.3369148353 0.0
521 1 57.0776764502 78.7814148353 0.0
522 1 62.4347764502 79.1666148353 0.0
523 1 68.0268764502 79.5069148353 0.0
524 1 73.5547764502 79.2939148353 0.0
525 1 0.601216450173 78.7810148353 0.0
526 1 3.39188645017 79.9049148353 0.0
527 1 8.44562645017 79.8195148353 0.0
528 1 13.6779764502 79.7697148353 0.0
529 1 18.6418764502 79.2507148353 0.0
530 1 24.0986764502 77.6714148353 0.0
531 1 28.7333764502 80.0459148353 0.0
532 1 34.0104764502 79.8802148353 0.0
533 1 37.0272764502 79.9659148353 0.0
534 1 43.6706764502 79.0922148353 0.0
535 1 48.8854764502 79.3081148353 0.0
536 1 54.2858764502 79.9577148353 0.0
537 1 59.6514764502 80.3838148353 0.0
538 1 65.1551764502 80.5018148353 0.0
539 1 70.8417764502 80.6230148353 0.0
540 1 76.2711764502 80.6063148353 0.0
541 2 3.50870645017 0.0457038352942 0.0
542 2 4.87104645017 2.32810483529 0.0
543 2 2.40594645017 2.45810483529 0.0
544 2 8.50795645017 81.3206148353 0.0
545 2 9.93597645017 2.14856483529 0.0
546 2 7.37832645017 2.32662483529 0.0
547 2 13.7851764502 81.2644148353 0.0
548 2 15.2319764502 2.03081483529 0.0
549 2 12.5685764502 2.14819483529 0.0
550 2 18.8511764502 80.7524148353 0.0
551 2 20.2730764502 1.76419483529 0.0
552 2 17.8124764502 1.77864483529 0.0
553 2 24.9111764502 0.105892835294 0.0
554 2 25.2428764502 2.52542483529 0.0
555 2 22.8084764502 2.00390483529 0.0
556 2 28.8391764502 0.189254835294 0.0
557 2 30.1363764502 2.38367483529 0.0
558 2 27.6327764502 2.59620483529 0.0
559 2 33.9220764502 0.0234358352942 0.0
560 2 35.2333764502 2.33290483529 0.0
561 2 32.7087764502 2.29144483529 0.0
562 2 37.9636764502 81.1548148353 0.0
563 2 40.0586764502 1.83236483529 0.0
564 2 37.6709764502 2.13576483529 0.0
565 2 43.6272764502 80.5987148353 0.0
566 2 44.9072764502 1.56658483529 0.0
567 2 42.4756764502 1.67991483529 0.0
568 2 48.8197764502 80.8094148353 0.0
569 2 49.9645764502 1.86133483529 0.0
570 2 47.4483764502 1.63882483529 0.0
571 2 54.0391764502 0.0879038352942 0.0
572 2 55.0384764502 2.43679483529 0.0
573 2 52.4606764502 2.26632483529 0.0
574 2 59.3889764502 0.520344835294 0.0
575 2 59.8769764502 3.24749483529 0.0
576 2 57.6283764502 2.55212483529 0.0
577 2 65.0582764502 0.650614835294 0.0
578 2 66.5616764502 2.61462483529 0.0
579 2 64.2695764502 3.38545483529 0.0
580 2 70.9004764502 0.770724835294 0.0
581 2 71.5518764502 3.54102483529 0.0
582 2 69.3080764502 2.65518483529 0.0
583 2 76.3497764502 0.756784835294 0.0
584 2 77.9544764502 2.75040483529 0.0
585 2 75.7859764502 3.56623483529 0.0
586 2 1.23750645017 4.88529483529 0.0
587 2 2.39601645017 7.23503483529 0.0
588 2 77.9249764502 7.08859483529 0.0
589 2 6.01361645017 4.64915483529 0.0
590 2 7.33398645017 6.76321483529 0.0
591 2 4.82452645017 7.12952483529 0.0
592 2 11.2428764502 4.37008483529 0.0
593 2 12.5588764502 6.59058483529 0.0
594 2 9.96177645017 6.64638483529 0.0
595 2 16.5143764502 4.16768483529 0.0
596 2 17.6228764502 6.51075483529 0.0
597 2 15.1192764502 6.48374483529 0.0
598 2 21.4172764502 4.20875483529 0.0
599 2 22.5677764502 6.66400483529 0.0
600 2 20.1230764502 6.54806483529 0.0
601 2 26.4493764502 4.96482483529 0.0
602 2 27.7936764502 7.20321483529 0.0
603 2 25.1105764502 7.08417483529 0.0
604 2 31.5284764502 4.57067483529 0.0
605 2 32.9692764502 6.69074483529 0.0
606 2 30.3535764502 6.85586483529 0.0
607 2 36.7632764502 4.56514483529 0.0
608 2 38.2614764502 6.78175483529 0.0
609 2 35.6334764502 6.74592483529 0.0
610 2 41.6271764502 4.14453483529 0.0
611 2 43.1789764502 6.47191483529 0.0
612 2 40.7496764502 6.59388483529 0.0
613 2 46.3420764502 3.89036483529 0.0
614 2 48.1988764502 5.52229483529 0.0
615 2 45.6185764502 6.39739483529 0.0
616 2 50.3867764502 6.88889483529 0.0
617 2 52.5971764502 8.17957483529 0.0
618 2 50.3897764502 9.54971483529 0.0
619 2 56.2645764502 4.76490483529 0.0
620 2 57.7301764502 6.84215483529 0.0
621 2 55.1702764502 7.22010483529 0.0
622 2 62.0646764502 4.64968483529 0.0
623 2 59.9310764502 5.95916483529 0.0
624 2 67.9697764502 4.71610483529 0.0
625 2 69.2965764502 6.93362483529 0.0
626 2 66.6098764502 6.78160483529 0.0
627 2 73.6918764502 4.92495483529 0.0
628 2 71.5282764502 6.24621483529 0.0
629 2 1.95878645017 11.7451148353 0.0
630 2 4.65705645017 11.7239148353 0.0
631 2 3.47713645017 9.55941483529 0.0
632 2 8.56741645017 8.91253483529 0.0
633 2 9.76787645017 11.1267148353 0.0
634 2 7.21676645017 11.2479148353 0.0
635 2 13.7567764502 8.81952483529 0.0
636 2 14.8036764502 11.2090148353 0.0
637 2 12.3257764502 11.0977148353 0.0
638 2 18.6371764502 8.85620483529 0.0
639 2 19.7019764502 11.1579148353 0.0
640 2 17.2287764502 11.2529148353 0.0
641 2 23.6452764502 9.14403483529 0.0
642 2 24.8387764502 11.5118148353 0.0
643 2 22.2733764502 11.3526148353 0.0
644 2 29.9072764502 11.4871148353 0.0
645 2 29.9335764502 9.08822483529 0.0
646 2 32.3208764502 10.4345148353 0.0
647 2 34.1145764502 8.87618483529 0.0
648 2 35.1360764502 11.0877148353 0.0
649 2 39.4246764502 9.01992483529 0.0
650 2 40.6155764502 11.1751148353 0.0
651 2 37.8749764502 11.1445148353 0.0
652 2 44.5609764502 8.83910483529 0.0
653 2 45.8766764502 11.2395148353 0.0
654 2 43.3082764502 11.0773148353 0.0
655 2 51.0667764502 11.8928148353 0.0
656 2 48.4683764502 11.5154148353 0.0
657 2 54.5757764502 9.70321483529 0.0
658 2 56.3113764502 11.7294148353 0.0
659 2 53.6519764502 11.9801148353 0.0
660 2 59.5923764502 8.72490483529 0.0
661 2 61.3048764502 10.7977148353 0.0
662 2 58.8171764502 11.2519148353 0.0
663 2 65.2353764502 8.75569483529 0.0
664 2 66.7411764502 10.9667148353 0.0
665 2 64.0233764502 10.8652148353 0.0
666 2 70.8538764502 8.98996483529 0.0
667 2 72.1741764502 11.2428148353 0.0
668 2 69.4654764502 11.0865148353 0.0
669 2 76.3115764502 9.14925483529 0.0
670 2 74.8352764502 11.3216148353 0.0
671 2 77.4398764502 11.5348148353 0.0
672 2 0.516666450173 13.9170148353 0.0
673 2 1.65134645017 16.3105148353 0.0
674 2 77.1292764502 16.0682148353 0.0
675 2 6.62374645017 16.1703148353 0.0
676 2 6.67684645017 13.6045148353 0.0
677 2 8.92902645017 14.9471148353 0.0
678 2 10.8253764502 13.3745148353 0.0
679 2 11.5375764502 15.8391148353 0.0
680 2 15.6261764502 13.5821148353 0.0
681 2 16.5166764502 15.8811148353 0.0
682 2 14.0088764502 15.8785148353 0.0
683 2 20.5779764502 13.4865148353 0.0
684 2 21.4850764502 15.8158148353 0.0
685 2 19.0100764502 15.7974148353 0.0
686 2 25.6326764502 13.9526148353 0.0
687 2 26.7133764502 16.2224148353 0.0
688 2 24.0728764502 16.0458148353 0.0
689 2 29.7635764502 13.9294148353 0.0
690 2 31.9360764502 15.5723148353 0.0
691 2 29.2993764502 16.2193148353 0.0
692 2 36.2595764502 13.2411148353 0.0
693 2 37.4827764502 15.2855148353 0.0
694 2 34.7132764502 15.3939148353 0.0
695 2 41.8899764502 13.3140148353 0.0
696 2 43.0370764502 15.5911148353 0.0
697 2 40.3041764502 15.3167148353 0.0
698 2 47.1147764502 13.6639148353 0.0
699 2 48.4030764502 16.0278148353 0.0
700 2 45.7451764502 15.7767148353 0.0
701 2 52.3979764502 14.2036148353 0.0
702 2 53.8813764502 16.2716148353 0.0
703 2 51.0831764502 16.2973148353 0.0
704 2 57.8464764502 13.7887148353 0.0
705 2 59.2925764502 15.9401148353 0.0
706 2 56.6072764502 16.0498148353 0.0
707 2 62.7965764502 12.9836148353 0.0
708 2 64.2939764502 15.2297148353 0.0
709 2 61.8086764502 15.4050148353 0.0
710 2 68.1549764502 13.1968148353 0.0
711 2 69.4276764502 15.6044148353 0.0
712 2 66.8845764502 15.3897148353 0.0
713 2 73.3600764502 13.5110148353 0.0
714 2 74.5087764502 15.8393148353 0.0
715 2 71.9374764502 15.7893148353 0.0
716 2 2.48541645017 18.7630148353 0.0
717 2 3.58047645017 21.0666148353 0.0
718 2 0.952106450173 20.8767148353 0.0
719 2 6.64453645017 18.6957148353 0.0
720 2 8.70040645017 20.6572148353 0.0
721 2 6.14269645017 20.9859148353 0.0
722 2 12.6694764502 18.2334148353 0.0
723 2 13.8193764502 20.6168148353 0.0
724 2 11.2935764502 20.5195148353 0.0
725 2 17.6520764502 18.1744148353 0.0
726 2 18.8062764502 20.4487148353 0.0
727 2 16.2922764502 20.5382148353 0.0
728 2 22.6843764502 18.1656148353 0.0
729 2 23.9132764502 20.5091148353 0.0
730 2 21.3741764502 20.3999148353 0.0
731 2 27.8054764502 18.4680148353 0.0
732 2 29.1358764502 20.3611148353 0.0
733 2 26.4220764502 20.7882148353 0.0
734 2 33.2288764502 17.5763148353 0.0
735 2 34.4955764502 19.6492148353 0.0
736 2 31.8371764502 19.8964148353 0.0
737 2 38.7313764502 17.3393148353 0.0
738 2 39.8644764502 19.5806148353 0.0
739 2 37.2139764502 19.4823148353 0.0
740 2 44.2421764502 17.8615148353 0.0
741 2 44.8059764502 20.6304148353 0.0
742 2 42.5588764502 19.7544148353 0.0
743 2 49.7690764502 18.3726148353 0.0
744 2 51.4581764502 20.3845148353 0.0
745 2 49.1812764502 21.0954148353 0.0
746 2 55.4405764502 18.3092148353 0.0
747 2 56.7342764502 20.6865148353 0.0
748 2 54.1431764502 20.4586148353 0.0
749 2 61.5525764502 20.4146148353 0.0
750 2 61.3913764502 17.7982148353 0.0
751 2 63.7171764502 19.1409148353 0.0
752 2 65.4630764502 17.5702148353 0.0
753 2 66.3221764502 20.0991148353 0.0
754 2 70.3717764502 18.0302148353 0.0
755 2 71.3927764502 20.3711148353 0.0
756 2 68.8266764502 20.2900148353 0.0
757 2 75.5128764502 18.1929148353 0.0
758 2 76.4728764502 20.6082148353 0.0
759 2 73.9596764502 20.4250148353 0.0
760 2 77.7184764502 23.0153148353 0.0
761 2 1.01168645017 25.2677148353 0.0
762 2 76.4163764502 25.1491148353 0.0
763 2 4.99013645017 23.3005148353 0.0
764 2 6.44686645017 25.4227148353 0.0
765 2 3.70345645017 25.4147148353 0.0
766 2 10.2050764502 22.8659148353 0.0
767 2 11.6635764502 25.1392148353 0.0
768 2 9.08908645017 25.1960148353 0.0
769 2 15.3381764502 22.9323148353 0.0
770 2 16.8974764502 25.1838148353 0.0
771 2 14.2743764502 25.1897148353 0.0
772 2 20.3038764502 22.6817148353 0.0
773 2 22.1589764502 24.2318148353 0.0
774 2 19.4758764502 25.0925148353 0.0
775 2 24.4863764502 25.3960148353 0.0
776 2 26.8194764502 26.2229148353 0.0
777 2 24.6112764502 27.9463148353 0.0
778 2 30.5188764502 22.2392148353 0.0
779 2 31.8924764502 24.1550148353 0.0
780 2 29.2485764502 24.6535148353 0.0
781 2 35.9642764502 21.6938148353 0.0
782 2 37.2941764502 23.9385148353 0.0
783 2 34.6499764502 23.8526148353 0.0
784 2 41.1987764502 21.8157148353 0.0
785 2 42.5729764502 24.0474148353 0.0
786 2 39.9332764502 23.9852148353 0.0
787 2 46.9295764502 22.1718148353 0.0