ITEM: TIMESTEP
0
ITEM: NUMBER OF ATOMS
1350
ITEM: BOX BOUNDS xy xz yz pp pp pp
0.0 78.8602966553 0
0.0 80.6452011907 0
-10.0 10.0 0
ITEM: ATOMS id type x y z vx vy vz
1 1 1.99992610452 1.36455059535 0.0 0.0 0.0 0.0
2 1 7.19640610452 1.79120059535 0.0 0.0 0.0 0.0
3 1 12.7138861045 1.88911059535 0.0 0.0 0.0 0.0
4 1 18.0159861045 1.80400059535 0.0 0.0 0.0 0.0
5 1 23.3245861045 1.60325059535 0.0 0.0 0.0 0.0
6 1 29.6795861045 2.46916059535 0.0 0.0 0.0 0.0
7 1 33.8504861045 1.37027059535 0.0 0.0 0.0 0.0
8 1 38.7296861045 0.33816059535 0.0 0.0 0.0 0.0
9 1 44.0599861045 0.61943059535 0.0 0.0 0.0 0.0
10 1 49.2352861045 0.83927059535 0.0 0.0 0.0 0.0
11 1 54.5376861045 1.47906059535 0.0 0.0 0.0 0.0
12 1 60.8438861045 1.99201059535 0.0 0.0 0.0 0.0
13 1 66.0035861045 1.83845059535 0.0 0.0 0.0 0.0
14 1 71.0692861045 2.13204059535 0.0 0.0 0.0 0.0
15 1 75.6961861045 2.11305059535 0.0 0.0 0.0 0.0
16 1 78.8162861045 6.17256059535 0.0 0.0 0.0 0.0
17 1 4.67483610452 8.11190059535 0.0 0.0 0.0 0.0
18 1 9.92438610452 6.08521059535 0.0 0.0 0.0 0.0
19 1 15.2691861045 6.33472059535 0.0 0.0 0.0 0.0
20 1 20.9021861045 6.16968059535 0.0 0.0 0.0 0.0
21 1 24.9258861045 4.16748059535 0.0 0.0 0.0 0.0
22 1 32.2826861045 6.89060059535 0.0 0.0 0.0 0.0
23 1 37.1810861045 5.51631059535 0.0 0.0 0.0 0.0
24 1 42.0230861045 4.82105059535 0.0 0.0 0.0 0.0
25 1 47.0955861045 5.21772059535 0.0 0.0 0.0 0.0
26 1 51.7842861045 5.50862059535 0.0 0.0 0.0 0.0
27 1 56.0723861045 4.06107059535 0.0 0.0 0.0 0.0
28 1 62.9740861045 6.45783059535 0.0 0.0 0.0 0.0
29 1 68.1421861045 6.65313059535 0.0 0.0 0.0 0.0
30 1 73.5233861045 7.04945059535 0.0 0.0 0.0 0.0
31 1 3.45730610452 10.8464005954 0.0 0.0 0.0 0.0
32 1 8.17599610452 11.0119005954 0.0 0.0 0.0 0.0
33 1 12.9497861045 10.5468005954 0.0 0.0 0.0 0.0
34 1 16.8279861045 8.91965059535 0.0 0.0 0.0 0.0
35 1 24.1289861045 9.94980059535 0.0 0.0 0.0 0.0
36 1 29.2068861045 10.4420005954 0.0 0.0 0.0 0.0
37 1 34.6576861045 10.7047005954 0.0 0.0 0.0 0.0
38 1 41.4775861045 9.45750059535 0.0 0.0 0.0 0.0
39 1 44.4924861045 9.61480059535 0.0 0.0 0.0 0.0
40 1 49.7316861045 10.2164005954 0.0 0.0 0.0 0.0
41 1 55.1092861045 9.61820059535 0.0 0.0 0.0 0.0
42 1 59.4460861045 12.3610005954 0.0 0.0 0.0 0.0
43 1 64.9718861045 11.1261005954 0.0 0.0 0.0 0.0
44 1 70.3642861045 11.2217005954 0.0 0.0 0.0 0.0
45 1 76.8966861045 10.9688005954 0.0 0.0 0.0 0.0
46 1 0.842076104518 15.1697005954 0.0 0.0 0.0 0.0
47 1 5.89667610452 15.7458005954 0.0 0.0 0.0 0.0
48 1 11.0978861045 15.5185005954 0.0 0.0 0.0 0.0
49 1 16.1927861045 14.6922005954 0.0 0.0 0.0 0.0
50 1 21.2874861045 14.4755005954 0.0 0.0 0.0 0.0
51 1 26.3328861045 14.7766005954 0.0 0.0 0.0 0.0
52 1 31.3346861045 14.8181005954 0.0 0.0 0.0 0.0
53 1 36.5136861045 15.1573005954 0.0 0.0 0.0 0.0
54 1 41.7985861045 14.7444005954 0.0 0.0 0.0 0.0
55 1 47.0026861045 14.4424005954 0.0 0.0 0.0 0.0
56 1 52.3397861045 14.3538005954 0.0 0.0 0.0 0.0
57 1 57.6618861045 14.8092005954 0.0 0.0 0.0 0.0
58 1 62.5632861045 15.8261005954 0.0 0.0 0.0 0.0
59 1 68.2420861045 15.4793005954 0.0 0.0 0.0 0.0
60 1 72.4250861045 13.4165005954 0.0 0.0 0.0 0.0
61 1 3.13062610452 20.0232005954 0.0 0.0 0.0 0.0
62 1 8.45092610452 20.1044005954 0.0 0.0 0.0 0.0
63 1 13.6958861045 19.6290005954 0.0 0.0 0.0 0.0
64 1 18.8011861045 19.2088005954 0.0 0.0 0.0 0.0
65 1 23.8513861045 19.2770005954 0.0 0.0 0.0 0.0
66 1 28.8435861045 19.4793005954 0.0 0.0 0.0 0.0
67 1 33.7527861045 19.4755005954 0.0 0.0 0.0 0.0
68 1 39.1017861045 19.3183005954 0.0 0.0 0.0 0.0
69 1 44.2768861045 19.1494005954 0.0 0.0 0.0 0.0
70 1 49.4468861045 18.8670005954 0.0 0.0 0.0 0.0
71 1 54.7774861045 19.0393005954 0.0 0.0 0.0 0.0
72 1 59.8569861045 19.9409005954 0.0 0.0 0.0 0.0
73 1 64.0850861045 18.4230005954 0.0 0.0 0.0 0.0
74 1 71.7600861045 19.0827005954 0.0 0.0 0.0 0.0
75 1 76.8432861045 19.2275005954 0.0 0.0 0.0 0.0
76 1 0.470861104518 24.1208005954 0.0 0.0 0.0 0.0
77 1 5.68603610452 24.4588005954 0.0 0.0 0.0 0.0
78 1 10.9525861045 24.3064005954 0.0 0.0 0.0 0.0
79 1 16.1724861045 23.9947005954 0.0 0.0 0.0 0.0
80 1 21.3814861045 23.8951005954 0.0 0.0 0.0 0.0
81 1 26.5805861045 24.0576005954 0.0 0.0 0.0 0.0
82 1 31.7829861045 24.1798005954 0.0 0.0 0.0 0.0
83 1 37.0675861045 23.6760005954 0.0 0.0 0.0 0.0
84 1 41.6356861045 25.8443005954 0.0 0.0 0.0 0.0
85 1 46.8972861045 23.5950005954 0.0 0.0 0.0 0.0
86 1 51.9868861045 23.3850005954 0.0 0.0 0.0 0.0
87 1 57.2730861045 24.0382005954 0.0 0.0 0.0 0.0
88 1 63.5290861045 23.9476005954 0.0 0.0 0.0 0.0
89 1 69.0078861045 23.4672005954 0.0 0.0 0.0 0.0
90 1 74.1922861045 23.7642005954 0.0 0.0 0.0 0.0
91 1 3.01314610452 28.7912005954 0.0 0.0 0.0 0.0
92 1 8.19841610452 28.8396005954 0.0 0.0 0.0 0.0
93 1 13.4183861045 28.6364005954 0.0 0.0 0.0 0.0
94 1 18.6512861045 28.4531005954 0.0 0.0 0.0 0.0
95 1 24.0399861045 28.5094005954 0.0 0.0 0.0 0.0
96 1 29.3368861045 28.6594005954 0.0 0.0 0.0 0.0
97 1 34.6055861045 28.3824005954 0.0 0.0 0.0 0.0
98 1 40.1244861045 28.4412005954 0.0 0.0 0.0 0.0
99 1 45.0625861045 28.5485005954 0.0 0.0 0.0 0.0
100 1 49.9545861045 28.0743005954 0.0 0.0 0.0 0.0
101 1 54.8824861045 28.0584005954 0.0 0.0 0.0 0.0
102 1 59.0369861045 26.4888005954 0.0 0.0 0.0 0.0
103 1 66.4137861045 27.9170005954 0.0 0.0 0.0 0.0
104 1 71.5487861045 28.1531005954 0.0 0.0 0.0 0.0
105 1 76.7195861045 28.5047005954 0.0 0.0 0.0 0.0
106 1 0.408948104518 33.2109005954 0.0 0.0 0.0 0.0
107 1 5.52544610452 33.3623005954 0.0 0.0 0.0 0.0
108 1 10.7435861045 33.2424005954 0.0 0.0 0.0 0.0
109 1 15.9401861045 33.0329005954 0.0 0.0 0.0 0.0
110 1 20.9762861045 32.8070005954 0.0 0.0 0.0 0.0
111 1 26.2885861045 33.0153005954 0.0 0.0 0.0 0.0
112 1 32.3518861045 32.9929005954 0.0 0.0 0.0 0.0
113 1 37.6109861045 32.6158005954 0.0 0.0 0.0 0.0
114 1 42.6520861045 33.1837005954 0.0 0.0 0.0 0.0
115 1 47.7830861045 33.0108005954 0.0 0.0 0.0 0.0
116 1 52.9291861045 32.7330005954 0.0 0.0 0.0 0.0
117 1 58.0985861045 32.1607005954 0.0 0.0 0.0 0.0
118 1 63.3427861045 32.1111005954 0.0 0.0 0.0 0.0
119 1 68.6377861045 32.5900005954 0.0 0.0 0.0 0.0
120 1 74.0065861045 32.8701005954 0.0 0.0 0.0 0.0
121 1 2.94137610452 37.9021005954 0.0 0.0 0.0 0.0
122 1 8.13557610452 37.8229005954 0.0 0.0 0.0 0.0
123 1 13.5423861045 37.6522005954 0.0 0.0 0.0 0.0
124 1 18.6691861045 37.5608005954 0.0 0.0 0.0 0.0
125 1 23.5671861045 37.2955005954 0.0 0.0 0.0 0.0
126 1 27.9014861045 35.5476005954 0.0 0.0 0.0 0.0
127 1 35.1212861045 37.2249005954 0.0 0.0 0.0 0.0
128 1 40.0685861045 37.4908005954 0.0 0.0 0.0 0.0
129 1 45.1935861045 37.6427005954 0.0 0.0 0.0 0.0
130 1 50.4161861045 37.4075005954 0.0 0.0 0.0 0.0
131 1 55.5916861045 36.9727005954 0.0 0.0 0.0 0.0
132 1 60.6912861045 36.6488005954 0.0 0.0 0.0 0.0
133 1 65.8293861045 36.7909005954 0.0 0.0 0.0 0.0
134 1 71.1161861045 37.0948005954 0.0 0.0 0.0 0.0
135 1 76.5728861045 37.5134005954 0.0 0.0 0.0 0.0
136 1 78.7709861045 42.2005005954 0.0 0.0 0.0 0.0
137 1 5.91793610452 42.4001005954 0.0 0.0 0.0 0.0
138 1 11.2824861045 42.0380005954 0.0 0.0 0.0 0.0
139 1 16.5209861045 42.1676005954 0.0 0.0 0.0 0.0
140 1 21.7563861045 42.1248005954 0.0 0.0 0.0 0.0
141 1 26.8871861045 41.1360005954 0.0 0.0 0.0 0.0
142 1 32.1284861045 41.2795005954 0.0 0.0 0.0 0.0
143 1 37.1148861045 42.0194005954 0.0 0.0 0.0 0.0
144 1 42.3802861045 42.1232005954 0.0 0.0 0.0 0.0
145 1 47.6845861045 41.9971005954 0.0 0.0 0.0 0.0
146 1 52.9363861045 41.7067005954 0.0 0.0 0.0 0.0
147 1 58.0855861045 41.4129005954 0.0 0.0 0.0 0.0
148 1 63.1693861045 41.3061005954 0.0 0.0 0.0 0.0
149 1 68.2836861045 41.3901005954 0.0 0.0 0.0 0.0
150 1 73.4308861045 41.5490005954 0.0 0.0 0.0 0.0
151 1 1.40598610452 44.8153005954 0.0 0.0 0.0 0.0
152 1 8.66211610452 46.5523005954 0.0 0.0 0.0 0.0
153 1 13.7633861045 46.5863005954 0.0 0.0 0.0 0.0
154 1 19.1233861045 46.6549005954 0.0 0.0 0.0 0.0
155 1 26.1204861045 45.7158005954 0.0 0.0 0.0 0.0
156 1 29.1338861045 45.6627005954 0.0 0.0 0.0 0.0
157 1 34.0906861045 46.2892005954 0.0 0.0 0.0 0.0
158 1 39.4282861045 46.5166005954 0.0 0.0 0.0 0.0
159 1 44.8409861045 46.4749005954 0.0 0.0 0.0 0.0
160 1 50.1981861045 46.3126005954 0.0 0.0 0.0 0.0
161 1 55.4418861045 46.1163005954 0.0 0.0 0.0 0.0
162 1 60.5764861045 45.9779005954 0.0 0.0 0.0 0.0
163 1 65.6922861045 45.9419005954 0.0 0.0 0.0 0.0
164 1 70.8546861045 46.0260005954 0.0 0.0 0.0 0.0
165 1 76.0003861045 46.1931005954 0.0 0.0 0.0 0.0
166 1 0.271683104518 50.4035005954 0.0 0.0 0.0 0.0
167 1 5.53240610452 50.6380005954 0.0 0.0 0.0 0.0
168 1 10.7027861045 51.1305005954 0.0 0.0 0.0 0.0
169 1 15.7680861045 50.9416005954 0.0 0.0 0.0 0.0
170 1 21.1592861045 51.2128005954 0.0 0.0 0.0 0.0
171 1 26.1715861045 50.9864005954 0.0 0.0 0.0 0.0
172 1 31.2616861045 50.7016005954 0.0 0.0 0.0 0.0
173 1 36.5495861045 50.8264005954 0.0 0.0 0.0 0.0
174 1 42.0153861045 50.8288005954 0.0 0.0 0.0 0.0
175 1 47.4542861045 50.7742005954 0.0 0.0 0.0 0.0
176 1 52.8002861045 50.6996005954 0.0 0.0 0.0 0.0
177 1 58.0151861045 50.6267005954 0.0 0.0 0.0 0.0
178 1 63.1381861045 50.5502005954 0.0 0.0 0.0 0.0
179 1 68.3906861045 50.5266005954 0.0 0.0 0.0 0.0
180 1 73.7911861045 50.6247005954 0.0 0.0 0.0 0.0
181 1 2.81581610452 55.0219005954 0.0 0.0 0.0 0.0
182 1 7.96495610452 55.4465005954 0.0 0.0 0.0 0.0
183 1 13.0804861045 55.6762005954 0.0 0.0 0.0 0.0
184 1 18.3290861045 55.3654005954 0.0 0.0 0.0 0.0
185 1 23.8058861045 55.7426005954 0.0 0.0 0.0 0.0
186 1 28.7646861045 55.5199005954 0.0 0.0 0.0 0.0
187 1 33.8657861045 55.2646005954 0.0 0.0 0.0 0.0
188 1 39.3267861045 55.1258005954 0.0 0.0 0.0 0.0
189 1 44.7744861045 55.1135005954 0.0 0.0 0.0 0.0
190 1 50.1747861045 55.1358005954 0.0 0.0 0.0 0.0
191 1 55.4933861045 55.1814005954 0.0 0.0 0.0 0.0
192 1 60.6773861045 55.1837005954 0.0 0.0 0.0 0.0
193 1 65.7511861045 55.0136005954 0.0 0.0 0.0 0.0
194 1 71.2418861045 54.8991005954 0.0 0.0 0.0 0.0
195 1 76.5562861045 54.9245005954 0.0 0.0 0.0 0.0
196 1 0.0242611045175 59.5817005954 0.0 0.0 0.0 0.0
197 1 5.09106610452 59.8099005954 0.0 0.0 0.0 0.0
198 1 10.2723861045 60.1792005954 0.0 0.0 0.0 0.0
199 1 17.1718861045 59.6417005954 0.0 0.0 0.0 0.0
200 1 20.1757861045 59.6444005954 0.0 0.0 0.0 0.0
201 1 25.4624861045 60.2499005954 0.0 0.0 0.0 0.0
202 1 31.5421861045 60.0430005954 0.0 0.0 0.0 0.0
203 1 36.8577861045 59.4888005954 0.0 0.0 0.0 0.0
204 1 42.1769861045 59.4239005954 0.0 0.0 0.0 0.0
205 1 47.5559861045 59.4701005954 0.0 0.0 0.0 0.0
206 1 52.8975861045 59.5838005954 0.0 0.0 0.0 0.0
207 1 58.2145861045 59.7313005954 0.0 0.0 0.0 0.0
208 1 63.4301861045 59.7381005954 0.0 0.0 0.0 0.0
209 1 68.6310861045 59.1711005954 0.0 0.0 0.0 0.0
210 1 73.9259861045 59.3347005954 0.0 0.0 0.0 0.0
211 1 2.14677610452 64.3280005954 0.0 0.0 0.0 0.0
212 1 7.21025610452 64.5323005954 0.0 0.0 0.0 0.0
213 1 12.2108861045 65.0782005954 0.0 0.0 0.0 0.0
214 1 17.0921861045 64.8076005954 0.0 0.0 0.0 0.0
215 1 22.2953861045 64.3261005954 0.0 0.0 0.0 0.0
216 1 26.9285861045 62.8840005954 0.0 0.0 0.0 0.0
217 1 34.2006861045 64.1454005954 0.0 0.0 0.0 0.0
218 1 39.5175861045 63.8738005954 0.0 0.0 0.0 0.0
219 1 44.9457861045 63.8024005954 0.0 0.0 0.0 0.0
220 1 50.2207861045 63.9283005954 0.0 0.0 0.0 0.0
221 1 55.4404861045 64.0891005954 0.0 0.0 0.0 0.0
222 1 60.6532861045 64.2625005954 0.0 0.0 0.0 0.0
223 1 67.7260861045 63.5278005954 0.0 0.0 0.0 0.0
224 1 70.7390861045 63.6261005954 0.0 0.0 0.0 0.0
225 1 75.8758861045 64.1479005954 0.0 0.0 0.0 0.0
226 1 78.1285861045 68.8394005954 0.0 0.0 0.0 0.0
227 1 4.47422610452 69.0806005954 0.0 0.0 0.0 0.0
228 1 9.73459610452 69.4436005954 0.0 0.0 0.0 0.0
229 1 15.0549861045 69.6690005954 0.0 0.0 0.0 0.0
230 1 20.2454861045 69.0562005954 0.0 0.0 0.0 0.0
231 1 25.2462861045 68.3376005954 0.0 0.0 0.0 0.0
232 1 30.5937861045 68.1564005954 0.0 0.0 0.0 0.0
233 1 37.0246861045 68.4023005954 0.0 0.0 0.0 0.0
234 1 42.3980861045 68.1309005954 0.0 0.0 0.0 0.0
235 1 47.5154861045 68.3202005954 0.0 0.0 0.0 0.0
236 1 52.6725861045 68.5181005954 0.0 0.0 0.0 0.0
237 1 57.6681861045 68.6856005954 0.0 0.0 0.0 0.0
238 1 62.5555861045 69.0196005954 0.0 0.0 0.0 0.0
239 1 67.5311861045 68.6492005954 0.0 0.0 0.0 0.0
240 1 73.0283861045 68.4659005954 0.0 0.0 0.0 0.0
241 1 1.71684610452 73.5096005954 0.0 0.0 0.0 0.0
242 1 7.18060610452 73.7314005954 0.0 0.0 0.0 0.0
243 1 12.6098861045 73.9692005954 0.0 0.0 0.0 0.0
244 1 18.0425861045 73.8715005954 0.0 0.0 0.0 0.0
245 1 23.2502861045 73.3709005954 0.0 0.0 0.0 0.0
246 1 28.1593861045 72.6475005954 0.0 0.0 0.0 0.0
247 1 32.2507861045 70.6709005954 0.0 0.0 0.0 0.0
248 1 39.3642861045 72.5542005954 0.0 0.0 0.0 0.0
249 1 44.5247861045 72.7770005954 0.0 0.0 0.0 0.0
250 1 49.8656861045 72.9607005954 0.0 0.0 0.0 0.0
251 1 55.1325861045 73.2865005954 0.0 0.0 0.0 0.0
252 1 60.1250861045 73.5901005954 0.0 0.0 0.0 0.0
253 1 65.0540861045 73.4852005954 0.0 0.0 0.0 0.0
254 1 70.2665861045 72.7969005954 0.0 0.0 0.0 0.0
255 1 75.3042861045 73.2937005954 0.0 0.0 0.0 0.0
256 1 78.4792861045 3.19404059535 0.0 0.0 0.0 0.0
257 1 4.46108610452 3.08136059535 0.0 0.0 0.0 0.0
258 1 9.93098610452 3.07806059535 0.0 0.0 0.0 0.0
259 1 15.3901861045 3.31372059535 0.0 0.0 0.0 0.0
260 1 20.7138861045 3.15191059535 0.0 0.0 0.0 0.0
261 1 27.8444861045 4.83145059535 0.0 0.0 0.0 0.0
262 1 32.2902861045 3.91148059535 0.0 0.0 0.0 0.0
263 1 36.6433861045 2.51925059535 0.0 0.0 0.0 0.0
264 1 41.3357861045 1.88240059535 0.0 0.0 0.0 0.0
265 1 46.5915861045 2.25176059535 0.0 0.0 0.0 0.0
266 1 51.7231861045 2.50997059535 0.0 0.0 0.0 0.0
267 1 59.0451861045 4.40074059535 0.0 0.0 0.0 0.0
268 1 63.4649861045 3.47030059535 0.0 0.0 0.0 0.0
269 1 68.4366861045 3.62601059535 0.0 0.0 0.0 0.0
270 1 73.3905861045 4.03993059535 0.0 0.0 0.0 0.0
271 1 2.93393610452 5.68649059535 0.0 0.0 0.0 0.0
272 1 7.66818610452 8.06108059535 0.0 0.0 0.0 0.0
273 1 12.5341861045 7.57111059535 0.0 0.0 0.0 0.0
274 1 19.8150861045 8.97433059535 0.0 0.0 0.0 0.0
275 1 23.7916861045 6.95261059535 0.0 0.0 0.0 0.0
276 1 29.3376861045 7.44778059535 0.0 0.0 0.0 0.0
277 1 35.1471861045 7.74512059535 0.0 0.0 0.0 0.0
278 1 39.8660861045 6.89885059535 0.0 0.0 0.0 0.0
279 1 44.4506861045 6.60616059535 0.0 0.0 0.0 0.0
280 1 49.3346861045 7.22711059535 0.0 0.0 0.0 0.0
281 1 54.5504861045 6.65477059535 0.0 0.0 0.0 0.0
282 1 60.0474861045 7.24376059535 0.0 0.0 0.0 0.0
283 1 65.4855861045 8.13867059535 0.0 0.0 0.0 0.0
284 1 70.7343861045 8.22816059535 0.0 0.0 0.0 0.0
285 1 76.3978861045 7.99807059535 0.0 0.0 0.0 0.0
286 1 0.778860104518 12.1695005954 0.0 0.0 0.0 0.0
287 1 5.75177610452 12.7600005954 0.0 0.0 0.0 0.0
288 1 10.7350861045 12.5486005954 0.0 0.0 0.0 0.0
289 1 15.7087861045 11.7118005954 0.0 0.0 0.0 0.0
290 1 21.5231861045 11.4572005954 0.0 0.0 0.0 0.0
291 1 26.5174861045 11.7737005954 0.0 0.0 0.0 0.0
292 1 31.8645861045 11.8575005954 0.0 0.0 0.0 0.0
293 1 37.2245861045 12.2564005954 0.0 0.0 0.0 0.0
294 1 40.2313861045 12.1774005954 0.0 0.0 0.0 0.0
295 1 46.9440861045 11.4156005954 0.0 0.0 0.0 0.0
296 1 52.5687861045 11.3228005954 0.0 0.0 0.0 0.0
297 1 58.1545861045 9.63030059535 0.0 0.0 0.0 0.0
298 1 62.4472861045 12.8134005954 0.0 0.0 0.0 0.0
299 1 67.6455861045 12.5294005954 0.0 0.0 0.0 0.0
300 1 75.4154861045 13.5861005954 0.0 0.0 0.0 0.0
301 1 3.19399610452 17.0288005954 0.0 0.0 0.0 0.0
302 1 8.56039610452 17.1124005954 0.0 0.0 0.0 0.0
303 1 13.8834861045 16.6268005954 0.0 0.0 0.0 0.0
304 1 18.8059861045 16.1867005954 0.0 0.0 0.0 0.0
305 1 23.7185861045 16.2601005954 0.0 0.0 0.0 0.0
306 1 28.8198861045 16.4657005954 0.0 0.0 0.0 0.0
307 1 33.8258861045 16.4811005954 0.0 0.0 0.0 0.0
308 1 39.2620861045 16.3423005954 0.0 0.0 0.0 0.0
309 1 44.4836861045 16.1243005954 0.0 0.0 0.0 0.0
310 1 49.6879861045 15.8437005954 0.0 0.0 0.0 0.0
311 1 54.8814861045 16.0061005954 0.0 0.0 0.0 0.0
312 1 59.7773861045 16.9402005954 0.0 0.0 0.0 0.0
313 1 67.0714861045 18.2410005954 0.0 0.0 0.0 0.0
314 1 71.1694861045 16.1371005954 0.0 0.0 0.0 0.0
315 1 76.8923861045 16.2133005954 0.0 0.0 0.0 0.0
316 1 0.334875104518 21.1143005954 0.0 0.0 0.0 0.0
317 1 5.76937610452 21.4598005954 0.0 0.0 0.0 0.0
318 1 11.1976861045 21.3119005954 0.0 0.0 0.0 0.0
319 1 16.3705861045 20.9904005954 0.0 0.0 0.0 0.0
320 1 21.3067861045 20.8790005954 0.0 0.0 0.0 0.0
321 1 26.2861861045 21.0541005954 0.0 0.0 0.0 0.0
322 1 31.3052861045 21.2070005954 0.0 0.0 0.0 0.0
323 1 36.4641861045 20.7443005954 0.0 0.0 0.0 0.0
324 1 41.7175861045 20.7745005954 0.0 0.0 0.0 0.0
325 1 46.9408861045 20.5710005954 0.0 0.0 0.0 0.0
326 1 52.0648861045 20.3713005954 0.0 0.0 0.0 0.0
327 1 57.0625861045 21.0304005954 0.0 0.0 0.0 0.0
328 1 62.6422861045 21.0647005954 0.0 0.0 0.0 0.0
329 1 69.0935861045 20.4619005954 0.0 0.0 0.0 0.0
330 1 74.2566861045 20.7535005954 0.0 0.0 0.0 0.0
331 1 2.98552610452 25.7816005954 0.0 0.0 0.0 0.0
332 1 8.35750610452 25.8360005954 0.0 0.0 0.0 0.0
333 1 13.6448861045 25.6366005954 0.0 0.0 0.0 0.0
334 1 18.8016861045 25.4497005954 0.0 0.0 0.0 0.0
335 1 23.9363861045 25.4975005954 0.0 0.0 0.0 0.0
336 1 29.1500861045 25.6497005954 0.0 0.0 0.0 0.0
337 1 34.5629861045 25.3675005954 0.0 0.0 0.0 0.0
338 1 40.0672861045 23.3033005954 0.0 0.0 0.0 0.0
339 1 44.6299861045 25.5822005954 0.0 0.0 0.0 0.0
340 1 49.5115861045 25.0938005954 0.0 0.0 0.0 0.0
341 1 54.4654861045 25.0871005954 0.0 0.0 0.0 0.0
342 1 62.0369861045 26.5639005954 0.0 0.0 0.0 0.0
343 1 66.3736861045 24.9099005954 0.0 0.0 0.0 0.0
344 1 71.5144861045 25.1388005954 0.0 0.0 0.0 0.0
345 1 76.6586861045 25.4941005954 0.0 0.0 0.0 0.0
346 1 0.353807104518 30.1974005954 0.0 0.0 0.0 0.0
347 1 5.59075610452 30.3492005954 0.0 0.0 0.0 0.0
348 1 10.8628861045 30.2336005954 0.0 0.0 0.0 0.0
349 1 16.0826861045 30.0283005954 0.0 0.0 0.0 0.0
350 1 21.3273861045 29.8247005954 0.0 0.0 0.0 0.0
351 1 26.6496861045 30.0271005954 0.0 0.0 0.0 0.0
352 1 32.0466861045 29.9918005954 0.0 0.0 0.0 0.0
353 1 37.3558861045 29.6195005954 0.0 0.0 0.0 0.0
354 1 42.5545861045 30.1926005954 0.0 0.0 0.0 0.0
355 1 47.6698861045 30.0132005954 0.0 0.0 0.0 0.0
356 1 52.4319861045 29.7710005954 0.0 0.0 0.0 0.0
357 1 57.6690861045 29.1719005954 0.0 0.0 0.0 0.0
358 1 63.6532861045 29.1073005954 0.0 0.0 0.0 0.0
359 1 68.9079861045 29.5935005954 0.0 0.0 0.0 0.0
360 1 74.0335861045 29.8575005954 0.0 0.0 0.0 0.0
361 1 2.92201610452 34.8835005954 0.0 0.0 0.0 0.0
362 1 8.16735610452 34.8083005954 0.0 0.0 0.0 0.0
363 1 13.4038861045 34.6473005954 0.0 0.0 0.0 0.0
364 1 18.5315861045 34.5536005954 0.0 0.0 0.0 0.0
365 1 23.5744861045 34.2949005954 0.0 0.0 0.0 0.0
366 1 30.8895861045 35.6217005954 0.0 0.0 0.0 0.0
367 1 35.0853861045 34.2244005954 0.0 0.0 0.0 0.0
368 1 39.9578861045 34.4900005954 0.0 0.0 0.0 0.0
369 1 45.2667861045 34.6449005954 0.0 0.0 0.0 0.0
370 1 50.4374861045 34.4069005954 0.0 0.0 0.0 0.0
371 1 55.6758861045 33.9591005954 0.0 0.0 0.0 0.0
372 1 60.7331861045 33.6273005954 0.0 0.0 0.0 0.0
373 1 65.8636861045 33.7754005954 0.0 0.0 0.0 0.0
374 1 71.2511861045 34.0919005954 0.0 0.0 0.0 0.0
375 1 76.5481861045 34.4998005954 0.0 0.0 0.0 0.0
376 1 0.220216104518 39.2021005954 0.0 0.0 0.0 0.0
377 1 5.56155610452 39.4035005954 0.0 0.0 0.0 0.0
378 1 10.8847861045 39.0606005954 0.0 0.0 0.0 0.0
379 1 16.1384861045 39.1803005954 0.0 0.0 0.0 0.0
380 1 21.2175861045 39.1605005954 0.0 0.0 0.0 0.0
381 1 26.4330861045 38.1665005954 0.0 0.0 0.0 0.0
382 1 32.3149861045 38.2728005954 0.0 0.0 0.0 0.0
383 1 37.5029861045 39.0417005954 0.0 0.0 0.0 0.0
384 1 42.5840861045 39.1264005954 0.0 0.0 0.0 0.0
385 1 47.8674861045 39.0004005954 0.0 0.0 0.0 0.0
386 1 53.1245861045 38.7035005954 0.0 0.0 0.0 0.0
387 1 58.2371861045 38.4013005954 0.0 0.0 0.0 0.0
388 1 63.2175861045 38.2909005954 0.0 0.0 0.0 0.0
389 1 68.3906861045 38.3810005954 0.0 0.0 0.0 0.0
390 1 73.7466861045 38.5625005954 0.0 0.0 0.0 0.0
391 1 4.39617610452 44.9996005954 0.0 0.0 0.0 0.0
392 1 8.69138610452 43.5497005954 0.0 0.0 0.0 0.0
393 1 13.8641861045 43.5813005954 0.0 0.0 0.0 0.0
394 1 19.1531861045 43.6423005954 0.0 0.0 0.0 0.0
395 1 24.6135861045 43.1038005954 0.0 0.0 0.0 0.0
396 1 29.4705861045 42.6723005954 0.0 0.0 0.0 0.0
397 1 34.3813861045 43.2820005954 0.0 0.0 0.0 0.0
398 1 39.7155861045 43.5240005954 0.0 0.0 0.0 0.0
399 1 45.0630861045 43.4780005954 0.0 0.0 0.0 0.0
400 1 50.3862861045 43.3111005954 0.0 0.0 0.0 0.0
401 1 55.5945861045 43.1087005954 0.0 0.0 0.0 0.0
402 1 60.6595861045 42.9668005954 0.0 0.0 0.0 0.0
403 1 65.7015861045 42.9306005954 0.0 0.0 0.0 0.0
404 1 70.8114861045 43.0184005954 0.0 0.0 0.0 0.0
405 1 75.9404861045 43.1930005954 0.0 0.0 0.0 0.0
406 1 78.7437861045 47.4114005954 0.0 0.0 0.0 0.0
407 1 5.86121610452 47.6348005954 0.0 0.0 0.0 0.0
408 1 11.1959861045 48.1615005954 0.0 0.0 0.0 0.0
409 1 16.4171861045 48.0004005954 0.0 0.0 0.0 0.0
410 1 21.6781861045 48.2609005954 0.0 0.0 0.0 0.0
411 1 24.6934861045 48.3538005954 0.0 0.0 0.0 0.0
412 1 31.3978861045 47.6709005954 0.0 0.0 0.0 0.0
413 1 36.6994861045 47.8133005954 0.0 0.0 0.0 0.0
414 1 42.1425861045 47.8242005954 0.0 0.0 0.0 0.0
415 1 47.5586861045 47.7690005954 0.0 0.0 0.0 0.0
416 1 52.8727861045 47.6906005954 0.0 0.0 0.0 0.0
417 1 58.0500861045 47.6148005954 0.0 0.0 0.0 0.0
418 1 63.1449861045 47.5406005954 0.0 0.0 0.0 0.0
419 1 68.2504861045 47.5222005954 0.0 0.0 0.0 0.0
420 1 73.3840861045 47.6501005954 0.0 0.0 0.0 0.0
421 1 2.83792610452 51.9976005954 0.0 0.0 0.0 0.0
422 1 7.97581610452 52.4219005954 0.0 0.0 0.0 0.0
423 1 13.2901861045 52.6658005954 0.0 0.0 0.0 0.0
424 1 18.3982861045 52.3774005954 0.0 0.0 0.0 0.0
425 1 23.7411861045 52.7455005954 0.0 0.0 0.0 0.0
426 1 28.8041861045 52.4764005954 0.0 0.0 0.0 0.0
427 1 33.8696861045 52.2370005954 0.0 0.0 0.0 0.0
428 1 39.2828861045 52.1159005954 0.0 0.0 0.0 0.0
429 1 44.7480861045 52.1062005954 0.0 0.0 0.0 0.0
430 1 50.1465861045 52.1276005954 0.0 0.0 0.0 0.0
431 1 55.4291861045 52.1700005954 0.0 0.0 0.0 0.0
432 1 60.6006861045 52.1704005954 0.0 0.0 0.0 0.0
433 1 65.7693861045 52.0069005954 0.0 0.0 0.0 0.0
434 1 71.0703861045 51.9025005954 0.0 0.0 0.0 0.0
435 1 76.5190861045 51.9123005954 0.0 0.0 0.0 0.0
436 1 0.222931104518 56.5670005954 0.0 0.0 0.0 0.0
437 1 5.26353610452 56.7919005954 0.0 0.0 0.0 0.0
438 1 10.4530861045 57.1624005954 0.0 0.0 0.0 0.0
439 1 15.7964861045 56.9743005954 0.0 0.0 0.0 0.0
440 1 20.9831861045 56.7632005954 0.0 0.0 0.0 0.0
441 1 26.3467861045 57.3515005954 0.0 0.0 0.0 0.0
442 1 31.3921861045 57.0164005954 0.0 0.0 0.0 0.0
443 1 36.6312861045 56.4865005954 0.0 0.0 0.0 0.0
444 1 42.0556861045 56.4181005954 0.0 0.0 0.0 0.0
445 1 47.4706861045 56.4647005954 0.0 0.0 0.0 0.0
446 1 52.8233861045 56.5755005954 0.0 0.0 0.0 0.0
447 1 58.0869861045 56.7198005954 0.0 0.0 0.0 0.0
448 1 63.2697861045 56.7237005954 0.0 0.0 0.0 0.0
449 1 68.5226861045 56.1777005954 0.0 0.0 0.0 0.0
450 1 73.8933861045 56.3277005954 0.0 0.0 0.0 0.0
451 1 2.48076610452 61.3241005954 0.0 0.0 0.0 0.0
452 1 7.57061610452 61.5311005954 0.0 0.0 0.0 0.0
453 1 12.5999861045 62.1004005954 0.0 0.0 0.0 0.0
454 1 15.6074861045 62.1900005954 0.0 0.0 0.0 0.0
455 1 22.6488861045 61.3411005954 0.0 0.0 0.0 0.0
456 1 29.9267861045 62.6039005954 0.0 0.0 0.0 0.0
457 1 34.3419861045 61.1418005954 0.0 0.0 0.0 0.0
458 1 39.5341861045 60.8664005954 0.0 0.0 0.0 0.0
459 1 44.8565861045 60.7995005954 0.0 0.0 0.0 0.0
460 1 50.1980861045 60.9202005954 0.0 0.0 0.0 0.0
461 1 55.5170861045 61.0789005954 0.0 0.0 0.0 0.0
462 1 60.8212861045 61.2530005954 0.0 0.0 0.0 0.0
463 1 66.2019861045 60.9315005954 0.0 0.0 0.0 0.0
464 1 71.2363861045 60.6655005954 0.0 0.0 0.0 0.0
465 1 76.3155861045 61.1602005954 0.0 0.0 0.0 0.0
466 1 78.3836861045 65.8261005954 0.0 0.0 0.0 0.0
467 1 4.61247610452 66.0614005954 0.0 0.0 0.0 0.0
468 1 9.54011610452 66.4391005954 0.0 0.0 0.0 0.0
469 1 14.7518861045 66.6819005954 0.0 0.0 0.0 0.0
470 1 19.8334861045 66.0623005954 0.0 0.0 0.0 0.0
471 1 25.1334861045 65.3186005954 0.0 0.0 0.0 0.0
472 1 31.3993861045 65.2392005954 0.0 0.0 0.0 0.0
473 1 36.9242861045 65.4050005954 0.0 0.0 0.0 0.0
474 1 42.2508861045 65.1345005954 0.0 0.0 0.0 0.0
475 1 47.5497861045 65.3126005954 0.0 0.0 0.0 0.0
476 1 52.7845861045 65.5084005954 0.0 0.0 0.0 0.0
477 1 57.9942861045 65.6879005954 0.0 0.0 0.0 0.0
478 1 63.0634861045 66.0648005954 0.0 0.0 0.0 0.0
479 1 66.0707861045 66.0220005954 0.0 0.0 0.0 0.0
480 1 73.1477861045 65.4484005954 0.0 0.0 0.0 0.0
481 1 1.80008610452 70.4877005954 0.0 0.0 0.0 0.0
482 1 7.00988610452 70.7234005954 0.0 0.0 0.0 0.0
483 1 12.3410861045 70.9701005954 0.0 0.0 0.0 0.0
484 1 17.8254861045 70.8610005954 0.0 0.0 0.0 0.0
485 1 22.9809861045 70.3458005954 0.0 0.0 0.0 0.0
486 1 27.9643861045 69.6284005954 0.0 0.0 0.0 0.0
487 1 35.2415861045 70.8189005954 0.0 0.0 0.0 0.0
488 1 39.7751861045 69.5828005954 0.0 0.0 0.0 0.0
489 1 44.8955861045 69.7928005954 0.0 0.0 0.0 0.0
490 1 50.0346861045 69.9571005954 0.0 0.0 0.0 0.0
491 1 55.1157861045 70.2720005954 0.0 0.0 0.0 0.0
492 1 59.9978861045 70.5827005954 0.0 0.0 0.0 0.0
493 1 65.1648861045 70.4928005954 0.0 0.0 0.0 0.0
494 1 70.3186861045 69.7863005954 0.0 0.0 0.0 0.0
495 1 75.4595861045 70.2657005954 0.0 0.0 0.0 0.0
496 1 77.8774861045 74.8837005954 0.0 0.0 0.0 0.0
497 1 4.40190610452 74.9130005954 0.0 0.0 0.0 0.0
498 1 9.84228610452 75.1800005954 0.0 0.0 0.0 0.0
499 1 15.3520861045 75.2582005954 0.0 0.0 0.0 0.0
500 1 20.7928861045 75.1463005954 0.0 0.0 0.0 0.0
501 1 25.9620861045 74.7265005954 0.0 0.0 0.0 0.0
502 1 31.0706861045 73.4446005954 0.0 0.0 0.0 0.0
503 1 36.5240861045 73.5440005954 0.0 0.0 0.0 0.0
504 1 41.8683861045 74.1996005954 0.0 0.0 0.0 0.0
505 1 47.1444861045 74.2473005954 0.0 0.0 0.0 0.0
506 1 52.4120861045 74.5660005954 0.0 0.0 0.0 0.0
507 1 57.5348861045 75.1085005954 0.0 0.0 0.0 0.0
508 1 62.6318861045 75.2558005954 0.0 0.0 0.0 0.0
509 1 67.8404861045 74.5754005954 0.0 0.0 0.0 0.0
510 1 72.6119861045 74.6781005954 0.0 0.0 0.0 0.0
511 1 4.59749610452 77.9191005954 0.0 0.0 0.0 0.0
512 1 10.0039861045 78.1920005954 0.0 0.0 0.0 0.0
513 1 15.5108861045 78.2727005954 0.0 0.0 0.0 0.0
514 1 21.1077861045 78.1641005954 0.0 0.0 0.0 0.0
515 1 26.6684861045 77.6861005954 0.0 0.0 0.0 0.0
516 1 32.3812861045 76.1848005954 0.0 0.0 0.0 0.0
517 1 35.4887861045 76.3916005954 0.0 0.0 0.0 0.0
518 1 41.0846861045 77.1064005954 0.0 0.0 0.0 0.0
519 1 46.7391861045 77.2221005954 0.0 0.0 0.0 0.0
520 1 52.3502861045 77.5719005954 0.0 0.0 0.0 0.0
521 1 57.7628861045 78.1152005954 0.0 0.0 0.0 0.0
522 1 63.0379861045 78.2437005954 0.0 0.0 0.0 0.0
523 1 68.1683861045 77.5587005954 0.0 0.0 0.0 0.0
524 1 72.4326861045 80.0689005954 0.0 0.0 0.0 0.0
525 1 77.8286861045 77.9057005954 0.0 0.0 0.0 0.0
526 1 1.78272610452 79.0155005954 0.0 0.0 0.0 0.0
527 1 7.23358610452 79.4169005954 0.0 0.0 0.0 0.0
528 1 12.7383861045 79.5135005954 0.0 0.0 0.0 0.0
529 1 18.3232861045 79.4399005954 0.0 0.0 0.0 0.0
530 1 23.9794861045 79.2592005954 0.0 0.0 0.0 0.0
531 1 31.2062861045 80.5337005954 0.0 0.0 0.0 0.0
532 1 29.7856861045 77.8602005954 0.0 0.0 0.0 0.0
533 1 38.1511861045 77.9908005954 0.0 0.0 0.0 0.0
534 1 43.8944861045 78.2646005954 0.0 0.0 0.0 0.0
535 1 49.4765861045 78.4978005954 0.0 0.0 0.0 0.0
536 1 54.9300861045 79.1457005954 0.0 0.0 0.0 0.0
537 1 60.3687861045 79.6573005954 0.0 0.0 0.0 0.0
538 1 65.8121861045 79.4623005954 0.0 0.0 0.0 0.0
539 1 71.1761861045 77.3430005954 0.0 0.0 0.0 0.0
540 1 75.4350861045 79.7683005954 0.0 0.0 0.0 0.0
541 2 1.87856610452 80.5198005954 0.0 0.0 0.0 0.0
542 2 0.794164104518 2.26402059535 0.0 0.0 0.0 0.0
543 2 3.28582610452 2.13612059535 0.0 0.0 0.0 0.0
544 2 7.19747610452 0.28242059535 0.0 0.0 0.0 0.0
545 2 8.56410610452 2.43540059535 0.0 0.0 0.0 0.0
546 2 5.85920610452 2.50758059535 0.0 0.0 0.0 0.0
547 2 12.7263861045 0.38005059535 0.0 0.0 0.0 0.0
548 2 14.0446861045 2.61466059535 0.0 0.0 0.0 0.0
549 2 11.3192861045 2.48377059535 0.0 0.0 0.0 0.0
550 2 18.1649861045 0.30354059535 0.0 0.0 0.0 0.0
551 2 19.3525861045 2.50529059535 0.0 0.0 0.0 0.0
552 2 16.7014861045 2.55687059535 0.0 0.0 0.0 0.0
553 2 23.7174861045 0.13689259535 0.0 0.0 0.0 0.0
554 2 24.2226861045 2.83640059535 0.0 0.0 0.0 0.0
555 2 21.9707861045 2.30810059535 0.0 0.0 0.0 0.0
556 2 30.2625861045 1.08092059535 0.0 0.0 0.0 0.0
557 2 30.9426861045 3.27496059535 0.0 0.0 0.0 0.0
558 2 28.6549861045 3.56334059535 0.0 0.0 0.0 0.0
559 2 32.6503861045 0.41981059535 0.0 0.0 0.0 0.0
560 2 35.2897861045 1.83548059535 0.0 0.0 0.0 0.0
561 2 33.1886861045 2.72323059535 0.0 0.0 0.0 0.0
562 2 38.3838861045 79.5082005954 0.0 0.0 0.0 0.0
563 2 40.0624861045 1.07522059535 0.0 0.0 0.0 0.0
564 2 37.6888861045 1.43273059535 0.0 0.0 0.0 0.0
565 2 44.0047861045 79.7675005954 0.0 0.0 0.0 0.0
566 2 45.3138861045 1.45677059535 0.0 0.0 0.0 0.0
567 2 42.6919861045 1.23242059535 0.0 0.0 0.0 0.0
568 2 49.3591861045 79.9968005954 0.0 0.0 0.0 0.0
569 2 50.4802861045 1.67707059535 0.0 0.0 0.0 0.0
570 2 47.9005861045 1.51414059535 0.0 0.0 0.0 0.0
571 2 54.7826861045 0.000874595350494 0.0 0.0 0.0 0.0
572 2 55.3854861045 2.72260059535 0.0 0.0 0.0 0.0
573 2 53.1033861045 1.92891059535 0.0 0.0 0.0 0.0
574 2 60.5482861045 0.51503059535 0.0 0.0 0.0 0.0
575 2 62.1971861045 2.65469059535 0.0 0.0 0.0 0.0
576 2 59.8873861045 3.15687059535 0.0 0.0 0.0 0.0
577 2 65.9406861045 0.32567059535 0.0 0.0 0.0 0.0
578 2 67.2324861045 2.71236059535 0.0 0.0 0.0 0.0
579 2 64.7379861045 2.66286059535 0.0 0.0 0.0 0.0
580 2 71.6739861045 0.73767059535 0.0 0.0 0.0 0.0
581 2 72.1811861045 3.14973059535 0.0 0.0 0.0 0.0
582 2 69.7321861045 2.83644059535 0.0 0.0 0.0 0.0
583 2 75.6360861045 0.61824059535 0.0 0.0 0.0 0.0
584 2 77.0894861045 2.65244059535 0.0 0.0 0.0 0.0
585 2 74.5730861045 3.10647059535 0.0 0.0 0.0 0.0
586 2 78.5732861045 4.68535059535 0.0 0.0 0.0 0.0
587 2 1.46754610452 6.04079059535 0.0 0.0 0.0 0.0
588 2 77.6366861045 7.11897059535 0.0 0.0 0.0 0.0
589 2 6.16914610452 7.99229059535 0.0 0.0 0.0 0.0
590 2 3.81224610452 6.90009059535 0.0 0.0 0.0 0.0
591 2 4.00314610452 9.45380059535 0.0 0.0 0.0 0.0
592 2 9.90248610452 4.58860059535 0.0 0.0 0.0 0.0
593 2 11.2339861045 6.82608059535 0.0 0.0 0.0 0.0
594 2 8.74204610452 7.01808059535 0.0 0.0 0.0 0.0
595 2 15.3969861045 4.83156059535 0.0 0.0 0.0 0.0
596 2 16.1193861045 7.58708059535 0.0 0.0 0.0 0.0
597 2 13.8634861045 6.87907059535 0.0 0.0 0.0 0.0
598 2 20.7253861045 4.67062059535 0.0 0.0 0.0 0.0