ITEM: TIMESTEP
0
ITEM: NUMBER OF ATOMS
1350
ITEM: BOX BOUNDS xy xz yz pp pp pp
0.0 78.0684058698 0
0.0 81.4209529097 0
-10.0 10.0 0
ITEM: ATOMS id type x y z vx vy vz
1 1 2.63083071176 1.61944645486 0.0 0.0 0.0 0.0
2 1 7.85082071176 1.72649645486 0.0 0.0 0.0 0.0
3 1 12.9913407118 1.76541645486 0.0 0.0 0.0 0.0
4 1 18.0795407118 1.68956645486 0.0 0.0 0.0 0.0
5 1 23.1525407118 1.60993645486 0.0 0.0 0.0 0.0
6 1 28.2020407118 1.54344645486 0.0 0.0 0.0 0.0
7 1 33.3965407118 1.49351645486 0.0 0.0 0.0 0.0
8 1 38.6980407118 1.55585645486 0.0 0.0 0.0 0.0
9 1 44.1091407118 2.15022645486 0.0 0.0 0.0 0.0
10 1 49.9726407118 2.07544645486 0.0 0.0 0.0 0.0
11 1 55.0219407118 1.06652645486 0.0 0.0 0.0 0.0
12 1 60.2155407118 0.616796454859 0.0 0.0 0.0 0.0
13 1 65.1166407118 0.662316454859 0.0 0.0 0.0 0.0
14 1 70.1096407118 1.04785645486 0.0 0.0 0.0 0.0
15 1 75.3982407118 1.46841645486 0.0 0.0 0.0 0.0
16 1 77.9232407118 5.94379645486 0.0 0.0 0.0 0.0
17 1 5.08945071176 6.15526645486 0.0 0.0 0.0 0.0
18 1 10.2840407118 6.30780645486 0.0 0.0 0.0 0.0
19 1 15.3878407118 6.34061645486 0.0 0.0 0.0 0.0
20 1 20.5756407118 6.28408645486 0.0 0.0 0.0 0.0
21 1 25.7477407118 6.23227645486 0.0 0.0 0.0 0.0
22 1 30.7568407118 6.03864645486 0.0 0.0 0.0 0.0
23 1 36.1810407118 5.93165645486 0.0 0.0 0.0 0.0
24 1 41.3758407118 6.10349645486 0.0 0.0 0.0 0.0
25 1 45.6286407118 4.75865645486 0.0 0.0 0.0 0.0
26 1 52.8108407118 6.11402645486 0.0 0.0 0.0 0.0
27 1 57.8067407118 5.33145645486 0.0 0.0 0.0 0.0
28 1 62.8036407118 5.40108645486 0.0 0.0 0.0 0.0
29 1 67.4696407118 5.52595645486 0.0 0.0 0.0 0.0
30 1 72.6951407118 5.66305645486 0.0 0.0 0.0 0.0
31 1 2.06193071176 10.4978764549 0.0 0.0 0.0 0.0
32 1 7.46475071176 10.7414764549 0.0 0.0 0.0 0.0
33 1 12.5067407118 10.9200764549 0.0 0.0 0.0 0.0
34 1 17.7903407118 10.8482764549 0.0 0.0 0.0 0.0
35 1 23.2089407118 10.8173764549 0.0 0.0 0.0 0.0
36 1 28.5756407118 10.8150764549 0.0 0.0 0.0 0.0
37 1 33.7868407118 10.2499764549 0.0 0.0 0.0 0.0
38 1 39.1480407118 10.4885764549 0.0 0.0 0.0 0.0
39 1 44.2780407118 10.3832764549 0.0 0.0 0.0 0.0
40 1 49.5197407118 10.4122764549 0.0 0.0 0.0 0.0
41 1 56.8954407118 10.0197764549 0.0 0.0 0.0 0.0
42 1 59.9160407118 10.0173764549 0.0 0.0 0.0 0.0
43 1 65.0057407118 10.3926764549 0.0 0.0 0.0 0.0
44 1 70.0105407118 10.0678764549 0.0 0.0 0.0 0.0
45 1 75.1111407118 10.2665764549 0.0 0.0 0.0 0.0
46 1 76.9675407118 14.9834764549 0.0 0.0 0.0 0.0
47 1 4.27069071176 14.8902764549 0.0 0.0 0.0 0.0
48 1 9.43814071176 15.4678764549 0.0 0.0 0.0 0.0
49 1 14.8149407118 15.3340764549 0.0 0.0 0.0 0.0
50 1 20.2722407118 15.1617764549 0.0 0.0 0.0 0.0
51 1 25.8023407118 15.2120764549 0.0 0.0 0.0 0.0
52 1 33.0327407118 14.5144764549 0.0 0.0 0.0 0.0
53 1 36.0456407118 14.6959764549 0.0 0.0 0.0 0.0
54 1 41.2190407118 15.0146764549 0.0 0.0 0.0 0.0
55 1 46.4368407118 14.9288764549 0.0 0.0 0.0 0.0
56 1 51.3896407118 15.2984764549 0.0 0.0 0.0 0.0
57 1 56.3593407118 14.8868764549 0.0 0.0 0.0 0.0
58 1 62.2455407118 14.8536764549 0.0 0.0 0.0 0.0
59 1 69.0103407118 14.5864764549 0.0 0.0 0.0 0.0
60 1 72.0270407118 14.7102764549 0.0 0.0 0.0 0.0
61 1 1.88234071176 19.2821764549 0.0 0.0 0.0 0.0
62 1 6.56266071176 21.6799764549 0.0 0.0 0.0 0.0
63 1 12.0502407118 19.8021764549 0.0 0.0 0.0 0.0
64 1 17.4390407118 19.5486764549 0.0 0.0 0.0 0.0
65 1 22.6284407118 19.3871764549 0.0 0.0 0.0 0.0
66 1 27.8309407118 19.7213764549 0.0 0.0 0.0 0.0
67 1 33.0555407118 19.5406764549 0.0 0.0 0.0 0.0
68 1 38.3091407118 19.4473764549 0.0 0.0 0.0 0.0
69 1 43.5814407118 19.5246764549 0.0 0.0 0.0 0.0
70 1 48.9513407118 19.8561764549 0.0 0.0 0.0 0.0
71 1 53.8336407118 19.7912764549 0.0 0.0 0.0 0.0
72 1 59.0726407118 18.5835764549 0.0 0.0 0.0 0.0
73 1 64.0369407118 19.9048764549 0.0 0.0 0.0 0.0
74 1 69.0848407118 19.8092764549 0.0 0.0 0.0 0.0
75 1 74.5854407118 19.6109764549 0.0 0.0 0.0 0.0
76 1 77.6236407118 23.9050764549 0.0 0.0 0.0 0.0
77 1 5.00043071176 24.2623764549 0.0 0.0 0.0 0.0
78 1 10.0516407118 24.5110764549 0.0 0.0 0.0 0.0
79 1 15.1499407118 24.0166764549 0.0 0.0 0.0 0.0
80 1 20.3236407118 23.9908764549 0.0 0.0 0.0 0.0
81 1 25.2924407118 24.0243764549 0.0 0.0 0.0 0.0
82 1 30.5318407118 24.0806764549 0.0 0.0 0.0 0.0
83 1 35.6887407118 24.0455764549 0.0 0.0 0.0 0.0
84 1 40.8447407118 24.0127764549 0.0 0.0 0.0 0.0
85 1 46.1373407118 24.0874764549 0.0 0.0 0.0 0.0
86 1 51.5725407118 24.6541764549 0.0 0.0 0.0 0.0
87 1 58.8119407118 22.6512764549 0.0 0.0 0.0 0.0
88 1 61.3255407118 26.3945764549 0.0 0.0 0.0 0.0
89 1 66.9823407118 24.5118764549 0.0 0.0 0.0 0.0
90 1 72.2680407118 24.0510764549 0.0 0.0 0.0 0.0
91 1 2.36439071176 28.4379764549 0.0 0.0 0.0 0.0
92 1 7.54802071176 29.0058764549 0.0 0.0 0.0 0.0
93 1 12.7322407118 28.8244764549 0.0 0.0 0.0 0.0
94 1 17.9747407118 28.5269764549 0.0 0.0 0.0 0.0
95 1 23.4176407118 28.6391764549 0.0 0.0 0.0 0.0
96 1 28.5003407118 28.4420764549 0.0 0.0 0.0 0.0
97 1 33.0289407118 30.7639764549 0.0 0.0 0.0 0.0
98 1 38.4166407118 28.6420764549 0.0 0.0 0.0 0.0
99 1 43.7352407118 28.5196764549 0.0 0.0 0.0 0.0
100 1 48.9924407118 28.6487764549 0.0 0.0 0.0 0.0
101 1 53.2253407118 27.2126764549 0.0 0.0 0.0 0.0
102 1 60.2429407118 29.1965764549 0.0 0.0 0.0 0.0
103 1 65.0795407118 28.8447764549 0.0 0.0 0.0 0.0
104 1 70.0186407118 28.7949764549 0.0 0.0 0.0 0.0
105 1 75.2170407118 28.4476764549 0.0 0.0 0.0 0.0
106 1 0.152889711758 32.9758764549 0.0 0.0 0.0 0.0
107 1 5.28416071176 33.2123764549 0.0 0.0 0.0 0.0
108 1 10.4431407118 33.4372764549 0.0 0.0 0.0 0.0
109 1 15.4316407118 33.1384764549 0.0 0.0 0.0 0.0
110 1 20.7399407118 32.8573764549 0.0 0.0 0.0 0.0
111 1 25.9811407118 33.1959764549 0.0 0.0 0.0 0.0
112 1 31.4262407118 33.3212764549 0.0 0.0 0.0 0.0
113 1 36.5949407118 33.4582764549 0.0 0.0 0.0 0.0
114 1 41.6830407118 32.9823764549 0.0 0.0 0.0 0.0
115 1 46.8590407118 33.0302764549 0.0 0.0 0.0 0.0
116 1 52.2560407118 32.8803764549 0.0 0.0 0.0 0.0
117 1 57.5332407118 33.4719764549 0.0 0.0 0.0 0.0
118 1 62.9762407118 33.7326764549 0.0 0.0 0.0 0.0
119 1 67.8336407118 35.4122764549 0.0 0.0 0.0 0.0
120 1 73.0602407118 33.1592764549 0.0 0.0 0.0 0.0
121 1 3.14925071176 37.6461764549 0.0 0.0 0.0 0.0
122 1 8.30340071176 37.8531764549 0.0 0.0 0.0 0.0
123 1 13.5329407118 37.9342764549 0.0 0.0 0.0 0.0
124 1 18.6539407118 37.3500764549 0.0 0.0 0.0 0.0
125 1 23.1543407118 39.6694764549 0.0 0.0 0.0 0.0
126 1 28.6047407118 37.6005764549 0.0 0.0 0.0 0.0
127 1 34.0818407118 37.9094764549 0.0 0.0 0.0 0.0
128 1 39.4073407118 37.7927764549 0.0 0.0 0.0 0.0
129 1 44.4280407118 37.5639764549 0.0 0.0 0.0 0.0
130 1 49.3488407118 37.3441764549 0.0 0.0 0.0 0.0
131 1 54.5788407118 37.7070764549 0.0 0.0 0.0 0.0
132 1 60.6683407118 37.9523764549 0.0 0.0 0.0 0.0
133 1 66.2592407118 37.9694764549 0.0 0.0 0.0 0.0
134 1 71.1996407118 38.1588764549 0.0 0.0 0.0 0.0
135 1 76.1649407118 37.6053764549 0.0 0.0 0.0 0.0
136 1 0.755030711758 42.2603764549 0.0 0.0 0.0 0.0
137 1 5.95859071176 42.3069764549 0.0 0.0 0.0 0.0
138 1 11.1432407118 42.4124764549 0.0 0.0 0.0 0.0
139 1 16.2909407118 42.2427764549 0.0 0.0 0.0 0.0
140 1 21.6419407118 42.2834764549 0.0 0.0 0.0 0.0
141 1 26.5388407118 42.3454764549 0.0 0.0 0.0 0.0
142 1 31.8785407118 41.9430764549 0.0 0.0 0.0 0.0
143 1 37.1091407118 42.2264764549 0.0 0.0 0.0 0.0
144 1 42.1060407118 42.3350764549 0.0 0.0 0.0 0.0
145 1 46.9498407118 42.2103764549 0.0 0.0 0.0 0.0
146 1 51.8098407118 42.0083764549 0.0 0.0 0.0 0.0
147 1 56.0202407118 40.3778764549 0.0 0.0 0.0 0.0
148 1 63.2670407118 42.0781764549 0.0 0.0 0.0 0.0
149 1 68.4210407118 42.7397764549 0.0 0.0 0.0 0.0
150 1 73.6664407118 42.5232764549 0.0 0.0 0.0 0.0
151 1 3.23273071176 46.7976764549 0.0 0.0 0.0 0.0
152 1 8.56275071176 46.9220764549 0.0 0.0 0.0 0.0
153 1 13.5882407118 46.9388764549 0.0 0.0 0.0 0.0
154 1 18.8169407118 46.6891764549 0.0 0.0 0.0 0.0
155 1 24.1988407118 47.0437764549 0.0 0.0 0.0 0.0
156 1 29.4168407118 46.4515764549 0.0 0.0 0.0 0.0
157 1 34.7673407118 46.5260764549 0.0 0.0 0.0 0.0
158 1 39.7260407118 46.9552764549 0.0 0.0 0.0 0.0
159 1 44.6154407118 47.0773764549 0.0 0.0 0.0 0.0
160 1 49.5533407118 46.8959764549 0.0 0.0 0.0 0.0
161 1 54.7588407118 46.1061764549 0.0 0.0 0.0 0.0
162 1 60.0982407118 46.1413764549 0.0 0.0 0.0 0.0
163 1 65.3850407118 46.8835764549 0.0 0.0 0.0 0.0
164 1 70.7691407118 47.0649764549 0.0 0.0 0.0 0.0
165 1 76.0722407118 46.9142764549 0.0 0.0 0.0 0.0
166 1 0.392506711758 51.3324764549 0.0 0.0 0.0 0.0
167 1 5.39720071176 51.2305764549 0.0 0.0 0.0 0.0
168 1 10.5941407118 51.6134764549 0.0 0.0 0.0 0.0
169 1 16.3946407118 51.3372764549 0.0 0.0 0.0 0.0
170 1 21.7924407118 51.1819764549 0.0 0.0 0.0 0.0
171 1 28.6002407118 50.7063764549 0.0 0.0 0.0 0.0
172 1 31.5965407118 50.7750764549 0.0 0.0 0.0 0.0
173 1 36.8541407118 51.4080764549 0.0 0.0 0.0 0.0
174 1 41.9984407118 51.7956764549 0.0 0.0 0.0 0.0
175 1 46.9380407118 51.7427764549 0.0 0.0 0.0 0.0
176 1 52.1367407118 51.0057764549 0.0 0.0 0.0 0.0
177 1 57.5505407118 50.5591764549 0.0 0.0 0.0 0.0
178 1 62.6934407118 50.9153764549 0.0 0.0 0.0 0.0
179 1 67.9183407118 51.3164764549 0.0 0.0 0.0 0.0
180 1 73.2497407118 51.3953764549 0.0 0.0 0.0 0.0
181 1 2.87837071176 55.9505764549 0.0 0.0 0.0 0.0
182 1 7.82841071176 55.9118764549 0.0 0.0 0.0 0.0
183 1 11.8832407118 54.3460764549 0.0 0.0 0.0 0.0
184 1 19.0068407118 55.5561764549 0.0 0.0 0.0 0.0
185 1 23.8507407118 56.1312764549 0.0 0.0 0.0 0.0
186 1 28.4261407118 55.9119764549 0.0 0.0 0.0 0.0
187 1 33.6556407118 55.4665764549 0.0 0.0 0.0 0.0
188 1 38.7121407118 56.1195764549 0.0 0.0 0.0 0.0
189 1 43.9489407118 56.5194764549 0.0 0.0 0.0 0.0
190 1 49.8023407118 55.8994764549 0.0 0.0 0.0 0.0
191 1 55.3209407118 55.0755764549 0.0 0.0 0.0 0.0
192 1 60.2991407118 55.3033764549 0.0 0.0 0.0 0.0
193 1 65.1903407118 55.6087764549 0.0 0.0 0.0 0.0
194 1 70.4818407118 55.7493764549 0.0 0.0 0.0 0.0
195 1 75.8375407118 55.8574764549 0.0 0.0 0.0 0.0
196 1 0.370973711758 60.4927764549 0.0 0.0 0.0 0.0
197 1 5.68035071176 60.6298764549 0.0 0.0 0.0 0.0
198 1 10.8831407118 60.1096764549 0.0 0.0 0.0 0.0
199 1 15.9791407118 59.6036764549 0.0 0.0 0.0 0.0
200 1 21.2433407118 60.5425764549 0.0 0.0 0.0 0.0
201 1 26.4230407118 60.9319764549 0.0 0.0 0.0 0.0
202 1 31.4650407118 60.1068764549 0.0 0.0 0.0 0.0
203 1 35.7980407118 62.6699764549 0.0 0.0 0.0 0.0
204 1 41.2124407118 60.8013764549 0.0 0.0 0.0 0.0
205 1 45.4679407118 59.1384764549 0.0 0.0 0.0 0.0
206 1 52.8050407118 59.5684764549 0.0 0.0 0.0 0.0
207 1 57.8692407118 59.8811764549 0.0 0.0 0.0 0.0
208 1 62.5255407118 60.2206764549 0.0 0.0 0.0 0.0
209 1 67.6178407118 60.1087764549 0.0 0.0 0.0 0.0
210 1 73.2424407118 60.1637764549 0.0 0.0 0.0 0.0
211 1 2.82101071176 64.9943764549 0.0 0.0 0.0 0.0
212 1 8.22840071176 64.9005764549 0.0 0.0 0.0 0.0
213 1 15.0537407118 64.0921764549 0.0 0.0 0.0 0.0
214 1 18.0569407118 64.4042764549 0.0 0.0 0.0 0.0
215 1 23.3605407118 65.2197764549 0.0 0.0 0.0 0.0
216 1 28.8327407118 65.0867764549 0.0 0.0 0.0 0.0
217 1 34.2559407118 65.2590764549 0.0 0.0 0.0 0.0
218 1 39.3313407118 65.5761764549 0.0 0.0 0.0 0.0
219 1 44.4651407118 64.8403764549 0.0 0.0 0.0 0.0
220 1 51.1542407118 63.9181764549 0.0 0.0 0.0 0.0
221 1 54.1625407118 64.1047764549 0.0 0.0 0.0 0.0
222 1 59.3546407118 64.8925764549 0.0 0.0 0.0 0.0
223 1 65.0797407118 64.7790764549 0.0 0.0 0.0 0.0
224 1 70.5428407118 64.1793764549 0.0 0.0 0.0 0.0
225 1 75.6638407118 64.8511764549 0.0 0.0 0.0 0.0
226 1 77.9883407118 69.4242764549 0.0 0.0 0.0 0.0
227 1 5.18104071176 69.2861764549 0.0 0.0 0.0 0.0
228 1 10.2679407118 69.6744764549 0.0 0.0 0.0 0.0
229 1 15.1882407118 69.3537764549 0.0 0.0 0.0 0.0
230 1 20.5219407118 69.2210764549 0.0 0.0 0.0 0.0
231 1 25.8491407118 69.4397764549 0.0 0.0 0.0 0.0
232 1 31.1631407118 69.4912764549 0.0 0.0 0.0 0.0
233 1 36.4707407118 70.0079764549 0.0 0.0 0.0 0.0
234 1 41.6957407118 69.7293764549 0.0 0.0 0.0 0.0
235 1 46.5671407118 69.7356764549 0.0 0.0 0.0 0.0
236 1 51.2395407118 69.3060764549 0.0 0.0 0.0 0.0
237 1 56.4159407118 68.9593764549 0.0 0.0 0.0 0.0
238 1 60.8287407118 67.5256764549 0.0 0.0 0.0 0.0
239 1 68.2729407118 68.6282764549 0.0 0.0 0.0 0.0
240 1 72.5317407118 71.2618764549 0.0 0.0 0.0 0.0
241 1 2.77037071176 73.8216764549 0.0 0.0 0.0 0.0
242 1 7.83309071176 74.0503764549 0.0 0.0 0.0 0.0
243 1 12.9965407118 74.2182764549 0.0 0.0 0.0 0.0
244 1 18.0906407118 73.7176764549 0.0 0.0 0.0 0.0
245 1 23.1774407118 73.7723764549 0.0 0.0 0.0 0.0
246 1 28.3672407118 73.9041764549 0.0 0.0 0.0 0.0
247 1 33.6583407118 74.1454764549 0.0 0.0 0.0 0.0
248 1 39.0347407118 74.3621764549 0.0 0.0 0.0 0.0
249 1 44.2572407118 74.4974764549 0.0 0.0 0.0 0.0
250 1 49.2704407118 74.3965764549 0.0 0.0 0.0 0.0
251 1 54.4078407118 73.6477764549 0.0 0.0 0.0 0.0
252 1 59.7724407118 73.0399764549 0.0 0.0 0.0 0.0
253 1 65.2406407118 72.9751764549 0.0 0.0 0.0 0.0
254 1 70.6934407118 73.6467764549 0.0 0.0 0.0 0.0
255 1 75.7652407118 74.1658764549 0.0 0.0 0.0 0.0
256 1 78.0083407118 2.94793645486 0.0 0.0 0.0 0.0
257 1 5.20968071176 3.15491645486 0.0 0.0 0.0 0.0
258 1 10.4081407118 3.30361645486 0.0 0.0 0.0 0.0
259 1 15.5559407118 3.33215645486 0.0 0.0 0.0 0.0
260 1 20.6394407118 3.26881645486 0.0 0.0 0.0 0.0
261 1 25.6997407118 3.21545645486 0.0 0.0 0.0 0.0
262 1 30.8120407118 3.03185645486 0.0 0.0 0.0 0.0
263 1 36.0333407118 2.93454645486 0.0 0.0 0.0 0.0
264 1 41.2666407118 3.10670645486 0.0 0.0 0.0 0.0
265 1 48.6298407118 4.78511645486 0.0 0.0 0.0 0.0
266 1 52.7979407118 3.09604645486 0.0 0.0 0.0 0.0
267 1 57.7445407118 2.32717645486 0.0 0.0 0.0 0.0
268 1 62.6528407118 2.38472645486 0.0 0.0 0.0 0.0
269 1 67.4887407118 2.51313645486 0.0 0.0 0.0 0.0
270 1 72.6459407118 2.66233645486 0.0 0.0 0.0 0.0
271 1 2.40956071176 7.51511645486 0.0 0.0 0.0 0.0
272 1 7.64180071176 7.74074645486 0.0 0.0 0.0 0.0
273 1 12.8205407118 7.92097645486 0.0 0.0 0.0 0.0
274 1 17.9942407118 7.84198645486 0.0 0.0 0.0 0.0
275 1 23.1775407118 7.80281645486 0.0 0.0 0.0 0.0
276 1 28.3197407118 7.80614645486 0.0 0.0 0.0 0.0
277 1 33.4963407118 7.26891645486 0.0 0.0 0.0 0.0
278 1 38.7357407118 7.51571645486 0.0 0.0 0.0 0.0
279 1 44.1021407118 7.36162645486 0.0 0.0 0.0 0.0
280 1 50.1000407118 7.42961645486 0.0 0.0 0.0 0.0
281 1 55.5630407118 7.32070645486 0.0 0.0 0.0 0.0
282 1 60.2828407118 7.02833645486 0.0 0.0 0.0 0.0
283 1 65.0883407118 7.36465645486 0.0 0.0 0.0 0.0
284 1 70.0455407118 7.06633645486 0.0 0.0 0.0 0.0
285 1 75.2315407118 7.26894645486 0.0 0.0 0.0 0.0
286 1 77.5379407118 12.0265764549 0.0 0.0 0.0 0.0
287 1 4.70109071176 11.9233764549 0.0 0.0 0.0 0.0
288 1 9.91924071176 12.4831764549 0.0 0.0 0.0 0.0
289 1 15.1611407118 12.3397764549 0.0 0.0 0.0 0.0
290 1 20.5033407118 12.1623764549 0.0 0.0 0.0 0.0
291 1 25.8936407118 12.2023764549 0.0 0.0 0.0 0.0
292 1 31.3556407118 12.0079764549 0.0 0.0 0.0 0.0
293 1 36.4122407118 11.7188764549 0.0 0.0 0.0 0.0
294 1 41.7354407118 12.0310764549 0.0 0.0 0.0 0.0
295 1 46.8819407118 11.9202764549 0.0 0.0 0.0 0.0
296 1 51.8673407118 12.3228764549 0.0 0.0 0.0 0.0
297 1 54.8878407118 12.2575764549 0.0 0.0 0.0 0.0
298 1 62.3454407118 11.8274764549 0.0 0.0 0.0 0.0
299 1 67.6301407118 11.8963764549 0.0 0.0 0.0 0.0
300 1 72.5028407118 11.7427764549 0.0 0.0 0.0 0.0
301 1 1.60480071176 16.2908764549 0.0 0.0 0.0 0.0
302 1 6.66377071176 16.7042764549 0.0 0.0 0.0 0.0
303 1 12.1557407118 16.7878764549 0.0 0.0 0.0 0.0
304 1 17.5809407118 16.5423764549 0.0 0.0 0.0 0.0
305 1 23.0217407118 16.4055764549 0.0 0.0 0.0 0.0
306 1 28.3846407118 16.7800764549 0.0 0.0 0.0 0.0
307 1 31.3977407118 17.0179764549 0.0 0.0 0.0 0.0
308 1 38.5298407118 16.4248764549 0.0 0.0 0.0 0.0
309 1 43.8457407118 16.5066764549 0.0 0.0 0.0 0.0
310 1 48.7933407118 16.8276764549 0.0 0.0 0.0 0.0
311 1 54.0099407118 16.7825764549 0.0 0.0 0.0 0.0
312 1 59.3037407118 15.5925764549 0.0 0.0 0.0 0.0
313 1 64.4978407118 16.9187764549 0.0 0.0 0.0 0.0
314 1 67.5232407118 17.1998764549 0.0 0.0 0.0 0.0
315 1 74.4039407118 16.5832764549 0.0 0.0 0.0 0.0
316 1 77.3621407118 20.8807764549 0.0 0.0 0.0 0.0
317 1 4.91367071176 19.1753764549 0.0 0.0 0.0 0.0
318 1 9.58034071176 21.5478764549 0.0 0.0 0.0 0.0
319 1 14.8103407118 21.0249764549 0.0 0.0 0.0 0.0
320 1 20.0827407118 20.9887764549 0.0 0.0 0.0 0.0
321 1 25.1370407118 21.0322764549 0.0 0.0 0.0 0.0
322 1 30.4952407118 21.0973764549 0.0 0.0 0.0 0.0
323 1 35.7078407118 21.0064764549 0.0 0.0 0.0 0.0
324 1 40.9196407118 20.9825764549 0.0 0.0 0.0 0.0
325 1 46.1834407118 21.0705764549 0.0 0.0 0.0 0.0
326 1 51.4288407118 21.6162764549 0.0 0.0 0.0 0.0
327 1 56.7530407118 20.4794764549 0.0 0.0 0.0 0.0
328 1 61.1451407118 20.7526764549 0.0 0.0 0.0 0.0
329 1 66.5971407118 21.5192764549 0.0 0.0 0.0 0.0
330 1 71.8899407118 21.0306764549 0.0 0.0 0.0 0.0
331 1 2.19797071176 25.4102764549 0.0 0.0 0.0 0.0
332 1 7.44682071176 26.0086764549 0.0 0.0 0.0 0.0
333 1 12.7489407118 25.8219764549 0.0 0.0 0.0 0.0
334 1 17.7469407118 25.5290764549 0.0 0.0 0.0 0.0
335 1 22.8063407118 25.6918764549 0.0 0.0 0.0 0.0
336 1 27.8960407118 25.5074764549 0.0 0.0 0.0 0.0
337 1 33.1012407118 25.6198764549 0.0 0.0 0.0 0.0
338 1 38.2767407118 25.6161764549 0.0 0.0 0.0 0.0
339 1 43.4752407118 25.5109764549 0.0 0.0 0.0 0.0
340 1 48.7273407118 25.6469764549 0.0 0.0 0.0 0.0
341 1 56.2096407118 27.7029764549 0.0 0.0 0.0 0.0
342 1 58.4183407118 25.6222764549 0.0 0.0 0.0 0.0
343 1 64.3180407118 25.9472764549 0.0 0.0 0.0 0.0
344 1 69.7548407118 25.7669764549 0.0 0.0 0.0 0.0
345 1 74.9913407118 25.4194764549 0.0 0.0 0.0 0.0
346 1 77.8348407118 29.9749764549 0.0 0.0 0.0 0.0
347 1 4.80484071176 30.2325764549 0.0 0.0 0.0 0.0
348 1 10.1947407118 30.4389764549 0.0 0.0 0.0 0.0
349 1 15.4332407118 30.1363764549 0.0 0.0 0.0 0.0
350 1 20.6713407118 29.8619764549 0.0 0.0 0.0 0.0
351 1 26.0244407118 30.1730764549 0.0 0.0 0.0 0.0
352 1 31.5105407118 28.1854764549 0.0 0.0 0.0 0.0
353 1 36.0382407118 30.5104764549 0.0 0.0 0.0 0.0
354 1 41.1161407118 30.0165764549 0.0 0.0 0.0 0.0
355 1 46.3367407118 30.0621764549 0.0 0.0 0.0 0.0
356 1 51.7564407118 29.8691764549 0.0 0.0 0.0 0.0
357 1 57.5061407118 30.4349764549 0.0 0.0 0.0 0.0
358 1 62.7729407118 30.7553764549 0.0 0.0 0.0 0.0
359 1 67.5431407118 30.5343764549 0.0 0.0 0.0 0.0
360 1 72.7204407118 30.1540764549 0.0 0.0 0.0 0.0
361 1 2.65676071176 34.6698764549 0.0 0.0 0.0 0.0
362 1 7.80651071176 34.8777764549 0.0 0.0 0.0 0.0
363 1 13.0415407118 34.9600764549 0.0 0.0 0.0 0.0
364 1 18.1555407118 34.3919764549 0.0 0.0 0.0 0.0
365 1 23.2500407118 34.5071764549 0.0 0.0 0.0 0.0
366 1 28.6705407118 34.5790764549 0.0 0.0 0.0 0.0
367 1 33.9693407118 34.9185764549 0.0 0.0 0.0 0.0
368 1 39.2844407118 34.7919764549 0.0 0.0 0.0 0.0
369 1 44.2605407118 34.5526764549 0.0 0.0 0.0 0.0
370 1 49.5891407118 34.3306764549 0.0 0.0 0.0 0.0
371 1 54.7377407118 34.6650764549 0.0 0.0 0.0 0.0
372 1 60.1987407118 34.9640764549 0.0 0.0 0.0 0.0
373 1 65.9405407118 33.1055764549 0.0 0.0 0.0 0.0
374 1 70.8286407118 35.1834764549 0.0 0.0 0.0 0.0
375 1 75.7008407118 34.6236764549 0.0 0.0 0.0 0.0
376 1 0.613110711758 39.2530764549 0.0 0.0 0.0 0.0
377 1 5.66996071176 39.3050764549 0.0 0.0 0.0 0.0
378 1 10.8994407118 39.4043764549 0.0 0.0 0.0 0.0
379 1 16.2720407118 39.2176764549 0.0 0.0 0.0 0.0
380 1 21.6611407118 37.0757764549 0.0 0.0 0.0 0.0
381 1 26.1550407118 39.3739764549 0.0 0.0 0.0 0.0
382 1 31.2823407118 39.0003764549 0.0 0.0 0.0 0.0
383 1 36.7784407118 39.2439764549 0.0 0.0 0.0 0.0
384 1 41.9931407118 39.3260764549 0.0 0.0 0.0 0.0
385 1 46.9624407118 39.1873764549 0.0 0.0 0.0 0.0
386 1 51.8587407118 38.9944764549 0.0 0.0 0.0 0.0
387 1 59.0243407118 40.4846764549 0.0 0.0 0.0 0.0
388 1 63.4611407118 39.0749764549 0.0 0.0 0.0 0.0
389 1 68.6587407118 39.7571764549 0.0 0.0 0.0 0.0
390 1 73.8592407118 39.5280764549 0.0 0.0 0.0 0.0
391 1 3.34261071176 43.7928764549 0.0 0.0 0.0 0.0
392 1 8.52259071176 43.9021764549 0.0 0.0 0.0 0.0
393 1 13.7649407118 43.9147764549 0.0 0.0 0.0 0.0
394 1 18.9531407118 43.6668764549 0.0 0.0 0.0 0.0
395 1 24.0685407118 44.0489764549 0.0 0.0 0.0 0.0
396 1 29.3079407118 43.4700764549 0.0 0.0 0.0 0.0
397 1 34.4216407118 43.5455764549 0.0 0.0 0.0 0.0
398 1 39.5734407118 43.9473764549 0.0 0.0 0.0 0.0
399 1 44.5715407118 44.0562764549 0.0 0.0 0.0 0.0
400 1 49.4519407118 43.8782764549 0.0 0.0 0.0 0.0
401 1 54.6203407118 43.0700764549 0.0 0.0 0.0 0.0
402 1 60.4560407118 43.1400764549 0.0 0.0 0.0 0.0
403 1 65.6547407118 43.8971764549 0.0 0.0 0.0 0.0
404 1 71.0986407118 44.0846764549 0.0 0.0 0.0 0.0
405 1 76.3181407118 43.9222764549 0.0 0.0 0.0 0.0
406 1 0.647210711758 48.3389764549 0.0 0.0 0.0 0.0
407 1 5.86023071176 48.2593764549 0.0 0.0 0.0 0.0
408 1 11.0660407118 48.6164764549 0.0 0.0 0.0 0.0
409 1 16.2689407118 48.3212764549 0.0 0.0 0.0 0.0
410 1 21.4290407118 48.2020764549 0.0 0.0 0.0 0.0
411 1 26.9779407118 48.1861764549 0.0 0.0 0.0 0.0
412 1 32.0758407118 47.8264764549 0.0 0.0 0.0 0.0
413 1 37.1032407118 48.4117764549 0.0 0.0 0.0 0.0
414 1 42.1256407118 48.7728764549 0.0 0.0 0.0 0.0
415 1 47.1405407118 48.7202764549 0.0 0.0 0.0 0.0
416 1 52.3663407118 47.9822764549 0.0 0.0 0.0 0.0
417 1 57.4226407118 47.5403764549 0.0 0.0 0.0 0.0
418 1 62.5541407118 47.9059764549 0.0 0.0 0.0 0.0
419 1 68.0316407118 48.3161764549 0.0 0.0 0.0 0.0
420 1 73.4575407118 48.4014764549 0.0 0.0 0.0 0.0
421 1 2.92619071176 52.9405764549 0.0 0.0 0.0 0.0
422 1 7.88265071176 52.9025764549 0.0 0.0 0.0 0.0
423 1 14.8463407118 53.9241764549 0.0 0.0 0.0 0.0
424 1 19.1344407118 52.5610764549 0.0 0.0 0.0 0.0
425 1 24.0662407118 53.1439764549 0.0 0.0 0.0 0.0
426 1 27.0557407118 53.2519764549 0.0 0.0 0.0 0.0
427 1 34.0508407118 52.4973764549 0.0 0.0 0.0 0.0
428 1 39.3029407118 53.1605764549 0.0 0.0 0.0 0.0
429 1 44.4796407118 53.5238764549 0.0 0.0 0.0 0.0
430 1 49.7353407118 52.8737764549 0.0 0.0 0.0 0.0
431 1 54.9541407118 52.0898764549 0.0 0.0 0.0 0.0
432 1 60.0234407118 52.2982764549 0.0 0.0 0.0 0.0
433 1 65.1954407118 52.5976764549 0.0 0.0 0.0 0.0
434 1 70.5630407118 52.7456764549 0.0 0.0 0.0 0.0
435 1 75.8728407118 52.8553764549 0.0 0.0 0.0 0.0
436 1 0.295283711758 57.4852764549 0.0 0.0 0.0 0.0
437 1 5.36971071176 57.6341764549 0.0 0.0 0.0 0.0
438 1 10.5936407118 57.0864764549 0.0 0.0 0.0 0.0
439 1 16.2070407118 56.6040764549 0.0 0.0 0.0 0.0
440 1 21.2307407118 57.5519764549 0.0 0.0 0.0 0.0
441 1 26.2345407118 57.9417764549 0.0 0.0 0.0 0.0
442 1 31.1565407118 57.1207764549 0.0 0.0 0.0 0.0
443 1 35.9688407118 57.3717764549 0.0 0.0 0.0 0.0
444 1 41.2136407118 57.7865764549 0.0 0.0 0.0 0.0
445 1 48.4326407118 58.6072764549 0.0 0.0 0.0 0.0
446 1 52.7250407118 56.5779764549 0.0 0.0 0.0 0.0
447 1 57.7385407118 56.8694764549 0.0 0.0 0.0 0.0
448 1 62.6377407118 57.2021764549 0.0 0.0 0.0 0.0
449 1 67.7954407118 57.1067764549 0.0 0.0 0.0 0.0
450 1 73.1354407118 57.1649764549 0.0 0.0 0.0 0.0
451 1 2.98732071176 61.9893764549 0.0 0.0 0.0 0.0
452 1 8.42780071176 61.8842764549 0.0 0.0 0.0 0.0
453 1 13.6008407118 61.4382764549 0.0 0.0 0.0 0.0
454 1 18.3807407118 61.4200764549 0.0 0.0 0.0 0.0
455 1 23.7185407118 62.2396764549 0.0 0.0 0.0 0.0
456 1 29.1930407118 62.0958764549 0.0 0.0 0.0 0.0
457 1 34.4716407118 59.9867764549 0.0 0.0 0.0 0.0
458 1 38.8091407118 62.6225764549 0.0 0.0 0.0 0.0
459 1 44.0510407118 61.8250764549 0.0 0.0 0.0 0.0
460 1 50.2034407118 61.0530764549 0.0 0.0 0.0 0.0
461 1 55.2343407118 61.3061764549 0.0 0.0 0.0 0.0
462 1 60.0569407118 61.9464764549 0.0 0.0 0.0 0.0
463 1 65.1001407118 61.7685764549 0.0 0.0 0.0 0.0
464 1 70.4212407118 61.1926764549 0.0 0.0 0.0 0.0
465 1 75.7458407118 61.8415764549 0.0 0.0 0.0 0.0
466 1 0.162270711758 66.4225764549 0.0 0.0 0.0 0.0
467 1 5.54172071176 66.2943764549 0.0 0.0 0.0 0.0
468 1 10.6525407118 66.6997764549 0.0 0.0 0.0 0.0
469 1 13.6648407118 66.7482764549 0.0 0.0 0.0 0.0
470 1 20.4999407118 66.2030764549 0.0 0.0 0.0 0.0
471 1 26.1230407118 66.4404764549 0.0 0.0 0.0 0.0
472 1 31.4974407118 66.4946764549 0.0 0.0 0.0 0.0
473 1 36.6921407118 67.0177764549 0.0 0.0 0.0 0.0
474 1 42.1034407118 66.7362764549 0.0 0.0 0.0 0.0
475 1 46.8269407118 66.7331764549 0.0 0.0 0.0 0.0
476 1 49.8394407118 66.6255764549 0.0 0.0 0.0 0.0
477 1 56.5327407118 65.9523764549 0.0 0.0 0.0 0.0
478 1 63.8296407118 67.5209764549 0.0 0.0 0.0 0.0
479 1 67.9382407118 65.6539764549 0.0 0.0 0.0 0.0
480 1 72.8969407118 66.0302764549 0.0 0.0 0.0 0.0
481 1 2.58880071176 70.8169764549 0.0 0.0 0.0 0.0
482 1 7.60922071176 71.0557764549 0.0 0.0 0.0 0.0
483 1 12.8404407118 71.2230764549 0.0 0.0 0.0 0.0
484 1 17.8930407118 70.7010764549 0.0 0.0 0.0 0.0
485 1 23.1288407118 70.7533764549 0.0 0.0 0.0 0.0
486 1 28.4892407118 70.8939764549 0.0 0.0 0.0 0.0
487 1 33.6849407118 71.1399764549 0.0 0.0 0.0 0.0
488 1 39.1576407118 71.3546764549 0.0 0.0 0.0 0.0
489 1 44.1315407118 71.4878764549 0.0 0.0 0.0 0.0
490 1 49.0754407118 71.3908764549 0.0 0.0 0.0 0.0
491 1 53.9346407118 70.6614764549 0.0 0.0 0.0 0.0
492 1 59.2121407118 70.0699764549 0.0 0.0 0.0 0.0
493 1 65.5875407118 69.9752764549 0.0 0.0 0.0 0.0
494 1 71.2727407118 68.5579764549 0.0 0.0 0.0 0.0
495 1 75.5386407118 71.1798764549 0.0 0.0 0.0 0.0
496 1 0.336392711758 75.5755764549 0.0 0.0 0.0 0.0
497 1 5.23264071176 75.5399764549 0.0 0.0 0.0 0.0
498 1 10.3673407118 75.6638764549 0.0 0.0 0.0 0.0
499 1 15.6925407118 75.5397764549 0.0 0.0 0.0 0.0
500 1 20.6185407118 75.3615764549 0.0 0.0 0.0 0.0
501 1 25.7339407118 75.3701764549 0.0 0.0 0.0 0.0
502 1 30.9484407118 75.4544764549 0.0 0.0 0.0 0.0
503 1 36.2918407118 75.6061764549 0.0 0.0 0.0 0.0
504 1 41.6098407118 75.9260764549 0.0 0.0 0.0 0.0
505 1 46.7987407118 76.1204764549 0.0 0.0 0.0 0.0
506 1 52.0525407118 75.5481764549 0.0 0.0 0.0 0.0
507 1 57.2425407118 74.7064764549 0.0 0.0 0.0 0.0
508 1 62.5232407118 74.3110764549 0.0 0.0 0.0 0.0
509 1 67.8143407118 74.5702764549 0.0 0.0 0.0 0.0
510 1 73.0665407118 75.4824764549 0.0 0.0 0.0 0.0
511 1 5.32438071176 78.5420764549 0.0 0.0 0.0 0.0
512 1 10.4761407118 78.6650764549 0.0 0.0 0.0 0.0
513 1 15.6006407118 78.5486764549 0.0 0.0 0.0 0.0
514 1 20.6470407118 78.3808764549 0.0 0.0 0.0 0.0
515 1 25.7094407118 78.3854764549 0.0 0.0 0.0 0.0
516 1 30.8902407118 78.4610764549 0.0 0.0 0.0 0.0
517 1 36.2430407118 78.6106764549 0.0 0.0 0.0 0.0
518 1 41.7433407118 78.9340764549 0.0 0.0 0.0 0.0
519 1 46.9499407118 79.1353764549 0.0 0.0 0.0 0.0
520 1 52.0042407118 78.5677764549 0.0 0.0 0.0 0.0
521 1 57.3393407118 77.7260764549 0.0 0.0 0.0 0.0
522 1 62.5659407118 77.3356764549 0.0 0.0 0.0 0.0
523 1 67.6673407118 77.5878764549 0.0 0.0 0.0 0.0
524 1 72.8580407118 78.4671764549 0.0 0.0 0.0 0.0
525 1 0.119815711758 78.5653764549 0.0 0.0 0.0 0.0
526 1 2.72775071176 80.0445764549 0.0 0.0 0.0 0.0
527 1 7.86530071176 80.1440764549 0.0 0.0 0.0 0.0
528 1 13.0717407118 80.1783764549 0.0 0.0 0.0 0.0
529 1 18.1744407118 80.0984764549 0.0 0.0 0.0 0.0
530 1 23.1769407118 80.0140764549 0.0 0.0 0.0 0.0
531 1 28.2770407118 79.9551764549 0.0 0.0 0.0 0.0
532 1 33.5268407118 79.9112764549 0.0 0.0 0.0 0.0
533 1 38.9211407118 79.9863764549 0.0 0.0 0.0 0.0
534 1 44.2917407118 80.5606764549 0.0 0.0 0.0 0.0
535 1 49.6540407118 80.4832764549 0.0 0.0 0.0 0.0
536 1 54.8767407118 79.4796764549 0.0 0.0 0.0 0.0
537 1 60.0642407118 79.0227764549 0.0 0.0 0.0 0.0
538 1 65.0407407118 79.0636764549 0.0 0.0 0.0 0.0
539 1 70.0268407118 79.4634764549 0.0 0.0 0.0 0.0
540 1 75.4967407118 79.8952764549 0.0 0.0 0.0 0.0
541 2 2.68873071176 0.121154454859 0.0 0.0 0.0 0.0
542 2 1.28261071176 2.27892645486 0.0 0.0 0.0 0.0
543 2 3.91738071176 2.39009645486 0.0 0.0 0.0 0.0
544 2 7.85695071176 0.224332454859 0.0 0.0 0.0 0.0
545 2 9.12768071176 2.51530645486 0.0 0.0 0.0 0.0
546 2 6.52946071176 2.44079645486 0.0 0.0 0.0 0.0
547 2 13.0354407118 0.261337454859 0.0 0.0 0.0 0.0
548 2 14.2715407118 2.54961645486 0.0 0.0 0.0 0.0
549 2 11.6991407118 2.53450645486 0.0 0.0 0.0 0.0
550 2 18.1300407118 0.183401454859 0.0 0.0 0.0 0.0
551 2 19.3584407118 2.48029645486 0.0 0.0 0.0 0.0
552 2 16.8170407118 2.51034645486 0.0 0.0 0.0 0.0
553 2 23.1625407118 0.101585454859 0.0 0.0 0.0 0.0
554 2 24.4252407118 2.41447645486 0.0 0.0 0.0 0.0
555 2 21.8954407118 2.43880645486 0.0 0.0 0.0 0.0
556 2 28.2305407118 0.0391224548587 0.0 0.0 0.0 0.0
557 2 29.5122407118 2.28115645486 0.0 0.0 0.0 0.0
558 2 26.9532407118 2.38032645486 0.0 0.0 0.0 0.0
559 2 33.4520407118 81.4136764549 0.0 0.0 0.0 0.0
560 2 34.7139407118 2.22003645486 0.0 0.0 0.0 0.0
561 2 32.1064407118 2.26445645486 0.0 0.0 0.0 0.0
562 2 38.8030407118 0.0633024548587 0.0 0.0 0.0 0.0
563 2 39.9831407118 2.33296645486 0.0 0.0 0.0 0.0
564 2 37.3585407118 2.22922645486 0.0 0.0 0.0 0.0
565 2 44.2683407118 0.650436454859 0.0 0.0 0.0 0.0
566 2 44.9382407118 3.41214645486 0.0 0.0 0.0 0.0
567 2 42.6596407118 2.55775645486 0.0 0.0 0.0 0.0
568 2 49.7561407118 0.576066454859 0.0 0.0 0.0 0.0
569 2 51.4098407118 2.52457645486 0.0 0.0 0.0 0.0
570 2 49.2273407118 3.39416645486 0.0 0.0 0.0 0.0
571 2 54.9530407118 80.9868764549 0.0 0.0 0.0 0.0
572 2 56.3909407118 1.68438645486 0.0 0.0 0.0 0.0
573 2 53.9094407118 2.08063645486 0.0 0.0 0.0 0.0
574 2 60.1592407118 80.5320764549 0.0 0.0 0.0 0.0
575 2 61.4312407118 1.50430645486 0.0 0.0 0.0 0.0
576 2 58.9668407118 1.45925645486 0.0 0.0 0.0 0.0
577 2 65.0743407118 80.5758764549 0.0 0.0 0.0 0.0
578 2 66.3157407118 1.57445645486 0.0 0.0 0.0 0.0
579 2 63.8822407118 1.52061645486 0.0 0.0 0.0 0.0
580 2 70.0380407118 80.9687764549 0.0 0.0 0.0 0.0
581 2 71.3881407118 1.84245645486 0.0 0.0 0.0 0.0
582 2 68.8123407118 1.80070645486 0.0 0.0 0.0 0.0
583 2 75.4593407118 81.3923764549 0.0 0.0 0.0 0.0
584 2 76.6997407118 2.21379645486 0.0 0.0 0.0 0.0
585 2 74.0232407118 2.06435645486 0.0 0.0 0.0 0.0
586 2 77.9692407118 4.44614645486 0.0 0.0 0.0 0.0
587 2 1.13657071176 6.71943645486 0.0 0.0 0.0 0.0
588 2 76.5784407118 6.60872645486 0.0 0.0 0.0 0.0
589 2 5.15253071176 4.65462645486 0.0 0.0 0.0 0.0
590 2 6.36372071176 6.94867645486 0.0 0.0 0.0 0.0
591 2 3.75173071176 6.84146645486 0.0 0.0 0.0 0.0
592 2 10.3494407118 4.80535645486 0.0 0.0 0.0 0.0
593 2 11.5514407118 7.11150645486 0.0 0.0 0.0 0.0
594 2 8.96069071176 7.02154645486 0.0 0.0 0.0 0.0
595 2 15.4702407118 4.83534645486 0.0 0.0 0.0 0.0
596 2 16.6929407118 7.08732645486 0.0 0.0 0.0 0.0
597 2 14.1081407118 7.13665645486 0.0 0.0 0.0 0.0
598 2 20.6081407118 4.77557645486 0.0 0.0 0.0 0.0