# input file

1350 atoms
2 atom types

0.0 78.5492151719 xlo xhi
0.0 80.8782105943 ylo yhi
-10.0 10.0 zlo zhi
0.0 0.0 0.0 xy xz yz

Masses

1 28.0855 #Si
2 15.9994 #O

Atoms

1 1 2.56665536279 1.31752529713 0.0
2 1 7.83947536279 1.81440529713 0.0
3 1 12.9477453628 1.46302529713 0.0
4 1 18.1265453628 0.818725297134 0.0
5 1 22.7537453628 3.73222529713 0.0
6 1 28.2005453628 1.93728529713 0.0
7 1 33.4905453628 1.78627529713 0.0
8 1 38.9341453628 1.71399529713 0.0
9 1 44.4273453628 1.47010529713 0.0
10 1 49.6572453628 0.886445297134 0.0
11 1 53.9706453628 3.49498529713 0.0
12 1 59.5785453628 2.01543529713 0.0
13 1 65.5433453628 1.45035529713 0.0
14 1 70.8213453628 1.04538529713 0.0
15 1 75.9247453628 1.18487529713 0.0
16 1 78.5051453628 5.77380529713 0.0
17 1 5.22289536279 5.97057529713 0.0
18 1 10.7680453628 6.20497529713 0.0
19 1 15.9319453628 5.74430529713 0.0
20 1 21.2859453628 6.37733529713 0.0
21 1 26.3162453628 6.75746529713 0.0
22 1 31.1905453628 6.35558529713 0.0
23 1 36.3859453628 6.07932529713 0.0
24 1 41.8979453628 5.83194529713 0.0
25 1 47.2878453628 5.64900529713 0.0
26 1 52.5449453628 6.13018529713 0.0
27 1 57.4635453628 6.43159529713 0.0
28 1 61.3735453628 4.43926529713 0.0
29 1 68.5600453628 5.66096529713 0.0
30 1 73.5135453628 5.71325529713 0.0
31 1 2.50137536279 10.3148052971 0.0
32 1 7.82975536279 10.2416052971 0.0
33 1 13.0207453628 10.5402052971 0.0
34 1 18.2324453628 10.4819052971 0.0
35 1 23.7051453628 11.2227052971 0.0
36 1 29.0288453628 11.3487052971 0.0
37 1 33.9070453628 10.7696052971 0.0
38 1 39.4644453628 10.1573052971 0.0
39 1 44.8531453628 10.0751052971 0.0
40 1 50.0372453628 10.3134052971 0.0
41 1 55.2733453628 10.9388052971 0.0
42 1 60.5789453628 10.2631052971 0.0
43 1 65.7311453628 9.90740529713 0.0
44 1 70.8980453628 10.3908052971 0.0
45 1 76.0620453628 10.4315052971 0.0
46 1 0.422207362786 15.0409052971 0.0
47 1 5.63308536279 14.6240052971 0.0
48 1 9.99784536279 17.1298052971 0.0
49 1 15.3841453628 15.0767052971 0.0
50 1 20.7063453628 15.0955052971 0.0
51 1 26.2076453628 15.7465052971 0.0
52 1 32.2581453628 15.8097052971 0.0
53 1 37.3288453628 14.5210052971 0.0
54 1 42.6015453628 14.4231052971 0.0
55 1 47.5902453628 14.7105052971 0.0
56 1 52.7296453628 15.0519052971 0.0
57 1 57.9832453628 14.9791052971 0.0
58 1 63.1743453628 14.6473052971 0.0
59 1 68.3440453628 14.6955052971 0.0
60 1 73.6182453628 14.9610052971 0.0
61 1 3.12053536279 19.3715052971 0.0
62 1 8.41545536279 19.7010052971 0.0
63 1 13.3021453628 19.9510052971 0.0
64 1 18.3395453628 19.5099052971 0.0
65 1 23.5007453628 19.5982052971 0.0
66 1 27.9609453628 18.2145052971 0.0
67 1 36.8143453628 19.1060052971 0.0
68 1 39.8040453628 18.8776052971 0.0
69 1 44.9188453628 19.2313052971 0.0
70 1 50.1170453628 19.4237052971 0.0
71 1 55.2672453628 19.4926052971 0.0
72 1 60.4849453628 19.3333052971 0.0
73 1 65.7085453628 19.2297052971 0.0
74 1 70.9783453628 19.2973052971 0.0
75 1 76.3279453628 19.4056052971 0.0
76 1 0.284541362786 23.8152052971 0.0
77 1 5.46895536279 24.0006052971 0.0
78 1 10.5236453628 24.5583052971 0.0
79 1 15.8270453628 24.3403052971 0.0
80 1 21.2346453628 24.0741052971 0.0
81 1 26.5998453628 23.7229052971 0.0
82 1 31.9020453628 24.1485052971 0.0
83 1 36.9188453628 24.3874052971 0.0
84 1 42.1491453628 23.6149052971 0.0
85 1 47.4380453628 23.8362052971 0.0
86 1 52.4590453628 24.0194052971 0.0
87 1 57.6810453628 23.9159052971 0.0
88 1 62.9530453628 23.7842052971 0.0
89 1 68.2158453628 23.7351052971 0.0
90 1 73.5059453628 23.7558052971 0.0
91 1 2.73221536279 28.4685052971 0.0
92 1 7.87289536279 28.9078052971 0.0
93 1 13.0644453628 28.8688052971 0.0
94 1 18.5616453628 28.5113052971 0.0
95 1 23.9586453628 28.2731052971 0.0
96 1 29.2269453628 28.3623052971 0.0
97 1 34.5438453628 28.9453052971 0.0
98 1 41.3940453628 27.9884052971 0.0
99 1 44.4141453628 28.1379052971 0.0
100 1 49.4783453628 28.5768052971 0.0
101 1 54.7892453628 28.4653052971 0.0
102 1 60.1575453628 28.3073052971 0.0
103 1 65.4277453628 28.2309052971 0.0
104 1 70.6477453628 28.1946052971 0.0
105 1 75.9041453628 28.2007052971 0.0
106 1 78.1309453628 32.6698052971 0.0
107 1 4.89745536279 33.2493052971 0.0
108 1 10.8285453628 33.4231052971 0.0
109 1 16.0991453628 32.8853052971 0.0
110 1 21.2251453628 32.7191052971 0.0
111 1 26.4771453628 32.7840052971 0.0
112 1 31.3848453628 33.0428052971 0.0
113 1 36.5997453628 33.5730052971 0.0
114 1 41.7036453628 33.2604052971 0.0
115 1 46.9163453628 33.0416052971 0.0
116 1 51.9795453628 32.9744052971 0.0
117 1 57.4240453628 32.7631052971 0.0
118 1 62.7109453628 32.7362052971 0.0
119 1 67.8542453628 32.7241052971 0.0
120 1 73.0065453628 32.6727052971 0.0
121 1 2.13567536279 37.3148052971 0.0
122 1 6.39516536279 35.8624052971 0.0
123 1 13.6987453628 37.5501052971 0.0
124 1 18.5258453628 37.3536052971 0.0
125 1 23.6029453628 37.1915052971 0.0
126 1 28.4684453628 37.6411052971 0.0
127 1 33.7728453628 37.7657052971 0.0
128 1 39.4180453628 37.9845052971 0.0
129 1 44.7005453628 37.7199052971 0.0
130 1 49.7782453628 37.7060052971 0.0
131 1 54.8579453628 37.1632052971 0.0
132 1 60.1067453628 37.2030052971 0.0
133 1 65.1194453628 37.3102052971 0.0
134 1 70.3246453628 37.2639052971 0.0
135 1 75.5261453628 37.2534052971 0.0
136 1 78.4752453628 41.7991052971 0.0
137 1 5.36791536279 41.4576052971 0.0
138 1 10.8306453628 41.6731052971 0.0
139 1 16.2777453628 42.2366052971 0.0
140 1 21.3777453628 41.8452052971 0.0
141 1 25.6986453628 44.4895052971 0.0
142 1 30.9915453628 42.1227052971 0.0
143 1 36.5155453628 41.9084052971 0.0
144 1 41.9093453628 42.3269052971 0.0
145 1 47.2894453628 42.4218052971 0.0
146 1 54.0535453628 41.6490052971 0.0
147 1 57.0783453628 41.6290052971 0.0
148 1 62.2106453628 41.9257052971 0.0
149 1 67.6374453628 41.8092052971 0.0
150 1 73.0432453628 41.7765052971 0.0
151 1 2.74390536279 45.9428052971 0.0
152 1 8.14056536279 45.8734052971 0.0
153 1 13.5949453628 46.2529052971 0.0
154 1 19.1463453628 46.6642052971 0.0
155 1 24.5295453628 47.2732052971 0.0
156 1 29.5099453628 46.9117052971 0.0
157 1 34.5330453628 46.1048052971 0.0
158 1 38.6488453628 48.8035052971 0.0
159 1 44.0626453628 46.7566052971 0.0
160 1 49.4516453628 47.2122052971 0.0
161 1 54.3516453628 46.9788052971 0.0
162 1 59.5238453628 46.4183052971 0.0
163 1 65.0196453628 46.2045052971 0.0
164 1 70.4541453628 46.1385052971 0.0
165 1 75.8780453628 46.1013052971 0.0
166 1 0.0499313627863 50.3621052971 0.0
167 1 5.35010536279 50.2748052971 0.0
168 1 10.6780453628 50.3679052971 0.0
169 1 16.1090453628 50.6702052971 0.0
170 1 21.6449453628 51.3645052971 0.0
171 1 28.6649453628 51.3677052971 0.0
172 1 31.6646453628 51.0222052971 0.0
173 1 36.9333453628 51.2896052971 0.0
174 1 41.8068453628 51.5885052971 0.0
175 1 46.7488453628 51.3025052971 0.0
176 1 51.9878453628 51.8585052971 0.0
177 1 57.6328453628 51.2707052971 0.0
178 1 62.8448453628 50.5440052971 0.0
179 1 68.0034453628 50.4887052971 0.0
180 1 73.2894453628 50.4447052971 0.0
181 1 2.59130536279 54.7611052971 0.0
182 1 7.74893536279 54.7348052971 0.0
183 1 12.9149453628 54.8211052971 0.0
184 1 18.0443453628 55.1281052971 0.0
185 1 23.1223453628 56.2961052971 0.0
186 1 28.5148453628 56.4020052971 0.0
187 1 33.8977453628 55.6142052971 0.0
188 1 39.0281453628 56.1664052971 0.0
189 1 44.2572453628 56.1159052971 0.0
190 1 49.4530453628 55.9902052971 0.0
191 1 53.5693453628 54.4208052971 0.0
192 1 60.5638453628 55.3599052971 0.0
193 1 65.5526453628 55.0828052971 0.0
194 1 70.7759453628 54.9136052971 0.0
195 1 75.9767453628 54.8349052971 0.0
196 1 78.5173453628 59.3520052971 0.0
197 1 4.97341536279 59.2987052971 0.0
198 1 10.0616453628 59.3175052971 0.0
199 1 15.1797453628 59.5307052971 0.0
200 1 20.3464453628 60.1618052971 0.0
201 1 24.4757453628 58.9843052971 0.0
202 1 31.4993453628 60.3004052971 0.0
203 1 36.4081453628 60.4290052971 0.0
204 1 41.7121453628 60.6038052971 0.0
205 1 47.1749453628 60.5184052971 0.0
206 1 52.6874453628 60.1117052971 0.0
207 1 57.7264453628 59.8513052971 0.0
208 1 62.8083453628 59.8878052971 0.0
209 1 68.2785453628 59.4867052971 0.0
210 1 73.4736453628 59.3921052971 0.0
211 1 2.38356536279 63.9976052971 0.0
212 1 7.27368536279 63.8992052971 0.0
213 1 12.5149453628 63.9944052971 0.0
214 1 17.8485453628 64.3000052971 0.0
215 1 23.6279453628 64.5432052971 0.0
216 1 28.6193453628 64.8722052971 0.0
217 1 33.5860453628 65.0902052971 0.0
218 1 39.0029453628 64.9229052971 0.0
219 1 44.3745453628 64.8078052971 0.0
220 1 49.7134453628 64.5081052971 0.0
221 1 55.0884453628 64.6977052971 0.0
222 1 60.5822453628 64.5407052971 0.0
223 1 66.0710453628 63.8888052971 0.0
224 1 71.0978453628 63.9539052971 0.0
225 1 76.0032453628 64.0192052971 0.0
226 1 78.4441453628 68.7375052971 0.0
227 1 4.79249536279 68.7048052971 0.0
228 1 9.43313536279 68.3790052971 0.0
229 1 14.7598453628 68.4956052971 0.0
230 1 20.6732453628 68.2327052971 0.0
231 1 26.0396453628 69.4667052971 0.0
232 1 31.2037453628 69.7323052971 0.0
233 1 36.5294453628 69.3076052971 0.0
234 1 41.7080453628 69.2137052971 0.0
235 1 47.0067453628 69.0279052971 0.0
236 1 52.3695453628 68.9480052971 0.0
237 1 56.4768453628 67.3965052971 0.0
238 1 63.7221453628 68.3482052971 0.0
239 1 68.6457453628 68.5615052971 0.0
240 1 73.4442453628 68.7316052971 0.0
241 1 2.59235536279 73.4648052971 0.0
242 1 7.63772536279 73.4293052971 0.0
243 1 12.3678453628 72.7613052971 0.0
244 1 16.1664453628 71.1402052971 0.0
245 1 22.4712453628 75.3243052971 0.0
246 1 26.7788453628 72.4235052971 0.0
247 1 33.9058453628 73.8915052971 0.0
248 1 39.0450453628 73.7844052971 0.0
249 1 44.2993453628 73.5310052971 0.0
250 1 49.8031453628 73.3338052971 0.0
251 1 55.4595453628 73.1422052971 0.0
252 1 62.2045453628 72.7497052971 0.0
253 1 65.2217453628 73.0157052971 0.0
254 1 70.4052453628 73.4104052971 0.0
255 1 75.8232453628 73.4048052971 0.0
256 1 78.4817453628 2.76599529713 0.0
257 1 5.07328536279 2.97524529713 0.0
258 1 10.5058453628 3.21709529713 0.0
259 1 15.7325453628 2.69847529713 0.0
260 1 21.1444453628 1.18277529713 0.0
261 1 25.7876453628 3.78499529713 0.0
262 1 30.8908453628 3.34184529713 0.0
263 1 36.2318453628 3.06835529713 0.0
264 1 41.7363453628 2.83293529713 0.0
265 1 47.2061453628 2.64280529713 0.0
266 1 52.6610453628 0.815895297134 0.0
267 1 56.9643453628 3.48009529713 0.0
268 1 64.3594453628 4.23143529713 0.0
269 1 68.2981453628 2.66216529713 0.0
270 1 73.3339453628 2.70510529713 0.0
271 1 2.53555536279 7.31386529713 0.0
272 1 7.94637536279 7.24954529713 0.0
273 1 13.4749453628 7.53894529713 0.0
274 1 18.4467453628 7.45015529713 0.0
275 1 23.6787453628 8.21111529713 0.0
276 1 28.8982453628 8.32163529713 0.0
277 1 33.8665453628 7.74786529713 0.0
278 1 39.1993453628 7.16688529713 0.0
279 1 44.6414453628 7.07800529713 0.0
280 1 49.7916453628 7.31514529713 0.0
281 1 54.9029453628 7.97356529713 0.0
282 1 60.3335453628 7.26396529713 0.0
283 1 65.8198453628 6.88010529713 0.0
284 1 71.0189453628 7.38423529713 0.0
285 1 75.9908453628 7.41897529713 0.0
286 1 0.0514113627863 12.0504052971 0.0
287 1 5.18199536279 11.6593052971 0.0
288 1 10.3155453628 11.9261052971 0.0
289 1 15.6336453628 12.0577052971 0.0
290 1 20.8066453628 12.0856052971 0.0
291 1 26.3374453628 12.7291052971 0.0
292 1 31.6774453628 12.8241052971 0.0
293 1 36.8105453628 11.5710052971 0.0
294 1 42.1841453628 11.4509052971 0.0
295 1 47.3792453628 11.7113052971 0.0
296 1 52.4914453628 12.0604052971 0.0
297 1 58.0952453628 11.9737052971 0.0
298 1 63.2567453628 11.6316052971 0.0
299 1 68.1785453628 11.6809052971 0.0
300 1 73.4698453628 11.9549052971 0.0
301 1 3.14940536279 16.3512052971 0.0
302 1 8.65102536279 14.4541052971 0.0
303 1 13.0105453628 16.9605052971 0.0
304 1 18.0441453628 16.5100052971 0.0
305 1 23.3209453628 16.5999052971 0.0
306 1 30.9605453628 18.5446052971 0.0
307 1 35.1657453628 16.5904052971 0.0
308 1 39.9951453628 15.8897052971 0.0
309 1 45.0017453628 16.2256052971 0.0
310 1 50.0615453628 16.4209052971 0.0
311 1 55.3745453628 16.4852052971 0.0
312 1 60.6690453628 16.3269052971 0.0
313 1 65.7443453628 16.2165052971 0.0
314 1 70.9111453628 16.2848052971 0.0
315 1 76.2748453628 16.3948052971 0.0
316 1 0.456587362786 20.8014052971 0.0
317 1 5.67735536279 20.9812052971 0.0
318 1 10.7656453628 21.5659052971 0.0
319 1 15.9562453628 21.3389052971 0.0
320 1 20.8997453628 21.0883052971 0.0
321 1 26.2887453628 20.7215052971 0.0
322 1 32.4696453628 21.1877052971 0.0
323 1 35.4359453628 21.7585052971 0.0
324 1 42.2511453628 20.6157052971 0.0
325 1 47.4650453628 20.8319052971 0.0
326 1 52.6687453628 21.0148052971 0.0
327 1 57.9168453628 20.9137052971 0.0
328 1 63.1226453628 20.7785052971 0.0
329 1 68.3238453628 20.7259052971 0.0
330 1 73.6245453628 20.7465052971 0.0
331 1 2.82148536279 25.4490052971 0.0
332 1 7.82445536279 25.8906052971 0.0
333 1 13.2281453628 25.8677052971 0.0
334 1 18.5938453628 25.5149052971 0.0
335 1 24.0044453628 25.2626052971 0.0
336 1 29.1424453628 25.3488052971 0.0
337 1 34.3425453628 25.9387052971 0.0
338 1 39.7624453628 25.4387052971 0.0
339 1 44.7384453628 25.1491052971 0.0
340 1 49.8831453628 25.5865052971 0.0
341 1 55.0940453628 25.4675052971 0.0
342 1 60.3495453628 25.3042052971 0.0
343 1 65.5953453628 25.2255052971 0.0
344 1 70.8527453628 25.1903052971 0.0
345 1 76.1503453628 25.1989052971 0.0
346 1 78.5217453628 29.6879052971 0.0
347 1 5.17502536279 30.2470052971 0.0
348 1 10.4801453628 30.4276052971 0.0
349 1 15.8914453628 29.8965052971 0.0
350 1 21.3150453628 29.7179052971 0.0
351 1 26.5678453628 29.7771052971 0.0
352 1 31.7328453628 30.0482052971 0.0
353 1 37.0727453628 30.6092052971 0.0
354 1 40.0959453628 30.6946052971 0.0
355 1 46.8068453628 30.0063052971 0.0
356 1 52.1592453628 29.9621052971 0.0
357 1 57.5120453628 29.7557052971 0.0
358 1 62.8121453628 29.7281052971 0.0
359 1 68.0451453628 29.7172052971 0.0
360 1 73.2700453628 29.6720052971 0.0
361 1 2.09241536279 34.3128052971 0.0
362 1 9.38260536279 36.0626052971 0.0
363 1 13.6089453628 34.5484052971 0.0
364 1 18.7087453628 34.3571052971 0.0
365 1 23.8312453628 34.1997052971 0.0
366 1 28.8350453628 34.6456052971 0.0
367 1 33.8452453628 34.7653052971 0.0
368 1 39.2503453628 34.9922052971 0.0
369 1 44.3811453628 34.6941052971 0.0
370 1 49.4753453628 34.6776052971 0.0
371 1 54.7514453628 34.1588052971 0.0
372 1 60.0754453628 34.1939052971 0.0
373 1 65.2836453628 34.2986052971 0.0
374 1 70.4437453628 34.2539052971 0.0
375 1 75.5687453628 34.2440052971 0.0
376 1 78.0928453628 38.8198052971 0.0
377 1 4.90406536279 38.4762052971 0.0
378 1 10.9138453628 38.6574052971 0.0
379 1 16.1850453628 39.2281052971 0.0
380 1 21.1097453628 38.8580052971 0.0
381 1 25.8624453628 39.1602052971 0.0
382 1 31.0840453628 39.1224052971 0.0
383 1 36.5554453628 38.9174052971 0.0
384 1 42.1259453628 39.3160052971 0.0
385 1 47.2493453628 39.3777052971 0.0
386 1 52.5071453628 39.0408052971 0.0
387 1 57.4733453628 38.6485052971 0.0
388 1 62.5719453628 38.9261052971 0.0
389 1 67.7334453628 38.7993052971 0.0
390 1 72.9294453628 38.7701052971 0.0
391 1 2.72683536279 42.9304052971 0.0
392 1 8.05151536279 42.8574052971 0.0
393 1 13.4283453628 43.2417052971 0.0
394 1 18.9566453628 43.6482052971 0.0
395 1 24.3871453628 41.7944052971 0.0
396 1 28.6733453628 44.0398052971 0.0
397 1 33.7989453628 43.2003052971 0.0
398 1 39.0976453628 43.4529052971 0.0
399 1 44.5641453628 43.7744052971 0.0
400 1 49.7529453628 44.2163052971 0.0
401 1 52.7811453628 44.3772052971 0.0
402 1 59.5486453628 43.3848052971 0.0
403 1 64.9532453628 43.1950052971 0.0
404 1 70.3497453628 43.1328052971 0.0
405 1 75.7561453628 43.0987052971 0.0
406 1 0.0736263627863 47.3528052971 0.0
407 1 5.45724536279 47.2646052971 0.0
408 1 10.7795453628 47.3569052971 0.0
409 1 16.2838453628 47.6603052971 0.0
410 1 21.6914453628 48.3314052971 0.0
411 1 27.1486453628 48.7685052971 0.0
412 1 32.2710453628 48.0817052971 0.0
413 1 37.5387453628 46.0273052971 0.0
414 1 41.6564453628 48.5930052971 0.0
415 1 46.6487453628 48.3018052971 0.0
416 1 51.9910453628 48.8464052971 0.0
417 1 57.1087453628 48.2649052971 0.0
418 1 62.3261453628 47.5737052971 0.0
419 1 67.7560453628 47.4886052971 0.0
420 1 73.1769453628 47.4398052971 0.0
421 1 2.72087536279 51.7534052971 0.0
422 1 7.98664536279 51.7334052971 0.0
423 1 13.3163453628 51.8352052971 0.0
424 1 18.7254453628 52.1931052971 0.0
425 1 23.9238453628 53.3923052971 0.0
426 1 26.9262453628 53.8219052971 0.0
427 1 34.2177453628 52.6160052971 0.0
428 1 39.2606453628 53.1782052971 0.0
429 1 44.3713453628 53.1220052971 0.0
430 1 49.2197453628 52.9973052971 0.0
431 1 56.5474453628 54.1078052971 0.0
432 1 60.4420453628 52.3477052971 0.0
433 1 65.4428453628 52.0693052971 0.0
434 1 70.6596453628 51.9075052971 0.0
435 1 75.9657453628 51.8261052971 0.0
436 1 0.0301333627863 56.3421052971 0.0
437 1 5.17510536279 56.2961052971 0.0
438 1 10.3035453628 56.3170052971 0.0
439 1 15.3854453628 56.5297052971 0.0
440 1 20.2557453628 57.1580052971 0.0
441 1 27.4540453628 59.2235052971 0.0
442 1 31.3910453628 57.2815052971 0.0
443 1 36.3016453628 57.4225052971 0.0
444 1 41.6562453628 57.6086052971 0.0
445 1 46.8924453628 57.5392052971 0.0
446 1 52.2351453628 57.1227052971 0.0
447 1 57.9293453628 56.8090052971 0.0
448 1 63.1431453628 56.8907052971 0.0
449 1 68.2137453628 56.4828052971 0.0
450 1 73.3998453628 56.3849052971 0.0
451 1 2.48682536279 60.9881052971 0.0
452 1 7.50761536279 60.9029052971 0.0
453 1 12.5553453628 60.9889052971 0.0
454 1 17.5880453628 61.3201052971 0.0
455 1 22.9916453628 61.5931052971 0.0
456 1 28.9242453628 61.8547052971 0.0
457 1 33.9057453628 62.0930052971 0.0
458 1 39.0150453628 61.9231052971 0.0
459 1 44.4611453628 61.8136052971 0.0
460 1 50.0135453628 61.5182052971 0.0
461 1 55.2902453628 61.6611052971 0.0
462 1 60.2567453628 61.5215052971 0.0
463 1 65.6372453628 60.9226052971 0.0
464 1 70.9066453628 60.9534052971 0.0
465 1 76.0086453628 61.0077052971 0.0
466 1 78.4750453628 65.7242052971 0.0
467 1 4.86161536279 65.6921052971 0.0
468 1 9.86154536279 65.4094052971 0.0
469 1 15.1074453628 65.5209052971 0.0
470 1 20.6987453628 65.2529052971 0.0
471 1 26.0237453628 66.4207052971 0.0
472 1 31.0279453628 66.7028052971 0.0
473 1 36.3366453628 66.3132052971 0.0
474 1 41.7180453628 66.2134052971 0.0
475 1 47.1167453628 66.0279052971 0.0
476 1 52.3507453628 65.9402052971 0.0
477 1 59.4818453628 67.3698052971 0.0
478 1 63.4668453628 65.3636052971 0.0
479 1 68.5651453628 65.5581052971 0.0
480 1 73.5266453628 65.7187052971 0.0
481 1 2.35863536279 70.4589052971 0.0
482 1 7.24804536279 70.4354052971 0.0
483 1 12.0676453628 69.7823052971 0.0
484 1 19.1095453628 70.7644052971 0.0
485 1 23.0989453628 69.9661052971 0.0
486 1 29.7821453628 72.4074052971 0.0
487 1 33.9770453628 70.8859052971 0.0
488 1 39.1444453628 70.7811052971 0.0
489 1 44.4027453628 70.5318052971 0.0
490 1 49.7069453628 70.3373052971 0.0
491 1 55.1416453628 70.1185052971 0.0
492 1 61.1599453628 69.8978052971 0.0
493 1 66.1082453628 70.1494052971 0.0
494 1 70.9743453628 70.4470052971 0.0
495 1 75.9410453628 70.3966052971 0.0
496 1 78.4694453628 74.8502052971 0.0
497 1 5.13529536279 75.0910052971 0.0
498 1 10.2748453628 74.8881052971 0.0
499 1 15.1216453628 73.9409052971 0.0
500 1 21.5235453628 72.5008052971 0.0
501 1 25.4791453628 75.1933052971 0.0
502 1 31.1540453628 75.1031052971 0.0
503 1 36.5022453628 75.3919052971 0.0
504 1 41.7377453628 75.1149052971 0.0
505 1 47.0879453628 74.6520052971 0.0
506 1 52.6593453628 74.3093052971 0.0
507 1 57.7171453628 75.1948052971 0.0
508 1 60.7462453628 75.3950052971 0.0
509 1 67.6894453628 74.7628052971 0.0
510 1 73.1159453628 74.7376052971 0.0
511 1 5.55296536279 78.0801052971 0.0
512 1 12.2927453628 77.1350052971 0.0
513 1 15.3081453628 76.9342052971 0.0
514 1 20.6178453628 77.6815052971 0.0
515 1 25.6340453628 78.2289052971 0.0
516 1 30.7793453628 78.1157052971 0.0
517 1 36.1409453628 78.3763052971 0.0
518 1 41.5311453628 78.1135052971 0.0
519 1 46.7448453628 77.6318052971 0.0
520 1 52.1238453628 77.2664052971 0.0
521 1 57.2117453628 78.1747052971 0.0
522 1 62.1405453628 78.1002052971 0.0
523 1 67.5199453628 77.7825052971 0.0
524 1 73.0833453628 77.7435052971 0.0
525 1 0.0280933627863 77.8552052971 0.0
526 1 2.74042536279 79.1933052971 0.0
527 1 8.12075536279 79.7056052971 0.0
528 1 11.1461453628 79.9015052971 0.0
529 1 17.7731453628 78.6927052971 0.0
530 1 22.9212453628 79.6139052971 0.0
531 1 28.2372453628 79.7773052971 0.0
532 1 33.3959453628 79.6439052971 0.0
533 1 38.8998453628 79.5859052971 0.0
534 1 44.2736453628 79.3465052971 0.0
535 1 49.5150453628 78.7695052971 0.0
536 1 54.3887453628 79.2306052971 0.0
537 1 59.7046453628 79.8797052971 0.0
538 1 64.9189453628 79.3532052971 0.0
539 1 70.3158453628 78.9561052971 0.0
540 1 75.8066453628 79.0580052971 0.0
541 2 2.65014536279 80.6984052971 0.0
542 2 3.82194536279 2.14840529713 0.0
543 2 1.24581536279 2.03470529713 0.0
544 2 7.89633536279 0.317475297134 0.0
545 2 9.15413536279 2.54852529713 0.0
546 2 6.45760536279 2.39467529713 0.0
547 2 12.1292453628 0.177046297134 0.0
548 2 14.3568453628 2.02989529713 0.0
549 2 11.7659453628 2.40569529713 0.0
550 2 17.8606453628 80.2004052971 0.0
551 2 19.6277453628 1.06981529713 0.0
552 2 16.9541453628 1.78571529713 0.0
553 2 21.9195453628 2.47675529713 0.0
554 2 24.2718453628 3.67447529713 0.0
555 2 21.9524453628 5.01695529713 0.0
556 2 28.2087453628 0.417925297134 0.0
557 2 29.5474453628 2.64114529713 0.0
558 2 26.9500453628 2.80629529713 0.0
559 2 33.4253453628 0.276675297134 0.0
560 2 34.8669453628 2.42022529713 0.0
561 2 32.1931453628 2.56371529713 0.0
562 2 38.9251453628 0.209142297134 0.0
563 2 40.3342453628 2.27873529713 0.0
564 2 37.5862453628 2.39315529713 0.0
565 2 44.3663453628 80.8441052971 0.0
566 2 45.8117453628 2.06707529713 0.0
567 2 43.0810453628 2.14941529713 0.0
568 2 49.5166453628 80.2675052971 0.0
569 2 51.1630453628 0.943265297134 0.0
570 2 48.4620453628 1.80238529713 0.0
571 2 53.3073453628 2.16267529713 0.0
572 2 55.4677453628 3.40136529713 0.0
573 2 53.1787453628 4.76893529713 0.0
574 2 59.6897453628 0.514155297134 0.0
575 2 60.5356453628 3.18393529713 0.0
576 2 58.1990453628 2.63284529713 0.0
577 2 65.1664453628 80.8606052971 0.0
578 2 66.9643453628 1.97489529713 0.0
579 2 64.8672453628 2.80921529713 0.0
580 2 70.5683453628 80.4446052971 0.0
581 2 72.0864453628 1.86235529713 0.0
582 2 69.5592453628 1.85630529713 0.0
583 2 75.8635453628 80.5643052971 0.0
584 2 74.6325453628 1.94925529713 0.0
585 2 77.2059453628 1.97214529713 0.0
586 2 78.4833453628 4.27083529713 0.0
587 2 1.25632536279 6.52844529713 0.0
588 2 77.2535453628 6.60280529713 0.0
589 2 5.12024536279 4.47347529713 0.0
590 2 6.59494536279 6.58637529713 0.0
591 2 3.88951536279 6.66345529713 0.0
592 2 10.6561453628 4.70627529713 0.0
593 2 12.1153453628 6.86764529713 0.0
594 2 9.35954536279 6.74285529713 0.0
595 2 15.8504453628 4.22078529713 0.0
596 2 17.2162453628 6.56229529713 0.0
597 2 14.7028453628 6.64729529713 0.0
598 2 22.4360453628 7.36071529713 0.0
599 2 19.8522453628 6.86584529713 0.0
600 2 26.1336453628 5.26043529713 0.0
601 2 27.5970453628 7.55112529713 0.0
602 2 25.0095453628 7.50776529713 0.0
603 2 31.0237453628 4.85282529713 0.0
604 2 32.5440453628 7.02542529713 0.0
605 2 30.0546453628 7.35076529713 0.0
606 2 36.2900453628 4.57569529713 0.0
607 2 37.7979453628 6.61649529713 0.0
608 2 35.1410453628 6.93251529713 0.0
609 2 41.8263453628 4.33282529713 0.0
610 2 43.2678453628 6.46108529713 0.0
611 2 40.5455453628 6.49258529713 0.0
612 2 47.2862453628 4.14616529713 0.0
613 2 48.5425453628 6.48212529713 0.0
614 2 45.9541453628 6.34397529713 0.0
615 2 53.6729453628 7.12492529713 0.0
616 2 51.1428453628 6.64977529713 0.0
617 2 57.2573453628 4.95174529713 0.0
618 2 58.8679453628 6.92681529713 0.0
619 2 56.2045453628 7.23233529713 0.0
620 2 62.8630453628 4.31220529713 0.0
621 2 60.9444453628 5.88790529713 0.0
622 2 68.4598453628 4.15992529713 0.0
623 2 69.7862453628 6.52390529713 0.0
624 2 67.2252453628 6.34150529713 0.0
625 2 73.4163453628 4.21063529713 0.0
626 2 74.7563453628 6.56002529713 0.0
627 2 72.2716453628 6.55873529713 0.0
628 2 2.49294536279 8.81495529713 0.0
629 2 3.84525536279 10.9847052971 0.0
630 2 1.27762536279 11.1781052971 0.0
631 2 7.87812536279 8.74778529713 0.0
632 2 9.10870536279 11.0192052971 0.0
633 2 6.49245536279 10.9240052971 0.0
634 2 13.2655453628 9.04287529713 0.0
635 2 14.3169453628 11.3161052971 0.0
636 2 11.6865453628 11.2782052971 0.0
637 2 18.3162453628 8.96622529713 0.0
638 2 19.5323453628 11.2693052971 0.0
639 2 16.9319453628 11.2712052971 0.0
640 2 23.7078453628 9.71330529713 0.0
641 2 25.0127453628 11.9871052971 0.0
642 2 22.2590453628 11.6650052971 0.0
643 2 28.9866453628 9.83160529713 0.0
644 2 30.3303453628 12.1251052971 0.0
645 2 27.6856453628 12.0457052971 0.0
646 2 33.8464453628 9.25784529713 0.0
647 2 35.3662453628 11.1665052971 0.0
648 2 32.8047453628 11.8036052971 0.0
649 2 39.3425453628 8.66304529713 0.0
650 2 40.8219453628 10.8125052971 0.0
651 2 38.1260453628 10.8429052971 0.0
652 2 44.7699453628 8.57662529713 0.0
653 2 46.1146453628 10.8959052971 0.0
654 2 43.5078453628 10.7428052971 0.0
655 2 49.9149453628 8.81421529713 0.0
656 2 51.2738453628 11.1752052971 0.0
657 2 48.7068453628 11.0110052971 0.0
658 2 55.0778453628 9.45210529713 0.0
659 2 56.6798453628 11.4543052971 0.0
660 2 53.8963453628 11.5294052971 0.0
661 2 60.5393453628 8.75402529713 0.0
662 2 61.9184453628 10.9417052971 0.0
663 2 59.3310453628 11.1138052971 0.0
664 2 65.7080453628 8.39177529713 0.0
665 2 66.9647453628 10.7847052971 0.0
666 2 64.4820453628 10.7564052971 0.0
667 2 70.9684453628 8.88519529713 0.0
668 2 72.1742453628 11.1887052971 0.0
669 2 69.5407453628 11.0342052971 0.0
670 2 76.0300453628 8.92398529713 0.0
671 2 77.3207453628 11.2569052971 0.0
672 2 74.7611453628 11.1841052971 0.0
673 2 0.241966362786 13.5409052971 0.0
674 2 1.78470536279 15.6919052971 0.0
675 2 77.6285453628 15.7316052971 0.0
676 2 5.32070536279 13.1498052971 0.0
677 2 7.14479536279 14.6098052971 0.0
678 2 4.43210536279 15.5436052971 0.0
679 2 9.31687536279 15.7968052971 0.0
680 2 11.4989453628 16.9677052971 0.0
681 2 9.13193536279 18.3685052971 0.0
682 2 15.4945453628 13.5687052971 0.0
683 2 16.7139453628 15.8015052971 0.0
684 2 14.1470453628 15.9608052971 0.0
685 2 20.7284453628 13.5933052971 0.0
686 2 22.0203453628 15.8416052971 0.0
687 2 19.3710453628 15.7917052971 0.0
688 2 26.3431453628 14.2425052971 0.0
689 2 27.1626453628 16.9238052971 0.0
690 2 24.7451453628 16.1166052971 0.0
691 2 31.9082453628 14.3297052971 0.0
692 2 33.7219453628 16.1934052971 0.0
693 2 31.5664453628 17.1567052971 0.0
694 2 37.0668453628 13.0520052971 0.0
695 2 38.6856453628 15.1606052971 0.0
696 2 36.2013453628 15.5034052971 0.0
697 2 42.4077453628 12.9381052971 0.0
698 2 43.8074453628 15.3133052971 0.0
699 2 41.2970453628 15.1614052971 0.0
700 2 48.8340453628 15.5541052971 0.0
701 2 47.4798453628 13.2121052971 0.0
702 2 46.3037453628 15.4829052971 0.0
703 2 52.5799453628 13.5587052971 0.0
704 2 54.0556453628 15.7579052971 0.0
705 2 51.4056453628 15.7557052971 0.0
706 2 58.0588453628 13.4779052971 0.0
707 2 59.3214453628 15.6592052971 0.0
708 2 56.6782453628 15.7316052971 0.0
709 2 63.2242453628 13.1400052971 0.0
710 2 64.4625453628 15.4272052971 0.0
711 2 61.9155453628 15.4802052971 0.0
712 2 68.2431453628 13.1902052971 0.0
713 2 69.6347453628 15.4799052971 0.0
714 2 67.0478453628 15.4646052971 0.0
715 2 73.5491453628 13.4556052971 0.0
716 2 74.9476453628 15.6735052971 0.0
717 2 72.2689453628 15.6308052971 0.0
718 2 3.15710536279 17.8612052971 0.0
719 2 4.40446536279 20.1678052971 0.0
720 2 1.78538536279 20.0824052971 0.0
721 2 9.54660536279 20.6947052971 0.0
722 2 7.02215536279 20.2828052971 0.0
723 2 12.0530453628 20.7882052971 0.0
724 2 14.6277453628 20.6452052971 0.0
725 2 13.2435453628 18.4531052971 0.0
726 2 18.1809453628 18.0147052971 0.0
727 2 19.6295453628 20.2875052971 0.0
728 2 17.1504453628 20.4323052971 0.0
729 2 23.3642453628 18.1035052971 0.0
730 2 24.8667453628 20.2179052971 0.0
731 2 22.2086453628 20.3559052971 0.0
732 2 29.4566453628 18.3919052971 0.0
733 2 27.1908453628 19.5148052971 0.0
734 2 36.1661453628 20.4494052971 0.0
735 2 35.9308453628 17.8886052971 0.0
736 2 38.3160453628 19.0782052971 0.0
737 2 39.9717453628 17.3855052971 0.0
738 2 40.9979453628 19.7838052971 0.0
739 2 44.9562453628 17.7267052971 0.0
740 2 46.1903453628 20.0337052971 0.0
741 2 43.5863453628 19.9273052971 0.0
742 2 50.0796453628 17.9219052971 0.0
743 2 51.3950453628 20.2124052971 0.0
744 2 48.7912453628 20.1285052971 0.0
745 2 55.3176453628 17.9885052971 0.0
746 2 56.5928453628 20.1993052971 0.0
747 2 53.9729453628 20.2613052971 0.0
748 2 60.5850453628 17.8308052971 0.0
749 2 61.8035453628 20.0564052971 0.0
750 2 59.2004453628 20.1237052971 0.0
751 2 65.7197453628 17.7231052971 0.0
752 2 67.0197453628 19.9715052971 0.0
753 2 64.4163453628 20.0067052971 0.0
754 2 70.9330453628 17.7914052971 0.0
755 2 72.3059453628 20.0127052971 0.0
756 2 69.6549453628 20.0204052971 0.0
757 2 76.2962453628 17.8997052971 0.0
758 2 77.6686453628 20.0975052971 0.0
759 2 74.9796453628 20.0847052971 0.0
760 2 0.382504362786 22.3097052971 0.0
761 2 1.54757536279 24.6401052971 0.0
762 2 77.4881453628 24.5028052971 0.0
763 2 5.58253536279 22.4927052971 0.0
764 2 6.64569536279 24.9506052971 0.0
765 2 4.13597536279 24.7104052971 0.0
766 2 10.6353453628 23.0586052971 0.0
767 2 11.8728453628 25.2184052971 0.0
768 2 9.18450536279 25.2362052971 0.0
769 2 15.8947453628 22.8374052971 0.0
770 2 17.2104453628 24.9292052971 0.0
771 2 14.5312453628 25.1086052971 0.0
772 2 21.0489453628 22.5817052971 0.0
773 2 22.6206453628 24.6598052971 0.0
774 2 19.9200453628 24.8091052971 0.0
775 2 26.5124453628 22.2137052971 0.0
776 2 27.8815453628 24.5198052971 0.0
777 2 25.2959453628 24.4874052971 0.0
778 2 32.0575453628 22.6487052971 0.0
779 2 33.1057453628 25.0689052971 0.0
780 2 30.5139453628 24.7288052971 0.0
781 2 36.2551453628 23.0241052971 0.0
782 2 38.3343453628 24.9276052971 0.0
783 2 35.6760453628 25.2406052971 0.0
784 2 42.1753453628 22.1133052971 0.0
785 2 43.4568453628 24.3599052971 0.0
786 2 40.8994453628 24.4449052971 0.0
787 2 47.4620453628 22.3339052971 0.0