# input file

1350 atoms
2 atom types

0.0 77.3563505271 xlo xhi
0.0 82.1605834441 ylo yhi
-10.0 10.0 zlo zhi
0.0 0.0 0.0 xy xz yz

Masses

1 28.0855 #Si
2 15.9994 #O

Atoms

1 1 1.92195304041 0.999041722056 0.0
2 1 6.79652304041 1.03891172206 0.0
3 1 11.8591130404 1.75846172206 0.0
4 1 16.9052130404 2.47217172206 0.0
5 1 22.3618130404 2.65344172206 0.0
6 1 27.8618130404 2.08794172206 0.0
7 1 33.1191130404 2.51184172206 0.0
8 1 38.3321130404 2.23225172206 0.0
9 1 43.6334130404 1.65384172206 0.0
10 1 48.4553130404 1.21281172206 0.0
11 1 53.6082130404 0.0715337220559 0.0
12 1 58.8975130404 0.395262722056 0.0
13 1 64.1229130404 1.01288172206 0.0
14 1 69.2987130404 0.723063722056 0.0
15 1 74.2859130404 0.841053722056 0.0
16 1 76.5851130404 5.61502172206 0.0
17 1 4.41960304041 5.78596172206 0.0
18 1 9.35141304041 5.91002172206 0.0
19 1 13.9228130404 8.58231172206 0.0
20 1 19.5387130404 6.88270172206 0.0
21 1 26.4769130404 6.31367172206 0.0
22 1 29.4678130404 6.65105172206 0.0
23 1 37.5798130404 6.36976172206 0.0
24 1 40.6139130404 6.30676172206 0.0
25 1 45.5788130404 6.27870172206 0.0
26 1 52.7014130404 4.75356172206 0.0
27 1 55.7142130404 4.60924172206 0.0
28 1 61.1345130404 5.14574172206 0.0
29 1 66.5654130404 5.39052172206 0.0
30 1 71.5853130404 5.48190172206 0.0
31 1 1.90566304041 10.2278917221 0.0
32 1 7.11580304041 10.5562917221 0.0
33 1 12.1579130404 11.0113917221 0.0
34 1 16.9748130404 11.3554917221 0.0
35 1 21.7510130404 11.9062917221 0.0
36 1 26.3219130404 11.3888917221 0.0
37 1 30.5536130404 9.47293172206 0.0
38 1 37.2104130404 11.8715917221 0.0
39 1 42.4130130404 11.0644917221 0.0
40 1 48.1396130404 10.9661917221 0.0
41 1 52.9971130404 9.56042172206 0.0
42 1 58.3707130404 9.17079172206 0.0
43 1 63.8047130404 9.57643172206 0.0
44 1 68.9576130404 10.1214917221 0.0
45 1 73.7544130404 10.2350917221 0.0
46 1 76.7023130404 14.4291917221 0.0
47 1 4.71899304041 14.8849917221 0.0
48 1 9.63311304041 15.4146917221 0.0
49 1 14.6651130404 15.9174917221 0.0
50 1 19.4834130404 18.3327917221 0.0
51 1 24.9848130404 16.4650917221 0.0
52 1 30.1142130404 15.0902917221 0.0
53 1 34.8749130404 18.1781917221 0.0
54 1 39.9226130404 15.9639917221 0.0
55 1 43.9992130404 13.6381917221 0.0
56 1 51.2826130404 14.7763917221 0.0
57 1 56.0495130404 13.6876917221 0.0
58 1 61.0721130404 13.6417917221 0.0
59 1 65.9404130404 14.3813917221 0.0
60 1 70.8986130404 15.0292917221 0.0
61 1 1.25376304041 21.3373917221 0.0
62 1 6.95935304041 19.8690917221 0.0
63 1 12.2382130404 20.2851917221 0.0
64 1 17.7959130404 20.8185917221 0.0
65 1 23.0153130404 21.0921917221 0.0
66 1 28.2079130404 20.1837917221 0.0
67 1 33.6301130404 20.9375917221 0.0
68 1 39.2200130404 20.9812917221 0.0
69 1 44.1653130404 19.1993917221 0.0
70 1 49.2873130404 19.2287917221 0.0
71 1 54.1982130404 18.9079917221 0.0
72 1 59.0100130404 18.2598917221 0.0
73 1 62.9955130404 21.2603917221 0.0
74 1 68.3228130404 19.3679917221 0.0
75 1 72.2457130404 17.7391917221 0.0
76 1 76.8246130404 23.7631917221 0.0
77 1 4.53585304041 24.1971917221 0.0
78 1 9.54721304041 24.5472917221 0.0
79 1 14.7881130404 24.7069917221 0.0
80 1 20.2529130404 25.4141917221 0.0
81 1 25.6615130404 25.0641917221 0.0
82 1 30.6111130404 24.8077917221 0.0
83 1 34.8780130404 23.6892917221 0.0
84 1 43.9216130404 23.9504917221 0.0
85 1 46.9331130404 23.8175917221 0.0
86 1 53.3592130404 23.4419917221 0.0
87 1 56.3756130404 23.2977917221 0.0
88 1 61.3893130404 23.8133917221 0.0
89 1 66.7100130404 24.1988917221 0.0
90 1 71.6714130404 23.5397917221 0.0
91 1 2.22806304041 28.5235917221 0.0
92 1 6.81537304041 31.0297917221 0.0
93 1 12.1594130404 29.1120917221 0.0
94 1 17.5027130404 29.2463917221 0.0
95 1 23.0758130404 29.5305917221 0.0
96 1 28.2567130404 29.6415917221 0.0
97 1 33.3770130404 29.2638917221 0.0
98 1 38.3242130404 29.2287917221 0.0
99 1 43.5163130404 29.1715917221 0.0
100 1 48.7626130404 28.9978917221 0.0
101 1 53.4602130404 28.8741917221 0.0
102 1 58.3740130404 28.2409917221 0.0
103 1 63.7268130404 28.3651917221 0.0
104 1 69.1160130404 28.5630917221 0.0
105 1 74.4047130404 28.2626917221 0.0
106 1 0.0142550404106 32.9380917221 0.0
107 1 5.27963304041 33.6064917221 0.0
108 1 10.2922130404 33.9519917221 0.0
109 1 15.1180130404 33.5343917221 0.0
110 1 20.2560130404 33.4989917221 0.0
111 1 25.4400130404 34.1235917221 0.0
112 1 30.8387130404 34.0520917221 0.0
113 1 36.1033130404 33.9878917221 0.0
114 1 41.2120130404 33.6810917221 0.0
115 1 46.4842130404 33.5415917221 0.0
116 1 51.5631130404 33.8287917221 0.0
117 1 56.4498130404 33.3403917221 0.0
118 1 61.6710130404 32.6248917221 0.0
119 1 66.7427130404 34.5628917221 0.0
120 1 72.2181130404 32.8777917221 0.0
121 1 2.66313304041 37.7077917221 0.0
122 1 7.75989304041 38.3945917221 0.0
123 1 13.2082130404 38.4726917221 0.0
124 1 18.0414130404 38.0361917221 0.0
125 1 22.4258130404 40.4696917221 0.0
126 1 27.9466130404 38.4419917221 0.0
127 1 33.5757130404 38.5135917221 0.0
128 1 40.4159130404 37.9501917221 0.0
129 1 43.4375130404 38.0202917221 0.0
130 1 48.5779130404 38.3058917221 0.0
131 1 53.8384130404 38.4209917221 0.0
132 1 59.6839130404 37.4912917221 0.0
133 1 65.3468130404 37.2193917221 0.0
134 1 70.3974130404 37.5443917221 0.0
135 1 75.2927130404 37.4613917221 0.0
136 1 0.408033040411 42.4687917221 0.0
137 1 5.16457304041 42.5922917221 0.0
138 1 10.4080130404 42.6787917221 0.0
139 1 15.5292130404 43.0392917221 0.0
140 1 20.7893130404 43.0066917221 0.0
141 1 25.6631130404 43.0818917221 0.0
142 1 30.7958130404 42.5621917221 0.0
143 1 35.6223130404 43.4443917221 0.0
144 1 40.5077130404 43.1023917221 0.0
145 1 46.1153130404 42.7688917221 0.0
146 1 51.4333130404 42.8578917221 0.0
147 1 55.3648130404 41.0558917221 0.0
148 1 62.7081130404 41.3621917221 0.0
149 1 67.8746130404 41.9645917221 0.0
150 1 73.1106130404 42.2339917221 0.0
151 1 3.09456304041 47.3711917221 0.0
152 1 8.24234304041 47.0511917221 0.0
153 1 12.7440130404 49.5798917221 0.0
154 1 18.0326130404 47.5104917221 0.0
155 1 23.3660130404 47.7700917221 0.0
156 1 28.7153130404 47.2858917221 0.0
157 1 33.0790130404 50.0840917221 0.0
158 1 38.3446130404 48.0012917221 0.0
159 1 43.5746130404 47.0644917221 0.0
160 1 49.0725130404 47.2787917221 0.0
161 1 55.1327130404 46.8868917221 0.0
162 1 60.1469130404 45.6455917221 0.0
163 1 65.2130130404 46.1277917221 0.0
164 1 70.2526130404 46.5307917221 0.0
165 1 75.2571130404 47.2771917221 0.0
166 1 0.629943040411 51.8795917221 0.0
167 1 6.01606304041 51.7939917221 0.0
168 1 11.3305130404 52.2349917221 0.0
169 1 16.2039130404 52.4490917221 0.0
170 1 21.0539130404 51.9955917221 0.0
171 1 26.3569130404 51.8366917221 0.0
172 1 31.6366130404 52.7171917221 0.0
173 1 36.6346130404 52.9139917221 0.0
174 1 41.5201130404 51.9129917221 0.0
175 1 46.7944130404 51.3465917221 0.0
176 1 50.9802130404 49.6412917221 0.0
177 1 59.6488130404 50.3408917221 0.0
178 1 62.6664130404 50.4831917221 0.0
179 1 67.7206130404 50.9311917221 0.0
180 1 72.3890130404 53.4665917221 0.0
181 1 3.66954304041 56.2187917221 0.0
182 1 8.75923304041 56.4438917221 0.0
183 1 13.8469130404 57.0848917221 0.0
184 1 19.0439130404 56.9506917221 0.0
185 1 24.1928130404 56.2773917221 0.0
186 1 28.8276130404 58.6706917221 0.0
187 1 34.4383130404 57.4304917221 0.0
188 1 39.7908130404 57.0301917221 0.0
189 1 44.8929130404 55.9479917221 0.0
190 1 50.0749130404 55.3458917221 0.0
191 1 54.8352130404 55.5222917221 0.0
192 1 59.6663130404 55.6930917221 0.0
193 1 65.0916130404 55.4033917221 0.0
194 1 70.6406130404 55.9270917221 0.0
195 1 75.8289130404 56.4377917221 0.0
196 1 1.09933304041 60.8419917221 0.0
197 1 6.30453304041 60.9573917221 0.0
198 1 11.4381130404 61.3381917221 0.0
199 1 16.5745130404 61.5422917221 0.0
200 1 21.6678130404 61.1288917221 0.0
201 1 27.2415130404 61.2156917221 0.0
202 1 32.3087130404 61.8396917221 0.0
203 1 37.3104130404 61.5795917221 0.0
204 1 44.3908130404 60.3885917221 0.0
205 1 47.3891130404 60.1292917221 0.0
206 1 52.3017130404 60.3303917221 0.0
207 1 57.2319130404 60.4466917221 0.0
208 1 62.3551130404 59.9376917221 0.0
209 1 67.6767130404 59.8963917221 0.0
210 1 73.0573130404 60.6698917221 0.0
211 1 3.66684304041 65.4250917221 0.0
212 1 8.92801304041 65.7230917221 0.0
213 1 14.1838130404 66.0330917221 0.0
214 1 19.2167130404 65.9514917221 0.0
215 1 24.2807130404 65.2809917221 0.0
216 1 29.5727130404 66.0637917221 0.0
217 1 34.4393130404 66.3216917221 0.0
218 1 39.1110130404 66.1930917221 0.0
219 1 44.2317130404 65.4897917221 0.0
220 1 49.6888130404 65.0139917221 0.0
221 1 54.6615130404 65.1855917221 0.0
222 1 59.7929130404 64.8174917221 0.0
223 1 64.9721130404 64.3752917221 0.0
224 1 70.4030130404 64.5816917221 0.0
225 1 75.7596130404 65.0899917221 0.0
226 1 0.814273040411 69.7183917221 0.0
227 1 6.10847304041 70.0451917221 0.0
228 1 11.4728130404 70.3676917221 0.0
229 1 16.8924130404 70.6866917221 0.0
230 1 23.3812130404 69.8341917221 0.0
231 1 26.3793130404 69.9566917221 0.0
232 1 31.5668130404 70.9098917221 0.0
233 1 36.4943130404 71.1238917221 0.0
234 1 41.6427130404 70.3100917221 0.0
235 1 46.5696130404 69.4674917221 0.0
236 1 51.6629130404 69.8527917221 0.0
237 1 57.5435130404 69.6368917221 0.0
238 1 62.8452130404 69.1389917221 0.0
239 1 67.8938130404 68.7625917221 0.0
240 1 73.1274130404 69.1871917221 0.0
241 1 2.94068304041 74.2873917221 0.0
242 1 8.31086304041 74.5698917221 0.0
243 1 13.5830130404 74.8568917221 0.0
244 1 18.7382130404 75.2304917221 0.0
245 1 24.9730130404 74.4424917221 0.0
246 1 27.9971130404 74.7663917221 0.0
247 1 33.2663130404 75.6698917221 0.0
248 1 40.6753130404 74.8322917221 0.0
249 1 43.6576130404 74.4391917221 0.0
250 1 48.4263130404 74.1906917221 0.0
251 1 52.8963130404 72.6206917221 0.0
252 1 60.1290130404 73.7903917221 0.0
253 1 66.9341130404 73.2144917221 0.0
254 1 69.9366130404 73.3861917221 0.0
255 1 74.9993130404 74.0395917221 0.0
256 1 76.7277130404 2.59785172206 0.0
257 1 4.34493304041 2.77262172206 0.0
258 1 9.10911304041 2.93112172206 0.0
259 1 14.1577130404 3.68051172206 0.0
260 1 19.5943130404 3.86623172206 0.0
261 1 25.2384130404 3.57696172206 0.0
262 1 30.3735130404 3.77532172206 0.0
263 1 35.8298130404 3.89816172206 0.0
264 1 41.1295130404 3.34126172206 0.0
265 1 46.1891130404 3.27061172206 0.0
266 1 51.3493130404 2.06271172206 0.0
267 1 56.1681130404 1.64209172206 0.0
268 1 61.3427130404 2.14850172206 0.0
269 1 66.7915130404 2.39035172206 0.0
270 1 71.7519130404 2.46756172206 0.0
271 1 1.77778304041 7.21983172206 0.0
272 1 6.85286304041 7.56177172206 0.0
273 1 12.3434130404 6.06006172206 0.0
274 1 16.9201130404 8.36742172206 0.0
275 1 21.7912130404 8.89652172206 0.0
276 1 24.7958130404 8.79256172206 0.0
277 1 33.4569130404 10.2187917221 0.0
278 1 36.2121130404 9.04482172206 0.0
279 1 43.0814130404 8.06928172206 0.0
280 1 48.1035130404 7.95121172206 0.0
281 1 51.0510130404 7.26575172206 0.0
282 1 58.2980130404 6.16850172206 0.0
283 1 63.7945130404 6.57084172206 0.0
284 1 69.0448130404 7.10187172206 0.0
285 1 74.0354130404 7.22793172206 0.0
286 1 76.5086130404 11.4411917221 0.0
287 1 4.42651304041 11.8883917221 0.0
288 1 9.49691304041 12.3976917221 0.0
289 1 14.4324130404 12.9383917221 0.0
290 1 19.1564130404 13.3849917221 0.0
291 1 24.2573130404 13.5536917221 0.0
292 1 29.2234130404 12.1861917221 0.0
293 1 34.4534130404 13.0544917221 0.0
294 1 40.0165130404 12.9304917221 0.0
295 1 46.9941130404 13.7564917221 0.0
296 1 51.0154130404 11.7979917221 0.0
297 1 55.7810130404 10.6919917221 0.0
298 1 60.9956130404 10.6416917221 0.0
299 1 66.2193130404 11.3796917221 0.0
300 1 71.3103130404 12.0175917221 0.0
301 1 1.92322304041 15.9538917221 0.0
302 1 6.99461304041 16.8547917221 0.0
303 1 11.9987130404 17.2867917221 0.0
304 1 17.6590130404 15.9756917221 0.0
305 1 22.4867130404 18.1475917221 0.0
306 1 27.9200130404 17.1797917221 0.0
307 1 33.0756130404 15.7355917221 0.0
308 1 37.9111130404 18.2419917221 0.0
309 1 42.8952130404 16.4519917221 0.0
310 1 48.6869130404 16.2631917221 0.0
311 1 54.0424130404 15.9132917221 0.0
312 1 58.5755130404 15.2919917221 0.0
313 1 63.2486130404 15.7017917221 0.0
314 1 68.2030130404 16.3532917221 0.0
315 1 75.1374130404 16.9787917221 0.0
316 1 0.352563040411 18.4939917221 0.0
317 1 4.26632304041 21.2239917221 0.0
318 1 9.48981304041 21.5311917221 0.0
319 1 14.9083130404 21.6988917221 0.0
320 1 20.3263130404 22.4289917221 0.0
321 1 25.8538130404 22.0652917221 0.0
322 1 30.7474130404 21.7950917221 0.0
323 1 37.8809130404 23.6859917221 0.0
324 1 42.1996130404 21.4715917221 0.0
325 1 46.7326130404 20.8008917221 0.0
326 1 51.8715130404 20.8056917221 0.0
327 1 56.8388130404 20.3302917221 0.0
328 1 62.0012130404 18.4347917221 0.0
329 1 66.0073130404 21.2851917221 0.0
330 1 71.0999130404 20.5442917221 0.0
331 1 1.86309304041 25.5570917221 0.0
332 1 6.91621304041 26.0042917221 0.0
333 1 12.1219130404 26.1048917221 0.0
334 1 17.3705130404 26.2544917221 0.0
335 1 23.0400130404 26.5338917221 0.0
336 1 28.2213130404 26.6310917221 0.0
337 1 33.2571130404 26.2356917221 0.0
338 1 39.2559130404 26.3675917221 0.0
339 1 42.2658130404 26.4472917221 0.0
340 1 49.0610130404 25.9957917221 0.0
341 1 52.0821130404 26.1703917221 0.0
342 1 58.7029130404 25.2216917221 0.0
343 1 63.9494130404 25.3854917221 0.0
344 1 69.4003130404 25.5449917221 0.0
345 1 74.1874130404 25.2288917221 0.0
346 1 76.9328130404 29.9491917221 0.0
347 1 5.23681304041 28.4965917221 0.0
348 1 9.81681304041 30.9934917221 0.0
349 1 14.8001130404 30.5528917221 0.0
350 1 20.2336130404 30.5049917221 0.0
351 1 25.6300130404 31.1196917221 0.0
352 1 30.9283130404 31.0318917221 0.0
353 1 35.8669130404 30.9694917221 0.0
354 1 40.9397130404 30.7022917221 0.0
355 1 46.1908130404 30.5441917221 0.0
356 1 51.1690130404 30.8244917221 0.0
357 1 56.1380130404 30.2959917221 0.0
358 1 61.0212130404 29.6849917221 0.0
359 1 66.3491130404 29.8308917221 0.0
360 1 71.8443130404 29.8790917221 0.0
361 1 2.47506304041 34.6920917221 0.0
362 1 7.67263304041 35.4056917221 0.0
363 1 12.8591130404 35.4936917221 0.0
364 1 17.6934130404 35.0571917221 0.0
365 1 22.6591130404 35.2892917221 0.0
366 1 28.1502130404 35.4388917221 0.0
367 1 33.4922130404 35.4998917221 0.0
368 1 38.7695130404 35.4197917221 0.0
369 1 43.8860130404 35.0500917221 0.0
370 1 48.9299130404 35.3040917221 0.0
371 1 54.1723130404 35.3756917221 0.0
372 1 59.2665130404 34.4866917221 0.0
373 1 64.7006130404 32.3662917221 0.0
374 1 69.7559130404 34.6116917221 0.0
375 1 74.7867130404 34.4803917221 0.0
376 1 0.209993040411 39.4441917221 0.0
377 1 5.01128304041 39.5907917221 0.0
378 1 10.4654130404 39.6885917221 0.0
379 1 15.7815130404 40.0322917221 0.0
380 1 21.0400130404 37.8255917221 0.0
381 1 25.4184130404 40.1005917221 0.0
382 1 30.7482130404 39.5638917221 0.0
383 1 35.8994130404 40.4528917221 0.0
384 1 38.9133130404 40.5419917221 0.0
385 1 45.9217130404 39.7494917221 0.0
386 1 51.1769130404 39.8428917221 0.0
387 1 58.2494130404 40.1672917221 0.0
388 1 62.5673130404 38.3611917221 0.0
389 1 67.7688130404 38.9792917221 0.0
390 1 72.8780130404 39.2348917221 0.0
391 1 2.74861304041 44.3685917221 0.0
392 1 7.76258304041 44.0907917221 0.0
393 1 12.8451130404 44.4231917221 0.0
394 1 18.1624130404 44.4946917221 0.0
395 1 23.1981130404 44.7830917221 0.0
396 1 28.3756130404 44.3161917221 0.0
397 1 32.9036130404 44.6886917221 0.0
398 1 38.1837130404 45.0068917221 0.0
399 1 43.3770130404 44.0575917221 0.0
400 1 48.7617130404 44.2691917221 0.0
401 1 54.2728130404 43.9204917221 0.0
402 1 59.9923130404 42.6300917221 0.0
403 1 65.1244130404 43.1366917221 0.0
404 1 70.4175130404 43.5422917221 0.0
405 1 75.3414130404 44.2523917221 0.0
406 1 0.471263040411 48.8652917221 0.0
407 1 5.77346304041 48.7840917221 0.0
408 1 11.2558130404 46.9834917221 0.0
409 1 15.7494130404 49.4811917221 0.0
410 1 20.6368130404 49.0235917221 0.0
411 1 26.1645130404 48.8557917221 0.0
412 1 31.7017130404 47.4347917221 0.0
413 1 36.0770130404 49.9713917221 0.0
414 1 41.2040130404 48.9237917221 0.0
415 1 46.2803130404 48.3888917221 0.0
416 1 54.0017130404 49.7276917221 0.0
417 1 58.0291130404 47.7722917221 0.0
418 1 62.5462130404 47.4731917221 0.0
419 1 67.6016130404 47.9323917221 0.0
420 1 72.4996130404 48.5088917221 0.0
421 1 3.35086304041 53.2151917221 0.0
422 1 8.56380304041 53.4256917221 0.0
423 1 13.6907130404 54.0880917221 0.0
424 1 18.7913130404 53.9590917221 0.0
425 1 23.7469130404 53.3115917221 0.0
426 1 28.7662130404 53.6070917221 0.0
427 1 34.0691130404 54.4630917221 0.0
428 1 39.4083130404 54.0497917221 0.0
429 1 44.3081130404 53.0129917221 0.0
430 1 49.6308130404 52.3474917221 0.0
431 1 55.2887130404 52.5159917221 0.0
432 1 58.2717130404 53.0073917221 0.0
433 1 65.0550130404 52.3695917221 0.0
434 1 70.7431130404 50.9626917221 0.0
435 1 75.4125130404 53.4664917221 0.0
436 1 1.13346304041 57.8358917221 0.0
437 1 6.14811304041 57.9410917221 0.0
438 1 11.1162130404 58.3370917221 0.0
439 1 16.4844130404 58.5347917221 0.0
440 1 21.8125130404 58.1248917221 0.0
441 1 27.1981130404 56.1678917221 0.0
442 1 31.8208130404 58.8908917221 0.0
443 1 37.2154130404 58.5824917221 0.0
444 1 42.6565130404 57.9404917221 0.0
445 1 47.6533130404 57.1310917221 0.0
446 1 52.3878130404 57.2887917221 0.0
447 1 57.1946130404 57.4187917221 0.0
448 1 62.4475130404 56.9031917221 0.0
449 1 67.7555130404 56.8691917221 0.0
450 1 73.0884130404 57.6746917221 0.0
451 1 3.66893304041 62.4141917221 0.0
452 1 8.76268304041 62.7117917221 0.0
453 1 13.9511130404 63.0206917221 0.0
454 1 19.2469130404 62.9325917221 0.0
455 1 24.4360130404 62.2871917221 0.0
456 1 29.5870130404 63.0783917221 0.0
457 1 34.8902130404 63.3539917221 0.0
458 1 39.7764130404 63.2704917221 0.0
459 1 42.7518130404 62.8886917221 0.0
460 1 49.7684130404 61.9842917221 0.0
461 1 54.7268130404 62.1450917221 0.0
462 1 59.9423130404 61.7839917221 0.0
463 1 65.0259130404 61.3547917221 0.0
464 1 70.1907130404 61.5809917221 0.0
465 1 75.7158130404 62.0872917221 0.0
466 1 0.942603040411 66.7113917221 0.0
467 1 6.21591304041 67.0355917221 0.0
468 1 11.4732130404 67.3513917221 0.0
469 1 16.7326130404 67.6629917221 0.0
470 1 21.9610130404 67.1826917221 0.0
471 1 26.7390130404 66.9913917221 0.0
472 1 31.9111130404 67.9284917221 0.0
473 1 36.8191130404 68.1326917221 0.0
474 1 41.8735130404 67.3355917221 0.0
475 1 47.0575130404 66.4956917221 0.0
476 1 52.1111130404 66.8352917221 0.0
477 1 57.3371130404 66.6069917221 0.0
478 1 62.5151130404 66.1348917221 0.0
479 1 67.6434130404 65.7722917221 0.0
480 1 72.9601130404 66.1858917221 0.0
481 1 3.36955304041 71.3083917221 0.0
482 1 8.70472304041 71.5828917221 0.0
483 1 14.0979130404 71.8789917221 0.0
484 1 19.4542130404 72.3263917221 0.0
485 1 22.4743130404 72.6838917221 0.0
486 1 28.7151130404 71.8527917221 0.0
487 1 33.9509130404 72.7353917221 0.0
488 1 39.3011130404 72.1719917221 0.0
489 1 44.3737130404 71.5221917221 0.0
490 1 48.9851130404 71.2270917221 0.0
491 1 55.8738130404 72.1667917221 0.0
492 1 60.3264130404 70.7879917221 0.0
493 1 65.5003130404 70.5673917221 0.0
494 1 70.3982130404 70.4217917221 0.0
495 1 75.4772130404 71.0641917221 0.0
496 1 0.220963040411 75.6010917221 0.0
497 1 5.54918304041 75.7913917221 0.0
498 1 10.8647130404 76.1663917221 0.0
499 1 16.0581130404 76.5726917221 0.0
500 1 21.0627130404 77.1271917221 0.0
501 1 24.0504130404 77.2896917221 0.0
502 1 30.3904130404 76.6584917221 0.0
503 1 35.8350130404 77.2673917221 0.0
504 1 38.8621130404 77.2198917221 0.0
505 1 46.1225130404 76.1450917221 0.0
506 1 51.2548130404 75.1939917221 0.0
507 1 57.3012130404 74.8227917221 0.0
508 1 62.4384130404 75.7060917221 0.0
509 1 65.4377130404 75.8029917221 0.0
510 1 72.2588130404 75.3096917221 0.0
511 1 5.02151304041 78.7537917221 0.0
512 1 10.3885130404 79.1399917221 0.0
513 1 17.1545130404 79.3710917221 0.0
514 1 20.0947130404 79.9548917221 0.0
515 1 24.9721130404 80.1494917221 0.0
516 1 30.3716130404 79.6964917221 0.0
517 1 35.3230130404 80.2245917221 0.0
518 1 40.5606130404 79.7120917221 0.0
519 1 45.9420130404 79.1561917221 0.0
520 1 50.9503130404 78.2226917221 0.0
521 1 56.4107130404 77.7156917221 0.0
522 1 61.6469130404 78.5942917221 0.0
523 1 66.7032130404 78.5259917221 0.0
524 1 71.9805130404 78.3133917221 0.0
525 1 77.1575130404 78.5843917221 0.0
526 1 2.35717304041 80.1749917221 0.0
527 1 7.59995304041 80.3010917221 0.0
528 1 12.7057130404 81.0596917221 0.0
529 1 15.5930130404 81.9129917221 0.0
530 1 22.4574130404 81.8092917221 0.0
531 1 27.7803130404 81.2370917221 0.0
532 1 32.6809130404 81.6675917221 0.0
533 1 38.0845130404 81.4129917221 0.0
534 1 43.3923130404 80.7940917221 0.0
535 1 48.7260130404 80.3302917221 0.0
536 1 53.7906130404 79.2270917221 0.0
537 1 58.8023130404 79.5515917221 0.0
538 1 64.1976130404 80.1779917221 0.0
539 1 69.3980130404 79.8671917221 0.0
540 1 74.4864130404 79.9889917221 0.0
541 2 2.14688304041 81.6695917221 0.0
542 2 3.11717304041 1.91011172206 0.0
543 2 0.641423040411 1.78795172206 0.0
544 2 7.19815304041 81.7555917221 0.0
545 2 7.95358304041 1.99502172206 0.0
546 2 5.55313304041 1.87740172206 0.0
547 2 12.1748130404 0.304704722056 0.0
548 2 13.0496130404 2.66359172206 0.0
549 2 10.4779130404 2.32226172206 0.0
550 2 16.3290130404 1.06982172206 0.0
551 2 18.2679130404 3.12562172206 0.0
552 2 15.5862130404 3.22524172206 0.0
553 2 22.3888130404 1.14664172206 0.0
554 2 23.7822130404 3.17797172206 0.0
555 2 20.9844130404 3.27253172206 0.0
556 2 27.8509130404 0.581500722056 0.0
557 2 29.1379130404 2.89774172206 0.0
558 2 26.5084130404 2.75727172206 0.0
559 2 32.8875130404 1.00934172206 0.0
560 2 34.4487130404 3.25958172206 0.0
561 2 31.7680130404 3.19968172206 0.0
562 2 38.2043130404 0.742222722056 0.0
563 2 39.7373130404 2.76035172206 0.0
564 2 37.0505130404 3.00806172206 0.0
565 2 43.5259130404 0.143441722056 0.0
566 2 42.3784130404 2.50197172206 0.0
567 2 44.9149130404 2.44744172206 0.0
568 2 48.5820130404 81.8493917221 0.0
569 2 49.8909130404 1.70428172206 0.0
570 2 47.3556130404 2.27187172206 0.0
571 2 53.7148130404 80.7348917221 0.0
572 2 54.9132130404 0.821545722056 0.0
573 2 52.4190130404 0.995041722056 0.0
574 2 58.8369130404 81.0556917221 0.0
575 2 60.1300130404 1.25740172206 0.0
576 2 57.5385130404 1.03421172206 0.0
577 2 64.1706130404 81.6735917221 0.0
578 2 65.4475130404 1.71298172206 0.0
579 2 62.7417130404 1.59876172206 0.0
580 2 69.3560130404 81.3766917221 0.0
581 2 68.0340130404 1.54469172206 0.0
582 2 70.5265130404 1.59335172206 0.0
583 2 74.3801130404 81.4955917221 0.0
584 2 75.5073130404 1.71962172206 0.0
585 2 73.0184130404 1.65376172206 0.0
586 2 76.6510130404 4.10540172206 0.0
587 2 0.503963040411 6.42024172206 0.0
588 2 75.3189130404 6.43368172206 0.0
589 2 4.40042304041 4.27784172206 0.0
590 2 5.63146304041 6.68248172206 0.0
591 2 3.09309304041 6.49315172206 0.0
592 2 9.13371304041 4.42394172206 0.0
593 2 10.8447130404 6.07270172206 0.0
594 2 8.14475304041 6.78871172206 0.0
595 2 13.1101130404 7.33341172206 0.0
596 2 15.4110130404 8.36143172206 0.0
597 2 12.9829130404 9.75649172206 0.0
598 2 19.5769130404 5.37827172206 0.0
599 2 20.6998130404 7.85586172206 0.0
600 2 18.1843130404 7.55899172206 0.0
601 2 25.6179130404 7.54123172206 0.0
602 2 25.7850130404 4.98183172206 0.0
603 2 27.9663130404 6.50929172206 0.0
604 2 30.0436130404 5.25251172206 0.0
605 2 30.0346130404 8.05308172206 0.0
606 2 36.8901130404 7.71288172206 0.0
607 2 36.6090130404 5.20678172206 0.0
608 2 39.0963130404 6.40050172206 0.0
609 2 40.9697130404 4.83810172206 0.0
610 2 41.8046130404 7.23880172206 0.0
611 2 45.8999130404 4.77688172206 0.0
612 2 46.8602130404 7.10154172206 0.0
613 2 44.3332130404 7.18054172206 0.0
614 2 51.8312130404 5.97834172206 0.0
615 2 51.9785130404 3.43245172206 0.0
616 2 54.2146130404 4.79509172206 0.0
617 2 55.9885130404 3.12949172206 0.0
618 2 56.9796130404 5.43349172206 0.0
619 2 61.2304130404 3.64428172206 0.0
620 2 59.7152130404 5.65063172206 0.0
621 2 62.4575130404 5.87272172206 0.0
622 2 66.7138130404 3.89233172206 0.0
623 2 67.7881130404 6.26736172206 0.0
624 2 65.1694130404 5.95638172206 0.0
625 2 71.6684130404 3.97471172206 0.0
626 2 72.8145130404 6.34910172206 0.0
627 2 70.3110130404 6.28531172206 0.0
628 2 1.85798304041 8.72253172206 0.0
629 2 3.16031304041 11.0672917221 0.0
630 2 0.521203040411 10.8227917221 0.0
631 2 7.00740304041 9.05525172206 0.0
632 2 8.30521304041 11.4763917221 0.0
633 2 5.76534304041 11.2083917221 0.0
634 2 13.2322130404 12.0588917221 0.0
635 2 10.7951130404 11.6310917221 0.0
636 2 17.0494130404 9.86893172206 0.0
637 2 18.1097130404 12.3158917221 0.0
638 2 15.6913130404 12.1268917221 0.0
639 2 21.6923130404 10.4052917221 0.0
640 2 22.9703130404 12.7802917221 0.0
641 2 20.4912130404 12.7194917221 0.0
642 2 25.5984130404 10.0673917221 0.0
643 2 27.7615130404 11.8035917221 0.0
644 2 25.3408130404 12.5215917221 0.0
645 2 32.0345130404 9.75563172206 0.0
646 2 29.8981130404 10.8322917221 0.0
647 2 36.8670130404 10.4032917221 0.0
648 2 38.6114130404 12.3861917221 0.0
649 2 35.9103130404 12.6424917221 0.0
650 2 42.7836130404 9.58252172206 0.0
651 2 43.3059130404 12.2993917221 0.0
652 2 41.1414130404 11.9188917221 0.0
653 2 47.9894130404 9.46452172206 0.0
654 2 49.5947130404 11.3400917221 0.0
655 2 47.4935130404 12.3279917221 0.0
656 2 52.0882130404 8.36663172206 0.0
657 2 54.4258130404 10.0349917221 0.0
658 2 52.0611130404 10.7367917221 0.0
659 2 58.3087130404 7.67278172206 0.0
660 2 59.6914130404 9.89415172206 0.0
661 2 57.0677130404 9.91999172206 0.0
662 2 63.8223130404 8.07489172206 0.0
663 2 65.0094130404 10.4782917221 0.0
664 2 62.3927130404 10.0953917221 0.0
665 2 69.0252130404 8.61084172206 0.0
666 2 70.1223130404 11.0781917221 0.0
667 2 67.5853130404 10.7484917221 0.0
668 2 73.8636130404 8.72695172206 0.0
669 2 75.1386130404 10.8349917221 0.0
670 2 72.5588130404 11.1556917221 0.0
671 2 76.5514130404 12.9449917221 0.0
672 2 0.712763040411 15.0603917221 0.0
673 2 75.7476130404 15.5963917221 0.0
674 2 4.59409304041 13.3858917221 0.0
675 2 5.84816304041 15.8743917221 0.0
676 2 3.33472304041 15.4756917221 0.0
677 2 9.56531304041 13.9054917221 0.0
678 2 10.8205130404 16.3475917221 0.0
679 2 8.31736304041 16.1434917221 0.0
680 2 14.4857130404 14.4256917221 0.0
681 2 16.1612130404 16.0727917221 0.0
682 2 13.3686130404 16.6568917221 0.0
683 2 18.5756130404 17.1470917221 0.0
684 2 20.9756130404 18.1422917221 0.0
685 2 18.5832130404 19.5349917221 0.0
686 2 24.6032130404 15.0081917221 0.0
687 2 26.4478130404 16.8220917221 0.0
688 2 23.7183130404 17.2864917221 0.0
689 2 29.6948130404 13.6266917221 0.0
690 2 31.5798130404 15.4825917221 0.0
691 2 29.0302130404 16.1538917221 0.0
692 2 33.9539130404 16.9703917221 0.0
693 2 36.3936130404 18.1608917221 0.0
694 2 34.2408130404 19.5574917221 0.0
695 2 41.3924130404 16.3209917221 0.0
696 2 39.9322130404 14.4455917221 0.0
697 2 38.8662130404 17.0563917221 0.0
698 2 45.4965130404 13.7057917221 0.0
699 2 43.4592130404 15.0500917221 0.0
700 2 51.1919130404 13.2821917221 0.0
701 2 52.6451130404 15.3781917221 0.0
702 2 50.0190130404 15.5624917221 0.0
703 2 55.8989130404 12.1959917221 0.0
704 2 57.3328130404 14.4641917221 0.0
705 2 55.0271130404 14.7882917221 0.0
706 2 61.0294130404 12.1458917221 0.0
707 2 62.2034130404 14.6230917221 0.0
708 2 59.8058130404 14.4410917221 0.0
709 2 66.0814130404 12.8824917221 0.0
710 2 67.0561130404 15.3851917221 0.0
711 2 64.6106130404 15.0806917221 0.0
712 2 71.1637130404 13.5319917221 0.0
713 2 71.6253130404 16.3578917221 0.0
714 2 69.5094130404 15.6166917221 0.0
715 2 0.738963040411 19.9280917221 0.0
716 2 2.75845304041 21.2069917221 0.0
717 2 0.266603040411 22.4753917221 0.0
718 2 5.57628304041 20.4812917221 0.0
719 2 8.22660304041 20.6974917221 0.0
720 2 6.96809304041 18.3593917221 0.0
721 2 13.5884130404 20.9659917221 0.0
722 2 12.1063130404 18.7842917221 0.0
723 2 10.8741130404 20.9258917221 0.0
724 2 19.0103130404 21.7141917221 0.0
725 2 16.3353130404 21.1886917221 0.0
726 2 22.8125130404 19.6107917221 0.0
727 2 24.4312130404 21.5750917221 0.0
728 2 21.6880130404 21.7943917221 0.0
729 2 28.1064130404 18.6819917221 0.0
730 2 29.5069130404 20.9462917221 0.0
731 2 27.0187130404 21.1168917221 0.0
732 2 34.2937130404 22.2963917221 0.0
733 2 32.1521130404 21.2569917221 0.0
734 2 38.5558130404 19.6215917221 0.0
735 2 40.7147130404 21.2225917221 0.0
736 2 38.5306130404 22.3277917221 0.0
737 2 43.6109130404 17.7892917221 0.0
738 2 45.4857130404 19.9410917221 0.0
739 2 43.1246130404 20.2873917221 0.0
740 2 48.9455130404 17.7511917221 0.0
741 2 50.5566130404 20.0565917221 0.0
742 2 48.0182130404 20.0282917221 0.0
743 2 54.1523130404 17.4067917221 0.0
744 2 55.5252130404 19.6011917221 0.0
745 2 53.0049130404 19.8111917221 0.0
746 2 58.7045130404 16.7856917221 0.0
747 2 60.5004130404 18.4045917221 0.0
748 2 57.9817130404 19.3520917221 0.0
749 2 62.5109130404 19.8393917221 0.0
750 2 64.5044130404 21.2395917221 0.0
751 2 62.0779130404 22.4566917221 0.0
752 2 68.2153130404 17.8620917221 0.0
753 2 69.6755130404 20.0281917221 0.0
754 2 67.1136130404 20.2661917221 0.0
755 2 73.7165130404 17.4163917221 0.0
756 2 71.7781130404 19.1762917221 0.0
757 2 0.622163040411 24.7309917221 0.0
758 2 75.4777130404 24.4295917221 0.0
759 2 4.49253304041 22.7095917221 0.0
760 2 5.76856304041 25.0328917221 0.0
761 2 3.19582304041 24.8696917221 0.0
762 2 9.50421304041 23.0415917221 0.0
763 2 10.8378130404 25.3227917221 0.0
764 2 8.26566304041 25.3455917221 0.0
765 2 14.8378130404 23.2048917221 0.0
766 2 16.0869130404 25.4737917221 0.0
767 2 13.4548130404 25.4063917221 0.0
768 2 20.3003130404 23.9183917221 0.0
769 2 21.6334130404 26.0027917221 0.0
770 2 18.8155130404 25.8384917221 0.0
771 2 24.3303130404 25.7659917221 0.0
772 2 26.9236130404 25.8742917221 0.0
773 2 25.8032130404 23.5690917221 0.0
774 2 31.9045130404 25.5712917221 0.0
775 2 30.6335130404 23.3017917221 0.0
776 2 29.4122130404 25.7145917221 0.0
777 2 36.3804130404 23.7070917221 0.0
778 2 34.1555130404 25.0160917221 0.0
779 2 43.1097130404 25.2117917221 0.0
780 2 43.0350130404 22.7299917221 0.0
781 2 45.4260130404 23.9920917221 0.0
782 2 46.9197130404 22.3000917221 0.0
783 2 48.0153130404 24.8869917221 0.0
784 2 52.7450130404 24.8157917221 0.0
785 2 52.5186130404 22.1785917221 0.0
786 2 54.8723130404 23.4292917221 0.0