ITEM: TIMESTEP
0
ITEM: NUMBER OF ATOMS
1350
ITEM: BOX BOUNDS xy xz yz pp pp pp
0.0 77.4126995926 0
0.0 81.87919626 0
-10.0 10.0 0
ITEM: ATOMS id type x y z vx vy vz
1 1 2.04508757313 1.74537812998 0.0 0.0 0.0 0.0
2 1 7.68057757313 2.11054812998 0.0 0.0 0.0 0.0
3 1 12.9941875731 1.22719812998 0.0 0.0 0.0 0.0
4 1 17.9111875731 1.32313812998 0.0 0.0 0.0 0.0
5 1 22.9760875731 1.29356812998 0.0 0.0 0.0 0.0
6 1 28.3818875731 1.52089812998 0.0 0.0 0.0 0.0
7 1 33.7442875731 2.26214812998 0.0 0.0 0.0 0.0
8 1 38.8380875731 2.09233812998 0.0 0.0 0.0 0.0
9 1 43.6387875731 1.67762812998 0.0 0.0 0.0 0.0
10 1 48.5829875731 1.05636812998 0.0 0.0 0.0 0.0
11 1 53.8970875731 1.11407812998 0.0 0.0 0.0 0.0
12 1 59.1039875731 1.46666812998 0.0 0.0 0.0 0.0
13 1 64.0824875731 1.69880812998 0.0 0.0 0.0 0.0
14 1 69.0861875731 1.48375812998 0.0 0.0 0.0 0.0
15 1 74.1313875731 0.846698129982 0.0 0.0 0.0 0.0
16 1 76.2692875731 5.54263812998 0.0 0.0 0.0 0.0
17 1 3.13294757313 4.55633812998 0.0 0.0 0.0 0.0
18 1 10.3194875731 5.97415812998 0.0 0.0 0.0 0.0
19 1 15.2715875731 6.04421812998 0.0 0.0 0.0 0.0
20 1 21.0238875731 5.90766812998 0.0 0.0 0.0 0.0
21 1 26.0848875731 5.66570812998 0.0 0.0 0.0 0.0
22 1 31.0520875731 6.15935812998 0.0 0.0 0.0 0.0
23 1 36.1607875731 6.78449812998 0.0 0.0 0.0 0.0
24 1 41.3649875731 6.72225812998 0.0 0.0 0.0 0.0
25 1 47.8245875731 5.64509812998 0.0 0.0 0.0 0.0
26 1 50.8212875731 5.44382812998 0.0 0.0 0.0 0.0
27 1 55.9108875731 5.73755812998 0.0 0.0 0.0 0.0
28 1 61.0750875731 6.28084812998 0.0 0.0 0.0 0.0
29 1 66.4765875731 6.29270812998 0.0 0.0 0.0 0.0
30 1 73.2746875731 5.37538812998 0.0 0.0 0.0 0.0
31 1 1.91743757313 10.05419813 0.0 0.0 0.0 0.0
32 1 7.40628757313 10.30109813 0.0 0.0 0.0 0.0
33 1 12.8264875731 10.70469813 0.0 0.0 0.0 0.0
34 1 16.7650875731 8.65562812998 0.0 0.0 0.0 0.0
35 1 24.0930875731 10.34639813 0.0 0.0 0.0 0.0
36 1 28.8074875731 10.51759813 0.0 0.0 0.0 0.0
37 1 32.9408875731 13.31779813 0.0 0.0 0.0 0.0
38 1 38.2974875731 11.26729813 0.0 0.0 0.0 0.0
39 1 43.5600875731 11.44889813 0.0 0.0 0.0 0.0
40 1 48.5825875731 10.96489813 0.0 0.0 0.0 0.0
41 1 53.5891875731 10.18029813 0.0 0.0 0.0 0.0
42 1 57.9989875731 12.71169813 0.0 0.0 0.0 0.0
43 1 63.4928875731 10.67189813 0.0 0.0 0.0 0.0
44 1 68.8790875731 10.91209813 0.0 0.0 0.0 0.0
45 1 73.8910875731 10.48819813 0.0 0.0 0.0 0.0
46 1 77.0438875731 14.60729813 0.0 0.0 0.0 0.0
47 1 4.87657757313 14.47029813 0.0 0.0 0.0 0.0
48 1 10.3035875731 14.83569813 0.0 0.0 0.0 0.0
49 1 17.6217875731 13.87609813 0.0 0.0 0.0 0.0
50 1 20.6435875731 14.20139813 0.0 0.0 0.0 0.0
51 1 25.9291875731 15.26649813 0.0 0.0 0.0 0.0
52 1 31.2693875731 15.82759813 0.0 0.0 0.0 0.0
53 1 36.1841875731 16.15359813 0.0 0.0 0.0 0.0
54 1 41.2496875731 15.78679813 0.0 0.0 0.0 0.0
55 1 46.5749875731 15.81789813 0.0 0.0 0.0 0.0
56 1 51.5287875731 15.26699813 0.0 0.0 0.0 0.0
57 1 56.5679875731 15.37689813 0.0 0.0 0.0 0.0
58 1 61.5635875731 15.33409813 0.0 0.0 0.0 0.0
59 1 66.9651875731 15.01689813 0.0 0.0 0.0 0.0
60 1 71.9932875731 15.30939813 0.0 0.0 0.0 0.0
61 1 2.35884757313 19.05769813 0.0 0.0 0.0 0.0
62 1 7.49835757313 18.99759813 0.0 0.0 0.0 0.0
63 1 12.5944875731 19.32619813 0.0 0.0 0.0 0.0
64 1 17.6429875731 18.91139813 0.0 0.0 0.0 0.0
65 1 23.2200875731 19.15649813 0.0 0.0 0.0 0.0
66 1 28.3227875731 19.95659813 0.0 0.0 0.0 0.0
67 1 33.5161875731 20.70889813 0.0 0.0 0.0 0.0
68 1 38.7015875731 20.55449813 0.0 0.0 0.0 0.0
69 1 43.9183875731 20.18819813 0.0 0.0 0.0 0.0
70 1 48.7850875731 20.24429813 0.0 0.0 0.0 0.0
71 1 53.8006875731 20.03679813 0.0 0.0 0.0 0.0
72 1 59.5487875731 19.97079813 0.0 0.0 0.0 0.0
73 1 64.9377875731 19.37169813 0.0 0.0 0.0 0.0
74 1 69.8035875731 19.78569813 0.0 0.0 0.0 0.0
75 1 74.6441875731 19.56859813 0.0 0.0 0.0 0.0
76 1 77.3217875731 23.87219813 0.0 0.0 0.0 0.0
77 1 5.18391757313 23.59679813 0.0 0.0 0.0 0.0
78 1 10.3389875731 23.73019813 0.0 0.0 0.0 0.0
79 1 15.4283875731 23.71909813 0.0 0.0 0.0 0.0
80 1 20.6753875731 23.20539813 0.0 0.0 0.0 0.0
81 1 25.8263875731 24.17369813 0.0 0.0 0.0 0.0
82 1 30.9999875731 24.81949813 0.0 0.0 0.0 0.0
83 1 36.5342875731 25.13779813 0.0 0.0 0.0 0.0
84 1 42.0426875731 24.76759813 0.0 0.0 0.0 0.0
85 1 46.9071875731 27.16479813 0.0 0.0 0.0 0.0
86 1 51.8024875731 24.79239813 0.0 0.0 0.0 0.0
87 1 55.4752875731 22.55109813 0.0 0.0 0.0 0.0
88 1 62.8717875731 23.84879813 0.0 0.0 0.0 0.0
89 1 66.8428875731 26.78179813 0.0 0.0 0.0 0.0
90 1 72.0723875731 24.47309813 0.0 0.0 0.0 0.0
91 1 2.92867757313 28.16039813 0.0 0.0 0.0 0.0
92 1 8.17539757313 28.18119813 0.0 0.0 0.0 0.0
93 1 13.4251875731 28.28719813 0.0 0.0 0.0 0.0
94 1 18.6592875731 27.85859813 0.0 0.0 0.0 0.0
95 1 23.2779875731 30.42039813 0.0 0.0 0.0 0.0
96 1 28.7395875731 29.04279813 0.0 0.0 0.0 0.0
97 1 33.9542875731 29.22069813 0.0 0.0 0.0 0.0
98 1 39.5594875731 29.22419813 0.0 0.0 0.0 0.0
99 1 45.0966875731 29.59549813 0.0 0.0 0.0 0.0
100 1 52.0752875731 29.35419813 0.0 0.0 0.0 0.0
101 1 56.6701875731 27.82899813 0.0 0.0 0.0 0.0
102 1 59.6891875731 28.16949813 0.0 0.0 0.0 0.0
103 1 65.0083875731 29.18039813 0.0 0.0 0.0 0.0
104 1 70.1022875731 29.51159813 0.0 0.0 0.0 0.0
105 1 74.9907875731 28.62429813 0.0 0.0 0.0 0.0
106 1 0.549397573126 32.71939813 0.0 0.0 0.0 0.0
107 1 5.82737757313 32.62569813 0.0 0.0 0.0 0.0
108 1 10.8459875731 32.71469813 0.0 0.0 0.0 0.0
109 1 16.1484875731 32.56889813 0.0 0.0 0.0 0.0
110 1 21.6727875731 32.96839813 0.0 0.0 0.0 0.0
111 1 26.8887875731 33.73359813 0.0 0.0 0.0 0.0
112 1 31.7943875731 33.68799813 0.0 0.0 0.0 0.0
113 1 36.6592875731 33.39049813 0.0 0.0 0.0 0.0
114 1 41.7637875731 33.63869813 0.0 0.0 0.0 0.0
115 1 46.4027875731 34.70679813 0.0 0.0 0.0 0.0
116 1 51.4458875731 34.33629813 0.0 0.0 0.0 0.0
117 1 56.6269875731 32.88069813 0.0 0.0 0.0 0.0
118 1 62.0775875731 33.08559813 0.0 0.0 0.0 0.0
119 1 67.3998875731 33.94489813 0.0 0.0 0.0 0.0
120 1 72.7932875731 33.74799813 0.0 0.0 0.0 0.0
121 1 2.93575757313 37.08329813 0.0 0.0 0.0 0.0
122 1 7.95101757313 37.31969813 0.0 0.0 0.0 0.0
123 1 13.0531875731 37.04759813 0.0 0.0 0.0 0.0
124 1 18.3138875731 36.93439813 0.0 0.0 0.0 0.0
125 1 23.8483875731 37.76189813 0.0 0.0 0.0 0.0
126 1 29.4429875731 38.48749813 0.0 0.0 0.0 0.0
127 1 35.4917875731 38.13109813 0.0 0.0 0.0 0.0
128 1 38.5047875731 38.04719813 0.0 0.0 0.0 0.0
129 1 43.3128875731 38.95249813 0.0 0.0 0.0 0.0
130 1 49.5530875731 39.05559813 0.0 0.0 0.0 0.0
131 1 54.7365875731 37.87139813 0.0 0.0 0.0 0.0
132 1 59.7471875731 37.35929813 0.0 0.0 0.0 0.0
133 1 64.8084875731 37.91169813 0.0 0.0 0.0 0.0
134 1 70.1148875731 38.22259813 0.0 0.0 0.0 0.0
135 1 77.3443875731 37.14489813 0.0 0.0 0.0 0.0
136 1 0.109317573126 42.18989813 0.0 0.0 0.0 0.0
137 1 5.31728757313 41.88349813 0.0 0.0 0.0 0.0
138 1 10.3275875731 41.78939813 0.0 0.0 0.0 0.0
139 1 15.1387875731 41.41299813 0.0 0.0 0.0 0.0
140 1 20.4852875731 41.40309813 0.0 0.0 0.0 0.0
141 1 25.8910875731 42.11229813 0.0 0.0 0.0 0.0
142 1 30.6977875731 43.63099813 0.0 0.0 0.0 0.0
143 1 35.9832875731 43.67289813 0.0 0.0 0.0 0.0
144 1 41.1769875731 43.19829813 0.0 0.0 0.0 0.0
145 1 44.8979875731 41.51189813 0.0 0.0 0.0 0.0
146 1 52.0609875731 42.76909813 0.0 0.0 0.0 0.0
147 1 56.7064875731 42.18199813 0.0 0.0 0.0 0.0
148 1 61.9293875731 42.28229813 0.0 0.0 0.0 0.0
149 1 67.5390875731 42.54159813 0.0 0.0 0.0 0.0
150 1 72.7672875731 42.60389813 0.0 0.0 0.0 0.0
151 1 3.01378757313 46.55029813 0.0 0.0 0.0 0.0
152 1 7.99379757313 46.52999813 0.0 0.0 0.0 0.0
153 1 12.8263875731 46.41689813 0.0 0.0 0.0 0.0
154 1 17.5452875731 45.72909813 0.0 0.0 0.0 0.0
155 1 22.8699875731 45.96009813 0.0 0.0 0.0 0.0
156 1 27.4537875731 47.39159813 0.0 0.0 0.0 0.0
157 1 31.8627875731 46.40559813 0.0 0.0 0.0 0.0
158 1 39.3454875731 47.90549813 0.0 0.0 0.0 0.0
159 1 45.6904875731 46.89359813 0.0 0.0 0.0 0.0
160 1 48.7168875731 47.04839813 0.0 0.0 0.0 0.0
161 1 53.7688875731 47.23149813 0.0 0.0 0.0 0.0
162 1 59.0693875731 46.67919813 0.0 0.0 0.0 0.0
163 1 63.2134875731 45.01259813 0.0 0.0 0.0 0.0
164 1 70.3024875731 47.01409813 0.0 0.0 0.0 0.0
165 1 75.4245875731 47.18599813 0.0 0.0 0.0 0.0
166 1 0.427627573126 51.47749813 0.0 0.0 0.0 0.0
167 1 5.46221757313 51.24799813 0.0 0.0 0.0 0.0
168 1 10.5250875731 51.28809813 0.0 0.0 0.0 0.0
169 1 16.9950875731 50.44779813 0.0 0.0 0.0 0.0
170 1 19.9775875731 50.16689813 0.0 0.0 0.0 0.0
171 1 24.5933875731 53.27709813 0.0 0.0 0.0 0.0
172 1 30.2873875731 51.81449813 0.0 0.0 0.0 0.0
173 1 35.9224875731 51.93049813 0.0 0.0 0.0 0.0
174 1 41.2676875731 52.81989813 0.0 0.0 0.0 0.0
175 1 46.2530875731 52.36989813 0.0 0.0 0.0 0.0
176 1 51.6635875731 51.81859813 0.0 0.0 0.0 0.0
177 1 56.9592875731 51.28699813 0.0 0.0 0.0 0.0
178 1 62.2327875731 50.71419813 0.0 0.0 0.0 0.0
179 1 67.2739875731 50.98159813 0.0 0.0 0.0 0.0
180 1 72.5830875731 51.63669813 0.0 0.0 0.0 0.0
181 1 2.72113757313 56.00149813 0.0 0.0 0.0 0.0
182 1 7.63189757313 55.90119813 0.0 0.0 0.0 0.0
183 1 12.5544875731 56.18239813 0.0 0.0 0.0 0.0
184 1 17.4094875731 55.79119813 0.0 0.0 0.0 0.0
185 1 22.8318875731 55.71749813 0.0 0.0 0.0 0.0
186 1 27.9079875731 56.19569813 0.0 0.0 0.0 0.0
187 1 32.8789875731 55.96989813 0.0 0.0 0.0 0.0
188 1 38.2054875731 56.70449813 0.0 0.0 0.0 0.0
189 1 44.4653875731 57.25859813 0.0 0.0 0.0 0.0
190 1 49.6803875731 56.43129813 0.0 0.0 0.0 0.0
191 1 56.3830875731 55.34859813 0.0 0.0 0.0 0.0
192 1 59.4161875731 55.40579813 0.0 0.0 0.0 0.0
193 1 64.4536875731 55.50159813 0.0 0.0 0.0 0.0
194 1 69.8777875731 55.69009813 0.0 0.0 0.0 0.0
195 1 75.1389875731 56.01779813 0.0 0.0 0.0 0.0
196 1 0.110487573126 60.70089813 0.0 0.0 0.0 0.0
197 1 5.02834757313 60.69449813 0.0 0.0 0.0 0.0
198 1 10.0703875731 60.75329813 0.0 0.0 0.0 0.0
199 1 15.2451875731 60.73229813 0.0 0.0 0.0 0.0
200 1 20.0488875731 60.07929813 0.0 0.0 0.0 0.0
201 1 25.0761875731 60.49899813 0.0 0.0 0.0 0.0
202 1 29.9646875731 60.72299813 0.0 0.0 0.0 0.0
203 1 35.1722875731 60.64729813 0.0 0.0 0.0 0.0
204 1 39.9480875731 59.15849813 0.0 0.0 0.0 0.0
205 1 47.0705875731 61.29159813 0.0 0.0 0.0 0.0
206 1 51.7939875731 61.16649813 0.0 0.0 0.0 0.0
207 1 57.0532875731 60.46379813 0.0 0.0 0.0 0.0
208 1 62.3637875731 60.14469813 0.0 0.0 0.0 0.0
209 1 67.3946875731 59.89809813 0.0 0.0 0.0 0.0
210 1 72.6311875731 60.31199813 0.0 0.0 0.0 0.0
211 1 2.52740757313 65.45499813 0.0 0.0 0.0 0.0
212 1 7.53092757313 65.36729813 0.0 0.0 0.0 0.0
213 1 12.9711875731 65.25299813 0.0 0.0 0.0 0.0
214 1 18.2212875731 65.16029813 0.0 0.0 0.0 0.0
215 1 23.0257875731 64.83889813 0.0 0.0 0.0 0.0
216 1 27.5263875731 67.57909813 0.0 0.0 0.0 0.0
217 1 32.6296875731 65.15489813 0.0 0.0 0.0 0.0
218 1 38.3984875731 64.45689813 0.0 0.0 0.0 0.0
219 1 43.8677875731 65.50069813 0.0 0.0 0.0 0.0
220 1 49.6816875731 66.10059813 0.0 0.0 0.0 0.0
221 1 55.0134875731 65.15979813 0.0 0.0 0.0 0.0
222 1 60.2621875731 64.73729813 0.0 0.0 0.0 0.0
223 1 66.5712875731 64.27149813 0.0 0.0 0.0 0.0
224 1 69.5840875731 64.54609813 0.0 0.0 0.0 0.0
225 1 74.7263875731 65.26159813 0.0 0.0 0.0 0.0
226 1 0.0306215731259 69.90449813 0.0 0.0 0.0 0.0
227 1 5.32588757313 70.11269813 0.0 0.0 0.0 0.0
228 1 10.5044875731 69.57929813 0.0 0.0 0.0 0.0
229 1 15.8696875731 69.67569813 0.0 0.0 0.0 0.0
230 1 21.0133875731 69.80509813 0.0 0.0 0.0 0.0
231 1 26.3617875731 70.35159813 0.0 0.0 0.0 0.0
232 1 31.1616875731 70.23369813 0.0 0.0 0.0 0.0
233 1 35.7876875731 68.54359813 0.0 0.0 0.0 0.0
234 1 40.9971875731 69.09159813 0.0 0.0 0.0 0.0
235 1 44.9754875731 68.33929813 0.0 0.0 0.0 0.0
236 1 54.0814875731 69.48579813 0.0 0.0 0.0 0.0
237 1 57.0743875731 69.30629813 0.0 0.0 0.0 0.0
238 1 61.8333875731 69.86179813 0.0 0.0 0.0 0.0
239 1 66.7281875731 69.71559813 0.0 0.0 0.0 0.0
240 1 72.0599875731 69.48299813 0.0 0.0 0.0 0.0
241 1 2.74091757313 74.50349813 0.0 0.0 0.0 0.0
242 1 9.70788757313 73.91679813 0.0 0.0 0.0 0.0
243 1 12.7320875731 73.95439813 0.0 0.0 0.0 0.0
244 1 18.0216875731 74.30439813 0.0 0.0 0.0 0.0
245 1 23.4792875731 74.44859813 0.0 0.0 0.0 0.0
246 1 29.1070875731 75.08119813 0.0 0.0 0.0 0.0
247 1 37.5711875731 75.45639813 0.0 0.0 0.0 0.0
248 1 36.5226875731 72.65989813 0.0 0.0 0.0 0.0
249 1 42.9219875731 73.94109813 0.0 0.0 0.0 0.0
250 1 48.2391875731 74.17599813 0.0 0.0 0.0 0.0
251 1 53.5126875731 74.50119813 0.0 0.0 0.0 0.0
252 1 58.9958875731 74.36719813 0.0 0.0 0.0 0.0
253 1 64.2531875731 74.53459813 0.0 0.0 0.0 0.0
254 1 69.3919875731 74.03769813 0.0 0.0 0.0 0.0
255 1 74.7228875731 74.08879813 0.0 0.0 0.0 0.0
256 1 76.5856875731 2.56295812998 0.0 0.0 0.0 0.0
257 1 6.12318757313 4.68843812998 0.0 0.0 0.0 0.0
258 1 10.5504875731 2.97865812998 0.0 0.0 0.0 0.0
259 1 15.4224875731 3.02149812998 0.0 0.0 0.0 0.0
260 1 20.4573875731 2.94101812998 0.0 0.0 0.0 0.0
261 1 25.6297875731 2.70643812998 0.0 0.0 0.0 0.0
262 1 30.8907875731 3.17342812998 0.0 0.0 0.0 0.0
263 1 36.3393875731 3.77797812998 0.0 0.0 0.0 0.0
264 1 41.3919875731 3.69307812998 0.0 0.0 0.0 0.0
265 1 46.3294875731 3.03220812998 0.0 0.0 0.0 0.0
266 1 51.2272875731 2.47435812998 0.0 0.0 0.0 0.0
267 1 56.3966875731 2.77258812998 0.0 0.0 0.0 0.0
268 1 61.5081875731 3.28397812998 0.0 0.0 0.0 0.0
269 1 66.6534875731 3.27271812998 0.0 0.0 0.0 0.0
270 1 71.8136875731 2.74699812998 0.0 0.0 0.0 0.0
271 1 1.45159757313 7.06294812998 0.0 0.0 0.0 0.0
272 1 7.62509757313 7.29217812998 0.0 0.0 0.0 0.0
273 1 12.7656875731 7.69416812998 0.0 0.0 0.0 0.0
274 1 19.7499875731 8.62737812998 0.0 0.0 0.0 0.0
275 1 23.6422875731 7.37473812998 0.0 0.0 0.0 0.0
276 1 28.4058875731 7.55157812998 0.0 0.0 0.0 0.0
277 1 33.4094875731 8.00775812998 0.0 0.0 0.0 0.0
278 1 38.7699875731 8.28461812998 0.0 0.0 0.0 0.0
279 1 43.8383875731 8.46166812998 0.0 0.0 0.0 0.0
280 1 46.8557875731 8.48119812998 0.0 0.0 0.0 0.0
281 1 53.2675875731 7.18850812998 0.0 0.0 0.0 0.0
282 1 58.3119875731 7.54670812998 0.0 0.0 0.0 0.0
283 1 63.7670875731 7.66270812998 0.0 0.0 0.0 0.0
284 1 69.0296875731 7.92016812998 0.0 0.0 0.0 0.0
285 1 72.0420875731 8.09504812998 0.0 0.0 0.0 0.0
286 1 76.7187875731 11.59429813 0.0 0.0 0.0 0.0
287 1 4.61049757313 11.45859813 0.0 0.0 0.0 0.0
288 1 10.0259875731 11.83269813 0.0 0.0 0.0 0.0
289 1 15.7416875731 11.49069813 0.0 0.0 0.0 0.0
290 1 21.2399875731 11.24749813 0.0 0.0 0.0 0.0
291 1 26.3867875731 12.28979813 0.0 0.0 0.0 0.0
292 1 31.8086875731 10.55199813 0.0 0.0 0.0 0.0
293 1 35.9463875731 13.16299813 0.0 0.0 0.0 0.0
294 1 40.8827875731 12.80559813 0.0 0.0 0.0 0.0
295 1 46.2314875731 12.83619813 0.0 0.0 0.0 0.0
296 1 51.3436875731 12.22329813 0.0 0.0 0.0 0.0
297 1 56.6112875731 10.05189813 0.0 0.0 0.0 0.0
298 1 61.0030875731 12.38879813 0.0 0.0 0.0 0.0
299 1 66.1391875731 12.12729813 0.0 0.0 0.0 0.0
300 1 71.5296875731 12.34549813 0.0 0.0 0.0 0.0
301 1 2.29349757313 16.03669813 0.0 0.0 0.0 0.0
302 1 7.50444757313 15.98079813 0.0 0.0 0.0 0.0
303 1 12.9379875731 16.34369813 0.0 0.0 0.0 0.0
304 1 15.9699875731 16.38799813 0.0 0.0 0.0 0.0
305 1 23.0230875731 16.12499813 0.0 0.0 0.0 0.0
306 1 28.4561875731 16.93499813 0.0 0.0 0.0 0.0
307 1 33.6112875731 17.70769813 0.0 0.0 0.0 0.0
308 1 38.8284875731 17.55789813 0.0 0.0 0.0 0.0
309 1 43.9058875731 17.18909813 0.0 0.0 0.0 0.0
310 1 49.2248875731 17.24099813 0.0 0.0 0.0 0.0
311 1 54.0119875731 16.99779813 0.0 0.0 0.0 0.0
312 1 59.0767875731 17.01599813 0.0 0.0 0.0 0.0
313 1 64.3429875731 16.44769813 0.0 0.0 0.0 0.0
314 1 69.3926875731 16.80369813 0.0 0.0 0.0 0.0
315 1 74.7305875731 16.55129813 0.0 0.0 0.0 0.0
316 1 77.3557875731 20.85969813 0.0 0.0 0.0 0.0
317 1 4.95056757313 20.59299813 0.0 0.0 0.0 0.0
318 1 9.95178757313 20.74559813 0.0 0.0 0.0 0.0
319 1 15.2516875731 20.72799813 0.0 0.0 0.0 0.0
320 1 20.3876875731 20.20289813 0.0 0.0 0.0 0.0
321 1 25.5420875731 21.14149813 0.0 0.0 0.0 0.0
322 1 30.7166875731 21.81359813 0.0 0.0 0.0 0.0
323 1 36.1583875731 22.15289813 0.0 0.0 0.0 0.0
324 1 41.4136875731 21.83289813 0.0 0.0 0.0 0.0
325 1 46.3152875731 21.99269813 0.0 0.0 0.0 0.0
326 1 51.3556875731 21.80129813 0.0 0.0 0.0 0.0
327 1 58.4557875731 22.75999813 0.0 0.0 0.0 0.0
328 1 62.3803875731 20.90169813 0.0 0.0 0.0 0.0
329 1 67.2238875731 21.29869813 0.0 0.0 0.0 0.0
330 1 72.2948875731 21.46119813 0.0 0.0 0.0 0.0
331 1 2.62344757313 25.17099813 0.0 0.0 0.0 0.0
332 1 7.72890757313 25.20839813 0.0 0.0 0.0 0.0
333 1 12.8945875731 25.32499813 0.0 0.0 0.0 0.0
334 1 18.1884875731 24.89309813 0.0 0.0 0.0 0.0
335 1 22.9713875731 25.15869813 0.0 0.0 0.0 0.0
336 1 28.2366875731 26.04699813 0.0 0.0 0.0 0.0
337 1 33.7014875731 26.21579813 0.0 0.0 0.0 0.0
338 1 39.3775875731 26.21439813 0.0 0.0 0.0 0.0
339 1 45.0788875731 24.75619813 0.0 0.0 0.0 0.0
340 1 49.9584875731 27.17009813 0.0 0.0 0.0 0.0
341 1 54.7422875731 25.47389813 0.0 0.0 0.0 0.0
342 1 60.2109875731 25.20749813 0.0 0.0 0.0 0.0
343 1 65.8583875731 23.96479813 0.0 0.0 0.0 0.0
344 1 69.8456875731 26.52249813 0.0 0.0 0.0 0.0
345 1 74.8581875731 25.61529813 0.0 0.0 0.0 0.0
346 1 0.368417573126 29.72789813 0.0 0.0 0.0 0.0
347 1 5.54998757313 29.63609813 0.0 0.0 0.0 0.0
348 1 10.7722875731 29.70849813 0.0 0.0 0.0 0.0
349 1 16.1637875731 29.55669813 0.0 0.0 0.0 0.0
350 1 21.6727875731 27.88019813 0.0 0.0 0.0 0.0
351 1 26.2778875731 30.78519813 0.0 0.0 0.0 0.0
352 1 31.3069875731 30.68749813 0.0 0.0 0.0 0.0
353 1 36.7557875731 30.37809813 0.0 0.0 0.0 0.0
354 1 42.2417875731 30.64569813 0.0 0.0 0.0 0.0
355 1 47.1396875731 31.80009813 0.0 0.0 0.0 0.0
356 1 50.1414875731 31.64229813 0.0 0.0 0.0 0.0
357 1 54.9745875731 30.31439813 0.0 0.0 0.0 0.0
358 1 62.0959875731 30.04599813 0.0 0.0 0.0 0.0
359 1 67.4504875731 30.94269813 0.0 0.0 0.0 0.0
360 1 72.8406875731 30.73579813 0.0 0.0 0.0 0.0
361 1 3.21747757313 34.09819813 0.0 0.0 0.0 0.0
362 1 8.30398757313 34.32729813 0.0 0.0 0.0 0.0
363 1 13.5286875731 34.07289813 0.0 0.0 0.0 0.0
364 1 18.8180875731 33.96469813 0.0 0.0 0.0 0.0
365 1 24.0725875731 34.77849813 0.0 0.0 0.0 0.0
366 1 29.3650875731 35.46419813 0.0 0.0 0.0 0.0
367 1 34.3470875731 35.31789813 0.0 0.0 0.0 0.0
368 1 39.1312875731 35.09719813 0.0 0.0 0.0 0.0
369 1 43.6823875731 35.96029813 0.0 0.0 0.0 0.0
370 1 49.0392875731 36.11859813 0.0 0.0 0.0 0.0
371 1 54.3946875731 34.89599813 0.0 0.0 0.0 0.0
372 1 59.3149875731 34.34149813 0.0 0.0 0.0 0.0
373 1 64.5307875731 34.89759813 0.0 0.0 0.0 0.0
374 1 70.1458875731 35.20969813 0.0 0.0 0.0 0.0
375 1 75.6670875731 34.65229813 0.0 0.0 0.0 0.0
376 1 75.8111875731 39.70849813 0.0 0.0 0.0 0.0
377 1 5.36198757313 38.86739813 0.0 0.0 0.0 0.0
378 1 10.5808875731 38.78199813 0.0 0.0 0.0 0.0
379 1 15.7036875731 38.45629813 0.0 0.0 0.0 0.0
380 1 20.9163875731 38.44149813 0.0 0.0 0.0 0.0
381 1 26.5069875731 39.18239813 0.0 0.0 0.0 0.0
382 1 31.5021875731 40.72579813 0.0 0.0 0.0 0.0
383 1 34.5154875731 40.99529813 0.0 0.0 0.0 0.0
384 1 40.5956875731 40.22669813 0.0 0.0 0.0 0.0
385 1 47.8793875731 41.53389813 0.0 0.0 0.0 0.0
386 1 52.4439875731 39.80069813 0.0 0.0 0.0 0.0
387 1 57.3921875731 39.24579813 0.0 0.0 0.0 0.0
388 1 62.1123875731 39.25789813 0.0 0.0 0.0 0.0
389 1 67.3783875731 39.52039813 0.0 0.0 0.0 0.0
390 1 72.7996875731 39.61089813 0.0 0.0 0.0 0.0
391 1 2.80263757313 43.53649813 0.0 0.0 0.0 0.0
392 1 7.85423757313 43.50999813 0.0 0.0 0.0 0.0
393 1 12.8679875731 43.39569813 0.0 0.0 0.0 0.0
394 1 17.8120875731 42.75219813 0.0 0.0 0.0 0.0
395 1 23.0305875731 42.97719813 0.0 0.0 0.0 0.0
396 1 27.8083875731 44.41149813 0.0 0.0 0.0 0.0
397 1 34.8523875731 46.46919813 0.0 0.0 0.0 0.0
398 1 38.7332875731 44.93809813 0.0 0.0 0.0 0.0
399 1 43.9627875731 44.37719813 0.0 0.0 0.0 0.0
400 1 49.3914875731 44.11899813 0.0 0.0 0.0 0.0
401 1 54.5950875731 44.33379813 0.0 0.0 0.0 0.0
402 1 59.2828875731 43.68659813 0.0 0.0 0.0 0.0
403 1 66.1918875731 45.23689813 0.0 0.0 0.0 0.0
404 1 70.1443875731 44.02009813 0.0 0.0 0.0 0.0
405 1 75.3036875731 44.19579813 0.0 0.0 0.0 0.0
406 1 0.710147573126 48.48459813 0.0 0.0 0.0 0.0
407 1 5.51138757313 48.22909813 0.0 0.0 0.0 0.0
408 1 10.4550875731 48.26649813 0.0 0.0 0.0 0.0
409 1 15.4524875731 47.86729813 0.0 0.0 0.0 0.0
410 1 20.1501875731 47.18249813 0.0 0.0 0.0 0.0
411 1 24.6326875731 48.37259813 0.0 0.0 0.0 0.0
412 1 30.0814875731 48.82089813 0.0 0.0 0.0 0.0
413 1 36.5315875731 48.97439813 0.0 0.0 0.0 0.0
414 1 41.6875875731 49.83629813 0.0 0.0 0.0 0.0
415 1 44.7107875731 49.74979813 0.0 0.0 0.0 0.0
416 1 51.1889875731 48.81609813 0.0 0.0 0.0 0.0
417 1 56.5611875731 48.32399813 0.0 0.0 0.0 0.0
418 1 61.8799875731 47.71849813 0.0 0.0 0.0 0.0
419 1 67.4667875731 47.97139813 0.0 0.0 0.0 0.0
420 1 72.8121875731 48.64979813 0.0 0.0 0.0 0.0
421 1 3.01325757313 53.00279813 0.0 0.0 0.0 0.0
422 1 7.97688757313 52.90129813 0.0 0.0 0.0 0.0
423 1 12.8567875731 53.19679813 0.0 0.0 0.0 0.0
424 1 15.8611875731 53.21379813 0.0 0.0 0.0 0.0
425 1 22.8987875731 50.81649813 0.0 0.0 0.0 0.0
426 1 27.6121875731 53.21689813 0.0 0.0 0.0 0.0
427 1 33.0792875731 52.96679813 0.0 0.0 0.0 0.0
428 1 38.3822875731 53.69909813 0.0 0.0 0.0 0.0
429 1 43.9136875731 54.28699813 0.0 0.0 0.0 0.0
430 1 49.1051875731 53.45079813 0.0 0.0 0.0 0.0
431 1 54.4811875731 52.98829813 0.0 0.0 0.0 0.0
432 1 59.7492875731 52.41679813 0.0 0.0 0.0 0.0
433 1 64.6657875731 52.48789813 0.0 0.0 0.0 0.0
434 1 69.7658875731 52.68309813 0.0 0.0 0.0 0.0
435 1 75.2534875731 53.01589813 0.0 0.0 0.0 0.0
436 1 0.226837573126 57.68629813 0.0 0.0 0.0 0.0
437 1 5.20668757313 57.68359813 0.0 0.0 0.0 0.0
438 1 10.0000875731 57.74649813 0.0 0.0 0.0 0.0
439 1 15.1251875731 57.73319813 0.0 0.0 0.0 0.0
440 1 20.1359875731 57.06129813 0.0 0.0 0.0 0.0
441 1 25.2207875731 57.51749813 0.0 0.0 0.0 0.0
442 1 30.4600875731 57.75769813 0.0 0.0 0.0 0.0
443 1 35.3580875731 57.65589813 0.0 0.0 0.0 0.0
444 1 42.8803875731 59.82789813 0.0 0.0 0.0 0.0
445 1 47.2946875731 58.28179813 0.0 0.0 0.0 0.0
446 1 52.1534875731 58.17959813 0.0 0.0 0.0 0.0
447 1 55.1796875731 58.09279813 0.0 0.0 0.0 0.0
448 1 61.9097875731 57.14109813 0.0 0.0 0.0 0.0
449 1 67.1257875731 56.90499813 0.0 0.0 0.0 0.0
450 1 72.4250875731 57.30869813 0.0 0.0 0.0 0.0
451 1 2.57032757313 62.43359813 0.0 0.0 0.0 0.0
452 1 7.52970757313 62.35749813 0.0 0.0 0.0 0.0
453 1 12.6683875731 62.26409813 0.0 0.0 0.0 0.0
454 1 17.8827875731 62.16399813 0.0 0.0 0.0 0.0
455 1 22.4339875731 61.89799813 0.0 0.0 0.0 0.0
456 1 27.4326875731 62.33959813 0.0 0.0 0.0 0.0
457 1 32.5833875731 62.16519813 0.0 0.0 0.0 0.0
458 1 38.0526875731 61.48369813 0.0 0.0 0.0 0.0
459 1 44.3138875731 62.49609813 0.0 0.0 0.0 0.0
460 1 49.4773875731 63.08999813 0.0 0.0 0.0 0.0
461 1 54.6120875731 62.20369813 0.0 0.0 0.0 0.0
462 1 59.8037875731 61.74499813 0.0 0.0 0.0 0.0
463 1 64.9825875731 61.68609813 0.0 0.0 0.0 0.0
464 1 69.9055875731 61.55869813 0.0 0.0 0.0 0.0
465 1 74.9399875731 62.24639813 0.0 0.0 0.0 0.0
466 1 77.2823875731 66.88539813 0.0 0.0 0.0 0.0
467 1 5.06315757313 67.09899813 0.0 0.0 0.0 0.0
468 1 10.2797875731 66.58979813 0.0 0.0 0.0 0.0
469 1 15.6248875731 66.67829813 0.0 0.0 0.0 0.0
470 1 20.7513875731 66.79989813 0.0 0.0 0.0 0.0
471 1 26.0248875731 64.99119813 0.0 0.0 0.0 0.0
472 1 30.5176875731 67.30289813 0.0 0.0 0.0 0.0
473 1 35.6048875731 65.56709813 0.0 0.0 0.0 0.0
474 1 40.9263875731 66.08879813 0.0 0.0 0.0 0.0
475 1 47.9738875731 68.58579813 0.0 0.0 0.0 0.0
476 1 52.5777875731 66.89719813 0.0 0.0 0.0 0.0
477 1 57.7482875731 66.38449813 0.0 0.0 0.0 0.0
478 1 62.3669875731 66.90169813 0.0 0.0 0.0 0.0
479 1 65.3731875731 67.02219813 0.0 0.0 0.0 0.0
480 1 71.9457875731 66.45589813 0.0 0.0 0.0 0.0
481 1 2.62795757313 71.47989813 0.0 0.0 0.0 0.0
482 1 8.08789757313 71.36499813 0.0 0.0 0.0 0.0
483 1 13.1645875731 70.98319813 0.0 0.0 0.0 0.0
484 1 18.3990875731 71.31009813 0.0 0.0 0.0 0.0
485 1 23.5523875731 71.43269813 0.0 0.0 0.0 0.0
486 1 28.8113875731 72.09169813 0.0 0.0 0.0 0.0
487 1 34.0537875731 70.97719813 0.0 0.0 0.0 0.0
488 1 38.2447875731 70.22709813 0.0 0.0 0.0 0.0
489 1 43.3714875731 70.92149813 0.0 0.0 0.0 0.0
490 1 49.2265875731 71.33279813 0.0 0.0 0.0 0.0
491 1 52.2013875731 71.80519813 0.0 0.0 0.0 0.0
492 1 59.2412875731 71.37359813 0.0 0.0 0.0 0.0
493 1 64.3331875731 71.53049813 0.0 0.0 0.0 0.0
494 1 69.4523875731 71.01459813 0.0 0.0 0.0 0.0
495 1 74.6493875731 71.06539813 0.0 0.0 0.0 0.0
496 1 77.3418875731 75.61659813 0.0 0.0 0.0 0.0
497 1 5.12579757313 76.38389813 0.0 0.0 0.0 0.0
498 1 8.14727757313 76.48019813 0.0 0.0 0.0 0.0
499 1 15.2769875731 75.59629813 0.0 0.0 0.0 0.0
500 1 20.7111875731 75.68969813 0.0 0.0 0.0 0.0
501 1 26.1699875731 75.84829813 0.0 0.0 0.0 0.0
502 1 31.8277875731 76.43999813 0.0 0.0 0.0 0.0
503 1 34.8532875731 76.78059813 0.0 0.0 0.0 0.0
504 1 40.5748875731 75.89599813 0.0 0.0 0.0 0.0
505 1 45.5202875731 75.48819813 0.0 0.0 0.0 0.0
506 1 50.7946875731 75.77639813 0.0 0.0 0.0 0.0
507 1 56.2876875731 75.67989813 0.0 0.0 0.0 0.0
508 1 61.5791875731 75.92089813 0.0 0.0 0.0 0.0
509 1 66.9642875731 75.84429813 0.0 0.0 0.0 0.0
510 1 72.0382875731 75.48429813 0.0 0.0 0.0 0.0
511 1 4.83834757313 79.37919813 0.0 0.0 0.0 0.0
512 1 9.69678757313 79.07749813 0.0 0.0 0.0 0.0
513 1 15.1690875731 78.61649813 0.0 0.0 0.0 0.0
514 1 20.3895875731 78.68779813 0.0 0.0 0.0 0.0
515 1 25.7110875731 78.81999813 0.0 0.0 0.0 0.0
516 1 31.0666875731 79.34429813 0.0 0.0 0.0 0.0
517 1 35.9772875731 79.57299813 0.0 0.0 0.0 0.0
518 1 40.8806875731 78.91419813 0.0 0.0 0.0 0.0
519 1 45.6605875731 78.50629813 0.0 0.0 0.0 0.0
520 1 51.0496875731 78.75929813 0.0 0.0 0.0 0.0
521 1 56.4917875731 78.68129813 0.0 0.0 0.0 0.0
522 1 61.6746875731 78.93079813 0.0 0.0 0.0 0.0
523 1 66.7138875731 78.85459813 0.0 0.0 0.0 0.0
524 1 71.7072875731 78.48319813 0.0 0.0 0.0 0.0
525 1 77.2326875731 78.63429813 0.0 0.0 0.0 0.0
526 1 2.10347757313 80.61269813 0.0 0.0 0.0 0.0
527 1 7.37665757313 80.99639813 0.0 0.0 0.0 0.0
528 1 12.5446875731 80.11549813 0.0 0.0 0.0 0.0
529 1 17.7606875731 80.17939813 0.0 0.0 0.0 0.0
530 1 23.0155875731 80.16339813 0.0 0.0 0.0 0.0
531 1 28.2631875731 80.40609813 0.0 0.0 0.0 0.0
532 1 33.4497875731 81.16509813 0.0 0.0 0.0 0.0
533 1 38.6552875731 80.95109813 0.0 0.0 0.0 0.0
534 1 43.4245875731 80.53109813 0.0 0.0 0.0 0.0
535 1 48.2975875731 79.95159813 0.0 0.0 0.0 0.0
536 1 53.7894875731 79.99729813 0.0 0.0 0.0 0.0
537 1 59.0142875731 80.33409813 0.0 0.0 0.0 0.0
538 1 64.2156875731 80.55409813 0.0 0.0 0.0 0.0
539 1 69.3263875731 80.34839813 0.0 0.0 0.0 0.0
540 1 74.4349875731 79.74399813 0.0 0.0 0.0 0.0
541 2 2.14358757313 0.242349129982 0.0 0.0 0.0 0.0
542 2 0.582447573126 2.08462812998 0.0 0.0 0.0 0.0
543 2 2.67838757313 3.11487812998 0.0 0.0 0.0 0.0
544 2 7.45216757313 0.621917129982 0.0 0.0 0.0 0.0
545 2 9.13838757313 2.47367812998 0.0 0.0 0.0 0.0
546 2 6.84528757313 3.36308812998 0.0 0.0 0.0 0.0
547 2 12.7823875731 81.61279813 0.0 0.0 0.0 0.0
548 2 14.2175875731 2.11110812998 0.0 0.0 0.0 0.0
549 2 11.7594875731 2.09554812998 0.0 0.0 0.0 0.0
550 2 17.8290875731 81.69309813 0.0 0.0 0.0 0.0
551 2 19.1819875731 2.14125812998 0.0 0.0 0.0 0.0
552 2 16.6799875731 2.19239812998 0.0 0.0 0.0 0.0
553 2 22.9877875731 81.66969813 0.0 0.0 0.0 0.0
554 2 24.3071875731 2.00230812998 0.0 0.0 0.0 0.0
555 2 21.7168875731 2.11264812998 0.0 0.0 0.0 0.0
556 2 28.3280875731 0.0251321299822 0.0 0.0 0.0 0.0
557 2 29.6418875731 2.34145812998 0.0 0.0 0.0 0.0
558 2 26.9985875731 2.09504812998 0.0 0.0 0.0 0.0
559 2 33.6133875731 0.768628129982 0.0 0.0 0.0 0.0
560 2 35.0307875731 3.02837812998 0.0 0.0 0.0 0.0
561 2 32.3206875731 2.73013812998 0.0 0.0 0.0 0.0
562 2 38.7698875731 0.580860129982 0.0 0.0 0.0 0.0
563 2 40.1064875731 2.90297812998 0.0 0.0 0.0 0.0
564 2 37.5896875731 2.94150812998 0.0 0.0 0.0 0.0
565 2 43.5239875731 0.165217129982 0.0 0.0 0.0 0.0
566 2 44.9699875731 2.39401812998 0.0 0.0 0.0 0.0
567 2 42.5292875731 2.70007812998 0.0 0.0 0.0 0.0
568 2 48.4005875731 81.45049813 0.0 0.0 0.0 0.0
569 2 49.9322875731 1.71590812998 0.0 0.0 0.0 0.0
570 2 47.4284875731 2.00646812998 0.0 0.0 0.0 0.0
571 2 53.8545875731 81.49719813 0.0 0.0 0.0 0.0
572 2 55.1575875731 1.92209812998 0.0 0.0 0.0 0.0
573 2 52.5635875731 1.80163812998 0.0 0.0 0.0 0.0
574 2 59.0662875731 81.83939813 0.0 0.0 0.0 0.0
575 2 60.3086875731 2.36502812998 0.0 0.0 0.0 0.0
576 2 57.7524875731 2.13260812998 0.0 0.0 0.0 0.0
577 2 64.1516875731 0.185769129982 0.0 0.0 0.0 0.0
578 2 65.3654875731 2.48972812998 0.0 0.0 0.0 0.0
579 2 62.8073875731 2.50945812998 0.0 0.0 0.0 0.0
580 2 69.2054875731 81.85559813 0.0 0.0 0.0 0.0
581 2 70.4241875731 2.18490812998 0.0 0.0 0.0 0.0
582 2 67.8784875731 2.38576812998 0.0 0.0 0.0 0.0
583 2 74.2780875731 81.24019813 0.0 0.0 0.0 0.0
584 2 75.3825875731 1.67681812998 0.0 0.0 0.0 0.0
585 2 72.9179875731 1.72353812998 0.0 0.0 0.0 0.0
586 2 76.4779875731 4.05335812998 0.0 0.0 0.0 0.0
587 2 0.0719705731259 6.42685812998 0.0 0.0 0.0 0.0
588 2 74.7674875731 5.54978812998 0.0 0.0 0.0 0.0
589 2 2.35397757313 5.84778812998 0.0 0.0 0.0 0.0
590 2 4.62907757313 4.64594812998 0.0 0.0 0.0 0.0
591 2 10.4909875731 4.48284812998 0.0 0.0 0.0 0.0
592 2 11.5222875731 6.86133812998 0.0 0.0 0.0 0.0
593 2 8.99901757313 6.67763812998 0.0 0.0 0.0 0.0
594 2 15.3899875731 4.53887812998 0.0 0.0 0.0 0.0
595 2 16.1226875731 7.29512812998 0.0 0.0 0.0 0.0
596 2 13.9728875731 6.80694812998 0.0 0.0 0.0 0.0
597 2 20.6805875731 4.44006812998 0.0 0.0 0.0 0.0
598 2 22.3764875731 6.57564812998 0.0 0.0 0.0 0.0
599 2 20.2877875731 7.22378812998 0.0 0.0 0.0 0.0
600 2 25.8518875731 4.19196812998 0.0 0.0 0.0 0.0
601 2 27.2631875731 6.58814812998 0.0 0.0 0.0 0.0
602 2 24.8557875731 6.50986812998 0.0 0.0 0.0 0.0
603 2 30.9438875731 4.66989812998 0.0 0.0 0.0 0.0
604 2 32.2791875731 7.01258812998 0.0 0.0 0.0 0.0
605 2 29.7329875731 6.86010812998 0.0 0.0 0.0 0.0
606 2 36.2580875731 5.28068812998 0.0 0.0 0.0 0.0
607 2 37.4606875731 7.53470812998 0.0 0.0 0.0 0.0
608 2 34.8086875731 7.45926812998 0.0 0.0 0.0 0.0
609 2 41.4021875731 5.20733812998 0.0 0.0 0.0 0.0
610 2 42.6425875731 7.53831812998 0.0 0.0 0.0 0.0
611 2 40.0676875731 7.50882812998 0.0 0.0 0.0 0.0
612 2 47.3420875731 7.06026812998 0.0 0.0 0.0 0.0
613 2 46.9781875731 4.39659812998 0.0 0.0 0.0 0.0
614 2 49.3296875731 5.60383812998 0.0 0.0 0.0 0.0
615 2 51.0949875731 3.96579812998 0.0 0.0 0.0 0.0
616 2 52.0003875731 6.37406812998 0.0 0.0 0.0 0.0
617 2 56.1484875731 4.25333812998 0.0 0.0 0.0 0.0