# input file

1350 atoms
2 atom types

0.0 77.8544705401 xlo xhi
0.0 81.5874577283 ylo yhi
-10.0 10.0 zlo zhi
0.0 0.0 0.0 xy xz yz

Masses

1 28.0855 #Si
2 15.9994 #O

Atoms

1 1 2.04873304689 1.77463886414 0.0
2 1 7.25373304689 1.97903886414 0.0
3 1 12.4894730469 1.91053886414 0.0
4 1 17.6469730469 1.49276886414 0.0
5 1 23.1951730469 1.23265886414 0.0
6 1 28.6603730469 1.41313886414 0.0
7 1 34.0562730469 1.60934886414 0.0
8 1 39.2907730469 1.53503886414 0.0
9 1 44.3931730469 0.885758864143 0.0
10 1 49.4531730469 0.941208864143 0.0
11 1 54.1102730469 1.33409886414 0.0
12 1 58.8196730469 1.57405886414 0.0
13 1 64.0509730469 1.17314886414 0.0
14 1 68.8940730469 1.58354886414 0.0
15 1 74.2621730469 2.01448886414 0.0
16 1 76.8931730469 5.93689886414 0.0
17 1 4.41984304689 6.45579886414 0.0
18 1 9.90507304689 6.51204886414 0.0
19 1 15.2157730469 6.30933886414 0.0
20 1 20.5158730469 5.53242886414 0.0
21 1 25.9355730469 5.59860886414 0.0
22 1 31.1490730469 5.86558886414 0.0
23 1 36.5504730469 6.09166886414 0.0
24 1 43.4418730469 5.42659886414 0.0
25 1 46.4513730469 5.50209886414 0.0
26 1 51.2671730469 6.03194886414 0.0
27 1 56.1405730469 6.28484886414 0.0
28 1 61.3357730469 5.83001886414 0.0
29 1 66.3167730469 6.19835886414 0.0
30 1 71.3481730469 6.15987886414 0.0
31 1 1.49925304689 12.4513288641 0.0
32 1 7.20585304689 10.8361288641 0.0
33 1 12.6550730469 10.9337288641 0.0
34 1 19.7342730469 9.82762886414 0.0
35 1 22.7567730469 9.83642886414 0.0
36 1 27.9841730469 10.2103288641 0.0
37 1 33.2492730469 10.2844288641 0.0
38 1 38.4804730469 10.8389288641 0.0
39 1 43.4915730469 10.6768288641 0.0
40 1 48.7191730469 10.5899288641 0.0
41 1 53.9704730469 10.9148288641 0.0
42 1 59.1879730469 10.5214288641 0.0
43 1 63.7836730469 12.8574288641 0.0
44 1 69.2403730469 10.8473288641 0.0
45 1 74.6171730469 10.1911288641 0.0
46 1 77.6293730469 14.9323288641 0.0
47 1 4.56178304689 15.2488288641 0.0
48 1 9.78457304689 15.2663288641 0.0
49 1 15.2916730469 15.6259288641 0.0
50 1 20.1759730469 14.7137288641 0.0
51 1 25.3759730469 14.5427288641 0.0
52 1 30.4539730469 14.7192288641 0.0
53 1 35.7069730469 14.9989288641 0.0
54 1 41.2044730469 15.4060288641 0.0
55 1 46.2960730469 15.1902288641 0.0
56 1 51.4728730469 15.2715288641 0.0
57 1 56.7818730469 15.2701288641 0.0
58 1 62.1990730469 15.4330288641 0.0
59 1 67.2367730469 15.6157288641 0.0
60 1 72.3560730469 14.8928288641 0.0
61 1 1.86726304689 19.8605288641 0.0
62 1 7.03492304689 19.7069288641 0.0
63 1 11.0456730469 18.0056288641 0.0
64 1 18.1831730469 19.7951288641 0.0
65 1 23.1975730469 19.1508288641 0.0
66 1 28.1542730469 19.2567288641 0.0
67 1 33.0044730469 19.3174288641 0.0
68 1 38.2996730469 19.3892288641 0.0
69 1 43.5543730469 19.9327288641 0.0
70 1 48.8568730469 19.8339288641 0.0
71 1 54.1137730469 19.7694288641 0.0
72 1 59.2715730469 19.7389288641 0.0
73 1 64.4873730469 20.1615288641 0.0
74 1 69.7072730469 19.7753288641 0.0
75 1 74.7103730469 19.3827288641 0.0
76 1 77.2914730469 24.2332288641 0.0
77 1 4.76240304689 24.2623288641 0.0
78 1 10.2248730469 23.7490288641 0.0
79 1 15.2112730469 23.9860288641 0.0
80 1 20.4868730469 24.0499288641 0.0
81 1 25.8814730469 23.9174288641 0.0
82 1 30.9048730469 24.0721288641 0.0
83 1 36.0491730469 23.7390288641 0.0
84 1 40.6976730469 26.1203288641 0.0
85 1 46.2830730469 24.3683288641 0.0
86 1 51.6856730469 24.3341288641 0.0
87 1 56.7674730469 24.3715288641 0.0
88 1 61.8902730469 24.4630288641 0.0
89 1 67.1341730469 24.4589288641 0.0
90 1 72.2507730469 24.2388288641 0.0
91 1 2.19444304689 28.6251288641 0.0
92 1 7.49812304689 28.2153288641 0.0
93 1 12.6687730469 28.5755288641 0.0
94 1 17.6780730469 28.4802288641 0.0
95 1 23.0503730469 28.3014288641 0.0
96 1 28.2250730469 28.6952288641 0.0
97 1 33.4971730469 28.5105288641 0.0
98 1 38.9994730469 28.6165288641 0.0
99 1 44.0880730469 28.9514288641 0.0
100 1 49.4169730469 28.7117288641 0.0
101 1 54.5381730469 29.0189288641 0.0
102 1 59.4688730469 29.0368288641 0.0
103 1 64.7699730469 28.9486288641 0.0
104 1 69.9456730469 28.9276288641 0.0
105 1 75.0471730469 28.8599288641 0.0
106 1 0.285302046888 33.3611288641 0.0
107 1 5.49096304689 32.7501288641 0.0
108 1 10.2489730469 34.9558288641 0.0
109 1 15.8064730469 33.1699288641 0.0
110 1 20.9863730469 32.6803288641 0.0
111 1 25.4390730469 35.2889288641 0.0
112 1 30.7634730469 33.1190288641 0.0
113 1 36.0719730469 32.8408288641 0.0
114 1 41.2419730469 33.3528288641 0.0
115 1 46.4112730469 33.1814288641 0.0
116 1 51.7496730469 33.4709288641 0.0
117 1 57.4572730469 33.7916288641 0.0
118 1 62.6611730469 33.3977288641 0.0
119 1 67.6878730469 33.4745288641 0.0
120 1 72.8576730469 33.4722288641 0.0
121 1 3.21000304689 37.5497288641 0.0
122 1 8.64852304689 37.5083288641 0.0
123 1 13.8092730469 37.7432288641 0.0
124 1 19.1775730469 37.4367288641 0.0
125 1 24.1392730469 38.0200288641 0.0
126 1 28.7350730469 38.0686288641 0.0
127 1 33.8691730469 37.3970288641 0.0
128 1 38.8836730469 37.5876288641 0.0
129 1 43.8268730469 37.7833288641 0.0
130 1 48.8935730469 37.6706288641 0.0
131 1 53.2056730469 36.1114288641 0.0
132 1 60.2237730469 38.0885288641 0.0
133 1 65.2400730469 38.1060288641 0.0
134 1 70.4437730469 38.0239288641 0.0
135 1 75.7310730469 37.8678288641 0.0
136 1 0.569723046888 42.1253288641 0.0
137 1 5.79135304689 41.8594288641 0.0
138 1 10.9670730469 42.1330288641 0.0
139 1 16.3328730469 41.9105288641 0.0
140 1 21.3764730469 42.4693288641 0.0
141 1 26.3584730469 43.0023288641 0.0
142 1 31.4975730469 42.2209288641 0.0
143 1 36.7106730469 42.1161288641 0.0
144 1 41.6191730469 42.3779288641 0.0
145 1 46.6456730469 42.3065288641 0.0
146 1 51.9562730469 41.7136288641 0.0
147 1 57.1181730469 42.3064288641 0.0
148 1 62.3638730469 42.7581288641 0.0
149 1 67.8099730469 42.5968288641 0.0
150 1 73.1758730469 42.4061288641 0.0
151 1 3.28145304689 46.5047288641 0.0
152 1 8.77742304689 46.4853288641 0.0
153 1 14.0368730469 46.3284288641 0.0
154 1 18.2154730469 49.1100288641 0.0
155 1 23.6999730469 47.4514288641 0.0
156 1 30.7912730469 46.6420288641 0.0
157 1 33.8046730469 46.6228288641 0.0
158 1 39.0760730469 46.9809288641 0.0
159 1 44.5316730469 46.9753288641 0.0
160 1 49.8334730469 46.3631288641 0.0
161 1 54.2593730469 48.8519288641 0.0
162 1 59.7252730469 47.0772288641 0.0
163 1 65.2135730469 47.0028288641 0.0
164 1 70.6868730469 46.8930288641 0.0
165 1 75.9945730469 46.7637288641 0.0
166 1 1.02325304689 51.2268288641 0.0
167 1 6.24746304689 50.7157288641 0.0
168 1 11.5706730469 50.8949288641 0.0
169 1 16.5789730469 51.6464288641 0.0
170 1 21.2121730469 52.1975288641 0.0
171 1 26.0159730469 52.1737288641 0.0
172 1 30.8795730469 51.6835288641 0.0
173 1 36.3103730469 51.2702288641 0.0
174 1 41.7857730469 51.2930288641 0.0
175 1 47.1984730469 51.1270288641 0.0
176 1 52.6354730469 51.4132288641 0.0
177 1 57.6921730469 51.8758288641 0.0
178 1 62.9151730469 51.3232288641 0.0
179 1 68.3154730469 51.2217288641 0.0
180 1 73.6394730469 51.2742288641 0.0
181 1 5.29751304689 55.0463288641 0.0
182 1 8.30742304689 55.1465288641 0.0
183 1 13.3356730469 55.8706288641 0.0
184 1 18.3824730469 56.7832288641 0.0
185 1 23.4103730469 56.9606288641 0.0
186 1 28.6230730469 56.6514288641 0.0
187 1 33.7936730469 55.7839288641 0.0
188 1 38.9972730469 55.5715288641 0.0
189 1 44.3223730469 55.5884288641 0.0
190 1 49.2303730469 55.5798288641 0.0
191 1 54.3904730469 56.1931288641 0.0
192 1 60.8628730469 56.0454288641 0.0
193 1 66.1006730469 55.5915288641 0.0
194 1 71.0572730469 55.6834288641 0.0
195 1 76.1935730469 55.7703288641 0.0
196 1 0.282628046888 60.5190288641 0.0
197 1 5.20037304689 60.2587288641 0.0
198 1 10.3914730469 60.1335288641 0.0
199 1 15.6300730469 60.9016288641 0.0
200 1 20.7498730469 61.5221288641 0.0
201 1 25.9695730469 61.2838288641 0.0
202 1 31.3158730469 60.6667288641 0.0
203 1 36.3650730469 60.1981288641 0.0
204 1 41.2736730469 59.9786288641 0.0
205 1 46.4505730469 60.3624288641 0.0
206 1 51.8580730469 60.3795288641 0.0
207 1 56.3447730469 58.4625288641 0.0
208 1 63.6122730469 60.2515288641 0.0
209 1 68.4231730469 60.3512288641 0.0
210 1 73.1789730469 60.2897288641 0.0
211 1 2.90827304689 65.0800288641 0.0
212 1 7.88715304689 64.7355288641 0.0
213 1 12.6595730469 64.9457288641 0.0
214 1 17.8063730469 65.7772288641 0.0
215 1 23.7104730469 65.8884288641 0.0
216 1 29.0064730469 65.2917288641 0.0
217 1 33.9977730469 65.0358288641 0.0
218 1 38.9039730469 64.8243288641 0.0
219 1 43.7715730469 64.6759288641 0.0
220 1 47.7426730469 63.0939288641 0.0
221 1 54.9096730469 64.0006288641 0.0
222 1 60.3966730469 64.2256288641 0.0
223 1 65.7812730469 65.0923288641 0.0
224 1 70.5617730469 65.1709288641 0.0
225 1 75.4737730469 65.0743288641 0.0
226 1 0.427533046888 69.4651288641 0.0
227 1 5.46283304689 69.5677288641 0.0
228 1 10.1675730469 69.6782288641 0.0
229 1 14.9959730469 69.8269288641 0.0
230 1 19.1937730469 68.4506288641 0.0
231 1 26.4439730469 69.9444288641 0.0
232 1 31.5387730469 69.8195288641 0.0
233 1 36.6140730469 69.6534288641 0.0
234 1 41.7826730469 69.4772288641 0.0
235 1 46.9595730469 68.8546288641 0.0
236 1 51.9997730469 68.6589288641 0.0
237 1 56.7350730469 68.1893288641 0.0
238 1 62.5040730469 68.8883288641 0.0
239 1 68.2775730469 69.9917288641 0.0
240 1 73.3592730469 69.8474288641 0.0
241 1 2.48429304689 74.1011288641 0.0
242 1 7.47401304689 74.4858288641 0.0
243 1 12.6347730469 74.5374288641 0.0
244 1 17.8810730469 74.0947288641 0.0
245 1 23.2563730469 74.0703288641 0.0
246 1 28.6661730469 74.4397288641 0.0
247 1 34.0071730469 74.3403288641 0.0
248 1 39.2338730469 74.1003288641 0.0
249 1 44.5086730469 73.6896288641 0.0
250 1 49.7661730469 73.4417288641 0.0
251 1 54.5687730469 73.3012288641 0.0
252 1 59.1079730469 72.1822288641 0.0
253 1 63.7641730469 71.6193288641 0.0
254 1 70.3579730469 74.4773288641 0.0
255 1 77.3359730469 74.0155288641 0.0
256 1 77.1233730469 2.95126886414 0.0
257 1 4.58911304689 3.42702886414 0.0
258 1 9.89117304689 3.47750886414 0.0
259 1 15.1910730469 3.27591886414 0.0
260 1 20.4752730469 2.53391886414 0.0
261 1 25.8885730469 2.59433886414 0.0
262 1 31.3090730469 2.85936886414 0.0
263 1 36.6949730469 3.07759886414 0.0
264 1 42.0455730469 2.75743886414 0.0
265 1 46.9056730469 2.52815886414 0.0
266 1 51.6194730469 3.02418886414 0.0
267 1 56.3735730469 3.29685886414 0.0
268 1 61.5419730469 2.83151886414 0.0
269 1 66.3265730469 3.16407886414 0.0
270 1 71.4699730469 3.15333886414 0.0
271 1 1.57537304689 7.55359886414 0.0
272 1 7.14938304689 7.80742886414 0.0
273 1 12.6189730469 7.89721886414 0.0
274 1 18.0820730469 7.30190886414 0.0
275 1 23.2114730469 6.86915886414 0.0
276 1 28.4611730469 7.23565886414 0.0
277 1 33.7879730469 7.32069886414 0.0
278 1 38.9843730469 7.88129886414 0.0
279 1 41.9963730469 8.05234886414 0.0
280 1 48.6634730469 7.55857886414 0.0
281 1 53.6220730469 7.91635886414 0.0
282 1 58.8605730469 7.53677886414 0.0
283 1 63.6898730469 7.68787886414 0.0
284 1 68.8495730469 7.84829886414 0.0
285 1 74.1645730469 7.22341886414 0.0
286 1 77.6421730469 9.99622886414 0.0
287 1 4.51855304689 12.2528288641 0.0
288 1 9.90937304689 12.2393288641 0.0
289 1 15.1891730469 12.6176288641 0.0
290 1 18.2149730469 12.4136288641 0.0
291 1 25.2647730469 11.5259288641 0.0
292 1 30.5943730469 11.7126288641 0.0
293 1 35.7151730469 11.9997288641 0.0
294 1 41.0425730469 12.4112288641 0.0
295 1 46.1325730469 12.1583288641 0.0
296 1 51.2585730469 12.2508288641 0.0
297 1 56.6960730469 12.2453288641 0.0
298 1 62.1997730469 10.3140288641 0.0
299 1 66.7996730469 12.6458288641 0.0
300 1 72.0960730469 11.8823288641 0.0
301 1 2.04604304689 16.8753288641 0.0
302 1 7.16028304689 16.7114288641 0.0
303 1 14.0093730469 18.3398288641 0.0
304 1 18.0446730469 16.8051288641 0.0
305 1 22.8314730469 16.1474288641 0.0
306 1 27.8634730469 16.2506288641 0.0
307 1 33.0038730469 16.3136288641 0.0
308 1 38.3683730469 16.3970288641 0.0
309 1 43.8105730469 16.9183288641 0.0
310 1 48.8617730469 16.8019288641 0.0
311 1 54.1287730469 16.7385288641 0.0
312 1 59.4470730469 16.7121288641 0.0
313 1 64.6559730469 17.1647288641 0.0
314 1 70.0033730469 16.7792288641 0.0
315 1 74.9780730469 16.3728288641 0.0
316 1 77.0678730469 21.2416288641 0.0
317 1 4.49525304689 21.2848288641 0.0
318 1 9.83247304689 20.7622288641 0.0
319 1 15.4363730469 20.9865288641 0.0
320 1 20.8852730469 21.0729288641 0.0
321 1 25.6474730469 20.9074288641 0.0
322 1 30.5640730469 21.0682288641 0.0
323 1 35.6310730469 20.7667288641 0.0
324 1 40.7602730469 21.1082288641 0.0
325 1 46.2296730469 21.3455288641 0.0
326 1 51.5072730469 21.3098288641 0.0
327 1 56.7022730469 21.3408288641 0.0
328 1 61.7643730469 21.4480288641 0.0
329 1 67.2033730469 21.4512288641 0.0
330 1 72.3322730469 21.2286288641 0.0
331 1 2.09357304689 25.6314288641 0.0
332 1 7.60405304689 25.2230288641 0.0
333 1 12.6411730469 25.5521288641 0.0
334 1 17.8280730469 25.4734288641 0.0
335 1 23.2133730469 25.3085288641 0.0
336 1 28.3418730469 25.6712288641 0.0
337 1 33.5783730469 25.4862288641 0.0
338 1 39.0684730469 23.6087288641 0.0
339 1 43.7171730469 25.9766288641 0.0
340 1 48.9991730469 25.7189288641 0.0
341 1 54.2218730469 26.0010288641 0.0
342 1 59.3047730469 26.0157288641 0.0
343 1 64.5178730469 25.9469288641 0.0
344 1 69.7597730469 25.9236288641 0.0
345 1 74.7764730469 25.8662288641 0.0
346 1 77.6310730469 30.3964288641 0.0
347 1 4.94940304689 29.8014288641 0.0
348 1 9.96707304689 29.9102288641 0.0
349 1 15.2116730469 30.2052288641 0.0
350 1 20.4079730469 29.7360288641 0.0
351 1 25.5067730469 30.0326288641 0.0
352 1 30.9069730469 30.0945288641 0.0
353 1 36.2221730469 29.8243288641 0.0
354 1 41.4370730469 30.3669288641 0.0
355 1 46.8088730469 30.2097288641 0.0
356 1 51.8879730469 30.4532288641 0.0
357 1 57.0023730469 30.7847288641 0.0
358 1 62.1502730469 30.4284288641 0.0
359 1 67.3689730469 30.4783288641 0.0
360 1 72.5219730469 30.4817288641 0.0
361 1 3.06335304689 34.5407288641 0.0
362 1 8.49543304689 32.5338288641 0.0
363 1 13.2623730469 34.7980288641 0.0
364 1 18.5553730469 34.4725288641 0.0
365 1 24.0043730469 32.6523288641 0.0
366 1 28.4465730469 35.0740288641 0.0
367 1 33.4945730469 34.4056288641 0.0
368 1 38.5168730469 34.6033288641 0.0
369 1 43.8743730469 34.7852288641 0.0
370 1 49.0027730469 34.6756288641 0.0
371 1 56.1723730469 36.5332288641 0.0
372 1 60.1748730469 35.0755288641 0.0
373 1 65.1517730469 35.0902288641 0.0
374 1 70.2754730469 35.0162288641 0.0
375 1 75.5308730469 34.8652288641 0.0
376 1 0.624333046888 39.1117288641 0.0
377 1 5.93585304689 38.8429288641 0.0
378 1 11.1569730469 39.1506288641 0.0
379 1 16.5669730469 38.9223288641 0.0
380 1 21.4651730469 39.4240288641 0.0
381 1 26.4133730469 39.9844288641 0.0
382 1 31.4927730469 39.2257288641 0.0
383 1 36.3222730469 39.1350288641 0.0
384 1 41.2935730469 39.3846288641 0.0
385 1 46.3955730469 39.3206288641 0.0
386 1 51.6984730469 38.7159288641 0.0
387 1 57.4607730469 39.2807288641 0.0
388 1 62.7209730469 39.7618288641 0.0
389 1 67.8654730469 39.5833288641 0.0
390 1 73.1302730469 39.3936288641 0.0
391 1 3.25354304689 43.4902288641 0.0
392 1 8.30819304689 43.5146288641 0.0
393 1 13.7002730469 43.3534288641 0.0
394 1 18.6616730469 43.8015288641 0.0
395 1 23.6945730469 44.4222288641 0.0
396 1 29.1645730469 44.1076288641 0.0
397 1 34.1363730469 43.6446288641 0.0
398 1 39.0761730469 43.9695288641 0.0
399 1 44.1607730469 43.9878288641 0.0
400 1 49.4471730469 43.3811288641 0.0
401 1 54.3446730469 43.5444288641 0.0
402 1 59.6148730469 44.0438288641 0.0
403 1 65.1258730469 43.9914288641 0.0
404 1 70.5437730469 43.8837288641 0.0
405 1 75.8791730469 43.7483288641 0.0
406 1 0.791143046888 48.2135288641 0.0
407 1 6.03606304689 47.7254288641 0.0
408 1 11.4566730469 47.8856288641 0.0
409 1 17.0476730469 46.3513288641 0.0
410 1 21.2269730469 49.1943288641 0.0
411 1 26.1871730469 49.1753288641 0.0
412 1 29.2033730469 49.1798288641 0.0
413 1 36.3388730469 48.2600288641 0.0
414 1 41.8054730469 48.2826288641 0.0
415 1 47.3430730469 48.1060288641 0.0
416 1 52.8577730469 46.1886288641 0.0
417 1 57.2891730469 48.8924288641 0.0
418 1 62.4934730469 48.3317288641 0.0
419 1 67.9803730469 48.2300288641 0.0
420 1 73.3789730469 48.2692288641 0.0
421 1 3.79006304689 52.4403288641 0.0
422 1 8.86467304689 52.1954288641 0.0
423 1 13.8310730469 52.8835288641 0.0
424 1 18.6711730469 53.7924288641 0.0
425 1 23.6197730469 53.9681288641 0.0
426 1 28.6224730469 53.6548288641 0.0
427 1 33.6914730469 52.7707288641 0.0
428 1 39.0404730469 52.5614288641 0.0
429 1 44.5287730469 52.5717288641 0.0
430 1 49.8362730469 52.6100288641 0.0
431 1 55.0155730469 53.2568288641 0.0
432 1 60.4549730469 53.0665288641 0.0
433 1 65.6470730469 52.6165288641 0.0
434 1 70.9655730469 52.6710288641 0.0
435 1 76.2734730469 52.7547288641 0.0
436 1 0.759593046888 57.5594288641 0.0
437 1 3.76579304689 57.6163288641 0.0
438 1 10.5866730469 57.1215288641 0.0
439 1 15.5873730469 57.8850288641 0.0
440 1 20.8384730469 58.5164288641 0.0
441 1 26.1009730469 58.2851288641 0.0
442 1 31.4447730469 57.6677288641 0.0
443 1 36.4552730469 57.1881288641 0.0
444 1 41.6500730469 56.9907288641 0.0
445 1 46.7751730469 57.3461288641 0.0
446 1 51.6310730469 57.3853288641 0.0
447 1 59.3262730469 58.6217288641 0.0
448 1 63.6076730469 57.2497288641 0.0
449 1 68.5474730469 57.3397288641 0.0
450 1 73.5936730469 57.3010288641 0.0
451 1 2.83319304689 62.0893288641 0.0
452 1 7.83189304689 61.7177288641 0.0
453 1 12.8046730469 61.9394288641 0.0
454 1 18.0098730469 62.7681288641 0.0
455 1 23.4253730469 62.8965288641 0.0
456 1 28.7947730469 62.3019288641 0.0
457 1 33.9855730469 62.0313288641 0.0
458 1 38.8937730469 61.8131288641 0.0
459 1 43.7472730469 61.6678288641 0.0
460 1 50.7280730469 63.1635288641 0.0
461 1 54.7812730469 61.0093288641 0.0
462 1 60.7868730469 61.2448288641 0.0
463 1 65.9799730469 62.0915288641 0.0
464 1 70.8191730469 62.1584288641 0.0
465 1 75.5817730469 62.0768288641 0.0
466 1 0.264184046888 66.4784288641 0.0
467 1 5.50830304689 66.5651288641 0.0
468 1 10.1962730469 66.6600288641 0.0
469 1 14.9984730469 66.8219288641 0.0
470 1 22.1832730469 68.4752288641 0.0
471 1 26.5113730469 66.9467288641 0.0
472 1 31.5841730469 66.8161288641 0.0
473 1 36.5227730469 66.6484288641 0.0
474 1 41.3940730469 66.4968288641 0.0
475 1 46.5277730469 65.8568288641 0.0
476 1 52.4016730469 65.6615288641 0.0
477 1 57.5898730469 65.3133288641 0.0
478 1 62.8937730469 65.9155288641 0.0
479 1 68.1379730469 66.9672288641 0.0
480 1 73.0559730469 66.8509288641 0.0
481 1 2.91330304689 71.1330288641 0.0
482 1 7.76628304689 71.4836288641 0.0
483 1 12.5314730469 71.5294288641 0.0
484 1 17.7212730469 71.0784288641 0.0
485 1 23.6709730469 71.0861288641 0.0
486 1 29.0250730469 71.4604288641 0.0
487 1 34.1259730469 71.3372288641 0.0
488 1 39.2489730469 71.0953288641 0.0
489 1 44.5460730469 70.6714288641 0.0
490 1 49.5479730469 70.4157288641 0.0
491 1 54.5441730469 70.2685288641 0.0
492 1 59.5305730469 69.2367288641 0.0
493 1 66.6193730469 72.5151288641 0.0
494 1 70.8633730469 71.5088288641 0.0
495 1 75.9597730469 71.3462288641 0.0
496 1 75.6690730469 76.4975288641 0.0
497 1 4.84512304689 75.9692288641 0.0
498 1 10.0377730469 76.0720288641 0.0
499 1 15.3748730469 75.7954288641 0.0
500 1 20.5728730469 75.4569288641 0.0
501 1 25.8739730469 75.5752288641 0.0
502 1 31.3610730469 75.7787288641 0.0
503 1 36.6869730469 75.7093288641 0.0
504 1 41.9755730469 75.3377288641 0.0
505 1 47.2052730469 75.0354288641 0.0
506 1 52.2298730469 75.2021288641 0.0
507 1 57.3003730469 74.5534288641 0.0
508 1 61.6525730469 73.7397288641 0.0
509 1 67.4887730469 75.4133288641 0.0
510 1 72.6634730469 76.3974288641 0.0
511 1 4.65358304689 78.9807288641 0.0
512 1 9.90687304689 79.0868288641 0.0
513 1 15.1295730469 78.8072288641 0.0
514 1 20.4431730469 78.4730288641 0.0
515 1 25.9021730469 78.5847288641 0.0
516 1 31.3297730469 78.7830288641 0.0
517 1 36.6334730469 78.7185288641 0.0
518 1 41.7703730469 78.3436288641 0.0
519 1 47.2234730469 78.0502288641 0.0
520 1 52.5834730469 78.2182288641 0.0
521 1 60.8099730469 78.9853288641 0.0
522 1 59.8619730469 76.1359288641 0.0
523 1 66.4401730469 78.2745288641 0.0
524 1 71.6970730469 79.2351288641 0.0
525 1 77.0209730469 79.1813288641 0.0
526 1 1.95765304689 80.3452288641 0.0
527 1 7.24968304689 80.5371288641 0.0
528 1 12.5944730469 80.4714288641 0.0
529 1 17.8681730469 80.0688288641 0.0
530 1 23.1487730469 79.8132288641 0.0
531 1 28.5713730469 79.9953288641 0.0
532 1 33.9991730469 80.1850288641 0.0
533 1 39.3117730469 80.1026288641 0.0
534 1 44.5604730469 79.4734288641 0.0
535 1 49.8548730469 79.5373288641 0.0
536 1 55.0196730469 80.0398288641 0.0
537 1 58.0545730469 80.2566288641 0.0
538 1 63.7659730469 79.7426288641 0.0
539 1 68.8219730469 80.1518288641 0.0
540 1 74.3724730469 80.6116288641 0.0
541 2 2.02403304689 0.264610864143 0.0
542 2 3.31655304689 2.59803886414 0.0
543 2 0.649843046888 2.35285886414 0.0
544 2 7.24719304689 0.462360864143 0.0
545 2 8.57040304689 2.72977886414 0.0
546 2 5.92622304689 2.71184886414 0.0
547 2 12.5465730469 0.396151864143 0.0
548 2 13.8351730469 2.60255886414 0.0
549 2 11.1913730469 2.69327886414 0.0
550 2 17.7426730469 81.5723288641 0.0
551 2 19.0670730469 2.00896886414 0.0
552 2 16.4241730469 2.38608886414 0.0
553 2 23.1707730469 81.3173288641 0.0
554 2 24.5435730469 1.91166886414 0.0
555 2 21.8310730469 1.87594886414 0.0
556 2 28.6191730469 81.4978288641 0.0
557 2 29.9872730469 2.12898886414 0.0
558 2 27.2733730469 2.00254886414 0.0
559 2 34.0401730469 0.102257864143 0.0
560 2 35.3730730469 2.34592886414 0.0
561 2 32.6851730469 2.24188886414 0.0
562 2 39.3070730469 0.0244788641434 0.0
563 2 40.6422730469 2.21217886414 0.0
564 2 37.9999730469 2.31665886414 0.0
565 2 44.4849730469 80.9773288641 0.0
566 2 45.6571730469 1.69480886414 0.0
567 2 43.1688730469 1.75330886414 0.0
568 2 49.6687730469 81.0392288641 0.0
569 2 50.5259730469 1.99196886414 0.0
570 2 48.1608730469 1.70938886414 0.0
571 2 54.5048730469 81.4685288641 0.0
572 2 55.2303730469 2.33451886414 0.0
573 2 52.8615730469 2.17181886414 0.0
574 2 58.4376730469 0.128221864143 0.0
575 2 60.1973730469 2.16301886414 0.0
576 2 57.6492730469 2.51065886414 0.0
577 2 63.9482730469 81.2533288641 0.0
578 2 65.1947730469 2.15988886414 0.0
579 2 62.7790730469 1.98953886414 0.0
580 2 68.8203730469 0.0766518641434 0.0
581 2 70.2008730469 2.34104886414 0.0
582 2 67.6280730469 2.39821886414 0.0
583 2 74.3041730469 0.516317864143 0.0
584 2 72.8790730469 2.61056886414 0.0
585 2 75.6936730469 2.47722886414 0.0
586 2 77.0283730469 4.44833886414 0.0
587 2 0.349003046888 6.66614886414 0.0
588 2 75.5107730469 6.54218886414 0.0
589 2 4.49903304689 4.93884886414 0.0
590 2 5.77667304689 7.14536886414 0.0
591 2 3.01850304689 7.07200886414 0.0
592 2 9.90477304689 4.99310886414 0.0
593 2 11.2563730469 7.21701886414 0.0
594 2 8.52599304689 7.15818886414 0.0
595 2 15.2038730469 4.79090886414 0.0
596 2 16.6316730469 6.87384886414 0.0
597 2 13.9275730469 7.11534886414 0.0
598 2 20.4966730469 4.03563886414 0.0
599 2 21.8795730469 6.17060886414 0.0
600 2 19.2525730469 6.34309886414 0.0
601 2 25.9177730469 4.09854886414 0.0
602 2 27.2043730469 6.40268886414 0.0
603 2 24.5737730469 6.23888886414 0.0
604 2 31.2192730469 4.36254886414 0.0
605 2 32.4771730469 6.57426886414 0.0
606 2 29.8135730469 6.56890886414 0.0
607 2 36.6469730469 4.58597886414 0.0
608 2 37.8052730469 6.93817886414 0.0
609 2 35.1683730469 6.71015886414 0.0
610 2 42.7175730469 6.73703886414 0.0
611 2 42.6694730469 4.13140886414 0.0
612 2 44.9437730469 5.53834886414 0.0
613 2 46.7718730469 4.02483886414 0.0
614 2 47.4977730469 6.58783886414 0.0
615 2 51.4435730469 4.52666886414 0.0
616 2 52.4304730469 6.99503886414 0.0
617 2 49.9594730469 6.78286886414 0.0
618 2 56.2250730469 4.78594886414 0.0
619 2 57.4941730469 6.92626886414 0.0
620 2 54.8905730469 7.10270886414 0.0
621 2 61.4593730469 4.33446886414 0.0
622 2 62.5518730469 6.70356886414 0.0
623 2 60.0722730469 6.64770886414 0.0
624 2 66.3080730469 4.68030886414 0.0
625 2 67.5740730469 7.03880886414 0.0
626 2 65.0325730469 7.00073886414 0.0
627 2 71.3636730469 4.65527886414 0.0
628 2 72.7581730469 6.69435886414 0.0
629 2 70.1071730469 7.00880886414 0.0
630 2 0.631593046888 11.2328288641 0.0
631 2 2.99670304689 12.2287288641 0.0
632 2 0.585273046888 13.6604288641 0.0
633 2 7.17306304689 9.32330886414 0.0
634 2 8.55866304689 11.5364288641 0.0
635 2 5.83353304689 11.5036288641 0.0
636 2 12.6633730469 9.41684886414 0.0
637 2 13.9459730469 11.7494288641 0.0
638 2 11.2813730469 11.5877288641 0.0
639 2 18.9557730469 11.1077288641 0.0
640 2 18.8430730469 8.61003886414 0.0
641 2 21.2458730469 9.91632886414 0.0
642 2 23.0587730469 8.36153886414 0.0
643 2 23.9716730469 10.7384288641 0.0
644 2 28.2211730469 8.72160886414 0.0
645 2 29.2811730469 10.9798288641 0.0
646 2 26.6200730469 10.8532288641 0.0
647 2 33.5235730469 8.80642886414 0.0
648 2 34.4799730469 11.1524288641 0.0
649 2 31.9124730469 10.9797288641 0.0
650 2 38.6610730469 9.35213886414 0.0
651 2 39.7359730469 11.6660288641 0.0
652 2 37.0962730469 11.4117288641 0.0
653 2 42.8302730469 9.31326886414 0.0
654 2 44.8354730469 11.3680288641 0.0
655 2 42.2974730469 11.5955288641 0.0
656 2 48.6742730469 9.07180886414 0.0
657 2 49.9933730469 11.4130288641 0.0
658 2 47.4189730469 11.3631288641 0.0
659 2 53.7903730469 9.41132886414 0.0
660 2 55.3319730469 11.5784288641 0.0
661 2 52.6217730469 11.5957288641 0.0
662 2 58.9572730469 9.03059886414 0.0
663 2 60.7022730469 10.5184288641 0.0
664 2 57.9799730469 11.4309288641 0.0
665 2 62.9973730469 11.5809288641 0.0
666 2 65.2839730469 12.6630288641 0.0
667 2 62.9197730469 14.0996288641 0.0
668 2 69.0179730469 9.34899886414 0.0
669 2 70.6703730469 11.3585288641 0.0
670 2 67.9902730469 11.7119288641 0.0
671 2 74.3173730469 8.71583886414 0.0
672 2 76.1369730469 10.1825288641 0.0
673 2 73.3868730469 11.0785288641 0.0
674 2 0.855113046888 15.9779288641 0.0
675 2 76.2687730469 15.5877288641 0.0
676 2 4.60963304689 13.7585288641 0.0
677 2 5.85976304689 15.9829288641 0.0
678 2 3.31860304689 16.0823288641 0.0
679 2 9.90377304689 13.7638288641 0.0
680 2 10.5263730469 16.5909288641 0.0
681 2 8.42384304689 15.9189288641 0.0
682 2 15.0987730469 14.1359288641 0.0
683 2 16.6974730469 16.1593288641 0.0
684 2 14.5810730469 16.9500288641 0.0
685 2 19.2618730469 13.5122288641 0.0
686 2 21.5432730469 15.3558288641 0.0
687 2 19.1686730469 15.8295288641 0.0
688 2 25.3112730469 13.0356288641 0.0
689 2 26.6178730469 15.4004288641 0.0
690 2 24.0954730469 15.3321288641 0.0
691 2 30.5287730469 13.2175288641 0.0
692 2 31.7332730469 15.5134288641 0.0
693 2 29.1552730469 15.4748288641 0.0
694 2 35.6920730469 13.4985288641 0.0
695 2 37.0459730469 15.6835288641 0.0
696 2 34.3616730469 15.6667288641 0.0
697 2 41.1495730469 13.9041288641 0.0
698 2 42.4965730469 16.1690288641 0.0
699 2 39.7860730469 15.9068288641 0.0
700 2 46.2080730469 13.6747288641 0.0
701 2 47.5869730469 15.9832288641 0.0
702 2 45.0554730469 16.0622288641 0.0
703 2 51.3466730469 13.7620288641 0.0
704 2 52.8076730469 15.9924288641 0.0
705 2 50.1754730469 16.0509288641 0.0
706 2 56.7535730469 13.7558288641 0.0
707 2 58.1227730469 15.9765288641 0.0
708 2 55.4581730469 16.0078288641 0.0
709 2 63.3861730469 16.3659288641 0.0
710 2 60.7988730469 16.0130288641 0.0
711 2 67.0901730469 14.1245288641 0.0
712 2 68.6213730469 16.1864288641 0.0
713 2 65.9676730469 16.4254288641 0.0
714 2 72.2344730469 13.3911288641 0.0
715 2 73.6836730469 15.6052288641 0.0
716 2 71.1815730469 15.8438288641 0.0
717 2 1.95332304689 18.3659288641 0.0
718 2 3.17146304689 20.5928288641 0.0
719 2 0.547953046888 20.5553288641 0.0
720 2 7.08596304689 18.2077288641 0.0
721 2 8.38785304689 20.3395288641 0.0
722 2 5.76035304689 20.4855288641 0.0
723 2 12.5274730469 18.1866288641 0.0
724 2 10.4818730469 19.4054288641 0.0
725 2 18.1418730469 18.2964288641 0.0
726 2 19.5278730469 20.4352288641 0.0
727 2 16.8510730469 20.4722288641 0.0
728 2 23.0083730469 17.6528288641 0.0
729 2 24.4331730469 20.0167288641 0.0
730 2 22.0373730469 20.1163288641 0.0
731 2 28.0081730469 17.7539288641 0.0
732 2 29.3562730469 20.1655288641 0.0
733 2 26.8997730469 20.0815288641 0.0
734 2 32.9801730469 17.8166288641 0.0
735 2 34.3244730469 20.0340288641 0.0
736 2 31.7922730469 20.1965288641 0.0
737 2 38.3208730469 17.8949288641 0.0
738 2 39.5761730469 20.1711288641 0.0
739 2 36.9555730469 20.0576288641 0.0
740 2 43.6911730469 18.4245288641 0.0
741 2 44.8789730469 20.6611288641 0.0
742 2 42.1792730469 20.5819288641 0.0
743 2 48.8507730469 18.3177288641 0.0
744 2 50.1768730469 20.5812288641 0.0
745 2 47.5391730469 20.5853288641 0.0
746 2 54.1251730469 18.2545288641 0.0
747 2 55.4051730469 20.5611288641 0.0
748 2 52.8044730469 20.5286288641 0.0
749 2 59.3631730469 18.2273288641 0.0
750 2 60.5232730469 20.5923288641 0.0
751 2 57.9808730469 20.5295288641 0.0
752 2 64.5701730469 18.6609288641 0.0
753 2 65.8365730469 20.8232288641 0.0
754 2 63.1319730469 20.8084288641 0.0
755 2 69.8782730469 18.2801288641 0.0
756 2 71.0082730469 20.5236288641 0.0
757 2 68.4453730469 20.5987288641 0.0
758 2 74.8483730469 17.8823288641 0.0
759 2 75.8981730469 20.3100288641 0.0
760 2 73.5041730469 20.2873288641 0.0
761 2 77.1509730469 22.7392288641 0.0
762 2 0.776623046888 24.9128288641 0.0
763 2 76.0420730469 25.0586288641 0.0
764 2 4.61804304689 22.7706288641 0.0
765 2 6.18382304689 24.7319288641 0.0
766 2 3.44040304689 24.9694288641 0.0
767 2 10.1264730469 22.2406288641 0.0
768 2 11.4344730469 24.6434288641 0.0
769 2 8.89996304689 24.4715288641 0.0
770 2 15.2478730469 22.4766288641 0.0
771 2 16.5253730469 24.7192288641 0.0
772 2 13.9322730469 24.7722288641 0.0
773 2 20.7019730469 22.5612288641 0.0
774 2 21.8465730469 24.6897288641 0.0
775 2 19.1592730469 24.7615288641 0.0
776 2 25.7731730469 22.4108288641 0.0
777 2 27.1116730469 24.7888288641 0.0
778 2 24.5395730469 24.6071288641 0.0
779 2 30.7241730469 22.5681288641 0.0
780 2 32.2476730469 24.7644288641 0.0
781 2 29.6389730469 24.8967288641 0.0
782 2 35.7537730469 22.2602288641 0.0
783 2 37.5634730469 23.7599288641 0.0
784 2 34.8589730469 24.6709288641 0.0
785 2 39.8814730469 24.8654288641 0.0
786 2 42.2015730469 25.9541288641 0.0
787 2 39.7826730469 27.3234288641 0.0