ITEM: TIMESTEP
0
ITEM: NUMBER OF ATOMS
1350
ITEM: BOX BOUNDS xy xz yz pp pp pp
0.0 77.6656290164 0
0.0 81.7411519106 0
-10.0 10.0 0
ITEM: ATOMS id type x y z vx vy vz
1 1 1.99572228503 1.21050595528 0.0 0.0 0.0 0.0
2 1 7.25320228503 1.80688595528 0.0 0.0 0.0 0.0
3 1 12.319352285 2.31188595528 0.0 0.0 0.0 0.0
4 1 17.422652285 1.93460595528 0.0 0.0 0.0 0.0
5 1 22.850752285 1.48006595528 0.0 0.0 0.0 0.0
6 1 30.024352285 0.445291955278 0.0 0.0 0.0 0.0
7 1 33.037752285 0.349372955278 0.0 0.0 0.0 0.0
8 1 38.296952285 0.975325955278 0.0 0.0 0.0 0.0
9 1 43.557952285 1.04793595528 0.0 0.0 0.0 0.0
10 1 48.862752285 0.993505955278 0.0 0.0 0.0 0.0
11 1 53.915352285 1.62424595528 0.0 0.0 0.0 0.0
12 1 59.117352285 1.72356595528 0.0 0.0 0.0 0.0
13 1 64.461852285 1.80236595528 0.0 0.0 0.0 0.0
14 1 69.781852285 1.99271595528 0.0 0.0 0.0 0.0
15 1 76.652052285 1.23012595528 0.0 0.0 0.0 0.0
16 1 76.640852285 6.45683595528 0.0 0.0 0.0 0.0
17 1 4.17322228503 5.93479595528 0.0 0.0 0.0 0.0
18 1 9.51135228503 6.67324595528 0.0 0.0 0.0 0.0
19 1 14.968552285 6.69348595528 0.0 0.0 0.0 0.0
20 1 20.123752285 6.04207595528 0.0 0.0 0.0 0.0
21 1 25.160152285 6.10422595528 0.0 0.0 0.0 0.0
22 1 30.066452285 5.49843595528 0.0 0.0 0.0 0.0
23 1 35.569152285 5.11155595528 0.0 0.0 0.0 0.0
24 1 41.191752285 5.48210595528 0.0 0.0 0.0 0.0
25 1 46.422052285 5.42468595528 0.0 0.0 0.0 0.0
26 1 50.842752285 8.05941595528 0.0 0.0 0.0 0.0
27 1 56.348752285 6.25398595528 0.0 0.0 0.0 0.0
28 1 61.711352285 6.20903595528 0.0 0.0 0.0 0.0
29 1 66.953552285 6.36297595528 0.0 0.0 0.0 0.0
30 1 72.030952285 6.88440595528 0.0 0.0 0.0 0.0
31 1 2.22376228503 10.6702759553 0.0 0.0 0.0 0.0
32 1 7.38008228503 12.3885759553 0.0 0.0 0.0 0.0
33 1 12.899252285 10.9113759553 0.0 0.0 0.0 0.0
34 1 17.919052285 10.8941759553 0.0 0.0 0.0 0.0
35 1 22.946252285 10.7124759553 0.0 0.0 0.0 0.0
36 1 28.097452285 10.4873759553 0.0 0.0 0.0 0.0
37 1 33.087552285 9.54614595528 0.0 0.0 0.0 0.0
38 1 38.422552285 9.39482595528 0.0 0.0 0.0 0.0
39 1 43.771352285 10.0272759553 0.0 0.0 0.0 0.0
40 1 49.157852285 10.5712759553 0.0 0.0 0.0 0.0
41 1 54.199052285 10.9847759553 0.0 0.0 0.0 0.0
42 1 59.306152285 10.6447759553 0.0 0.0 0.0 0.0
43 1 64.475252285 10.7963759553 0.0 0.0 0.0 0.0
44 1 69.753952285 11.1974759553 0.0 0.0 0.0 0.0
45 1 75.163852285 11.5367759553 0.0 0.0 0.0 0.0
46 1 0.370152285033 16.0042759553 0.0 0.0 0.0 0.0
47 1 6.54030228503 15.2577759553 0.0 0.0 0.0 0.0
48 1 11.611052285 15.2804759553 0.0 0.0 0.0 0.0
49 1 16.052552285 15.5365759553 0.0 0.0 0.0 0.0
50 1 20.795452285 15.4547759553 0.0 0.0 0.0 0.0
51 1 25.883152285 15.1458759553 0.0 0.0 0.0 0.0
52 1 31.166552285 14.6034759553 0.0 0.0 0.0 0.0
53 1 36.319152285 13.8170759553 0.0 0.0 0.0 0.0
54 1 40.804252285 16.2478759553 0.0 0.0 0.0 0.0
55 1 46.315352285 14.6979759553 0.0 0.0 0.0 0.0
56 1 51.461452285 15.4046759553 0.0 0.0 0.0 0.0
57 1 56.695752285 15.3967759553 0.0 0.0 0.0 0.0
58 1 61.896952285 15.2825759553 0.0 0.0 0.0 0.0
59 1 67.162952285 15.4431759553 0.0 0.0 0.0 0.0
60 1 72.550152285 15.7117759553 0.0 0.0 0.0 0.0
61 1 2.32709228503 18.3681759553 0.0 0.0 0.0 0.0
62 1 7.87130228503 19.5582759553 0.0 0.0 0.0 0.0
63 1 13.094152285 20.3637759553 0.0 0.0 0.0 0.0
64 1 18.277852285 20.3649759553 0.0 0.0 0.0 0.0
65 1 23.403352285 19.9133759553 0.0 0.0 0.0 0.0
66 1 28.740552285 19.3063759553 0.0 0.0 0.0 0.0
67 1 33.838152285 18.7349759553 0.0 0.0 0.0 0.0
68 1 39.114252285 18.7401759553 0.0 0.0 0.0 0.0
69 1 44.255952285 19.3599759553 0.0 0.0 0.0 0.0
70 1 49.027352285 19.5843759553 0.0 0.0 0.0 0.0
71 1 53.999752285 19.9030759553 0.0 0.0 0.0 0.0
72 1 59.196052285 19.8594759553 0.0 0.0 0.0 0.0
73 1 64.441452285 19.8298759553 0.0 0.0 0.0 0.0
74 1 69.682452285 19.9319759553 0.0 0.0 0.0 0.0
75 1 74.925352285 20.1223759553 0.0 0.0 0.0 0.0
76 1 77.244152285 24.9244759553 0.0 0.0 0.0 0.0
77 1 4.33264228503 23.9570759553 0.0 0.0 0.0 0.0
78 1 9.65595228503 24.3583759553 0.0 0.0 0.0 0.0
79 1 15.120552285 24.8858759553 0.0 0.0 0.0 0.0
80 1 21.224452285 24.7247759553 0.0 0.0 0.0 0.0
81 1 26.468752285 23.9684759553 0.0 0.0 0.0 0.0
82 1 31.351352285 23.6180759553 0.0 0.0 0.0 0.0
83 1 36.017552285 23.1724759553 0.0 0.0 0.0 0.0
84 1 41.153152285 23.5047759553 0.0 0.0 0.0 0.0
85 1 46.373252285 24.2969759553 0.0 0.0 0.0 0.0
86 1 51.282752285 24.4505759553 0.0 0.0 0.0 0.0
87 1 56.474852285 24.4030759553 0.0 0.0 0.0 0.0
88 1 61.777352285 24.3185759553 0.0 0.0 0.0 0.0
89 1 67.026552285 24.3605759553 0.0 0.0 0.0 0.0
90 1 72.171252285 24.5099759553 0.0 0.0 0.0 0.0
91 1 2.56025228503 29.1783759553 0.0 0.0 0.0 0.0
92 1 7.50561228503 28.6071759553 0.0 0.0 0.0 0.0
93 1 12.450952285 28.8625759553 0.0 0.0 0.0 0.0
94 1 16.733152285 27.4354759553 0.0 0.0 0.0 0.0
95 1 24.104952285 28.7436759553 0.0 0.0 0.0 0.0
96 1 29.073352285 28.5531759553 0.0 0.0 0.0 0.0
97 1 33.963752285 28.2985759553 0.0 0.0 0.0 0.0
98 1 38.702452285 27.8525759553 0.0 0.0 0.0 0.0
99 1 43.113952285 30.2754759553 0.0 0.0 0.0 0.0
100 1 48.643252285 29.1320759553 0.0 0.0 0.0 0.0
101 1 53.827452285 28.9645759553 0.0 0.0 0.0 0.0
102 1 59.216652285 28.7782759553 0.0 0.0 0.0 0.0
103 1 64.541552285 28.7972759553 0.0 0.0 0.0 0.0
104 1 69.803452285 28.9745759553 0.0 0.0 0.0 0.0
105 1 75.018952285 29.2643759553 0.0 0.0 0.0 0.0
106 1 0.306972285033 33.7109759553 0.0 0.0 0.0 0.0
107 1 5.53410228503 33.5756759553 0.0 0.0 0.0 0.0
108 1 10.637952285 33.4134759553 0.0 0.0 0.0 0.0
109 1 15.691152285 33.0328759553 0.0 0.0 0.0 0.0
110 1 21.162252285 32.9186759553 0.0 0.0 0.0 0.0
111 1 26.427252285 33.3400759553 0.0 0.0 0.0 0.0
112 1 31.503452285 33.2004759553 0.0 0.0 0.0 0.0
113 1 36.602152285 32.9313759553 0.0 0.0 0.0 0.0
114 1 41.946852285 33.0341759553 0.0 0.0 0.0 0.0
115 1 46.402352285 36.0511759553 0.0 0.0 0.0 0.0
116 1 51.542252285 33.5854759553 0.0 0.0 0.0 0.0
117 1 56.907752285 33.1853759553 0.0 0.0 0.0 0.0
118 1 62.169152285 33.1636759553 0.0 0.0 0.0 0.0
119 1 67.428552285 33.3131759553 0.0 0.0 0.0 0.0
120 1 72.691952285 33.5754759553 0.0 0.0 0.0 0.0
121 1 3.09469228503 38.1490759553 0.0 0.0 0.0 0.0
122 1 8.41946228503 38.1124759553 0.0 0.0 0.0 0.0
123 1 13.653752285 37.9162759553 0.0 0.0 0.0 0.0
124 1 18.737452285 37.2664759553 0.0 0.0 0.0 0.0
125 1 23.925152285 37.6193759553 0.0 0.0 0.0 0.0
126 1 28.870752285 37.9369759553 0.0 0.0 0.0 0.0
127 1 33.833852285 37.6948759553 0.0 0.0 0.0 0.0
128 1 38.837652285 37.3732759553 0.0 0.0 0.0 0.0
129 1 44.339852285 38.2290759553 0.0 0.0 0.0 0.0
130 1 50.093252285 38.5844759553 0.0 0.0 0.0 0.0
131 1 55.143652285 37.6098759553 0.0 0.0 0.0 0.0
132 1 59.989452285 37.5878759553 0.0 0.0 0.0 0.0
133 1 65.009952285 37.6664759553 0.0 0.0 0.0 0.0
134 1 70.257652285 37.8660759553 0.0 0.0 0.0 0.0
135 1 75.526752285 38.0707759553 0.0 0.0 0.0 0.0
136 1 0.297962285033 42.6074759553 0.0 0.0 0.0 0.0
137 1 5.56634228503 42.5643759553 0.0 0.0 0.0 0.0
138 1 10.951452285 42.5673759553 0.0 0.0 0.0 0.0
139 1 17.952852285 41.8123759553 0.0 0.0 0.0 0.0
140 1 20.985152285 41.9776759553 0.0 0.0 0.0 0.0
141 1 26.081452285 42.5495759553 0.0 0.0 0.0 0.0
142 1 31.377252285 42.5839759553 0.0 0.0 0.0 0.0
143 1 36.216852285 42.2310759553 0.0 0.0 0.0 0.0
144 1 41.161252285 41.9019759553 0.0 0.0 0.0 0.0
145 1 45.674352285 40.9036759553 0.0 0.0 0.0 0.0
146 1 52.912652285 42.5655759553 0.0 0.0 0.0 0.0
147 1 57.718252285 42.3529759553 0.0 0.0 0.0 0.0
148 1 62.517452285 42.2542759553 0.0 0.0 0.0 0.0
149 1 67.567852285 42.2022759553 0.0 0.0 0.0 0.0
150 1 72.918852285 42.4030759553 0.0 0.0 0.0 0.0
151 1 2.48726228503 47.0363759553 0.0 0.0 0.0 0.0
152 1 7.70643228503 46.9166759553 0.0 0.0 0.0 0.0
153 1 12.764152285 47.2471759553 0.0 0.0 0.0 0.0
154 1 17.946952285 47.0673759553 0.0 0.0 0.0 0.0
155 1 23.370352285 46.9669759553 0.0 0.0 0.0 0.0
156 1 28.820452285 47.0991759553 0.0 0.0 0.0 0.0
157 1 34.461952285 47.2279759553 0.0 0.0 0.0 0.0
158 1 39.420752285 46.7059759553 0.0 0.0 0.0 0.0
159 1 44.560652285 46.1440759553 0.0 0.0 0.0 0.0
160 1 49.909352285 46.7377759553 0.0 0.0 0.0 0.0
161 1 54.981252285 47.1960759553 0.0 0.0 0.0 0.0
162 1 59.997452285 47.0898759553 0.0 0.0 0.0 0.0
163 1 64.772652285 46.8175759553 0.0 0.0 0.0 0.0
164 1 69.921252285 46.6258759553 0.0 0.0 0.0 0.0
165 1 74.933152285 47.1235759553 0.0 0.0 0.0 0.0
166 1 77.203152285 51.5736759553 0.0 0.0 0.0 0.0
167 1 4.96789228503 51.4861759553 0.0 0.0 0.0 0.0
168 1 9.91905228503 51.7016759553 0.0 0.0 0.0 0.0
169 1 15.003352285 51.6587759553 0.0 0.0 0.0 0.0
170 1 20.365752285 51.4482759553 0.0 0.0 0.0 0.0
171 1 26.369052285 51.4530759553 0.0 0.0 0.0 0.0
172 1 31.798052285 51.3557759553 0.0 0.0 0.0 0.0
173 1 38.925652285 51.2188759553 0.0 0.0 0.0 0.0
174 1 43.639952285 50.5701759553 0.0 0.0 0.0 0.0
175 1 46.647452285 50.7048759553 0.0 0.0 0.0 0.0
176 1 51.919852285 51.5179759553 0.0 0.0 0.0 0.0
177 1 57.330552285 51.7706759553 0.0 0.0 0.0 0.0
178 1 62.601652285 51.7599759553 0.0 0.0 0.0 0.0
179 1 67.619352285 51.2291759553 0.0 0.0 0.0 0.0
180 1 71.842152285 53.7603759553 0.0 0.0 0.0 0.0
181 1 2.36129228503 55.8217759553 0.0 0.0 0.0 0.0
182 1 7.29557228503 56.3189759553 0.0 0.0 0.0 0.0
183 1 12.329952285 56.2916759553 0.0 0.0 0.0 0.0
184 1 17.533452285 55.9028759553 0.0 0.0 0.0 0.0
185 1 21.818252285 54.1067759553 0.0 0.0 0.0 0.0
186 1 28.934352285 55.7230759553 0.0 0.0 0.0 0.0
187 1 33.780452285 56.3516759553 0.0 0.0 0.0 0.0
188 1 38.519352285 56.2103759553 0.0 0.0 0.0 0.0
189 1 43.283952285 55.2960759553 0.0 0.0 0.0 0.0
190 1 48.970552285 55.5101759553 0.0 0.0 0.0 0.0
191 1 54.504352285 55.9599759553 0.0 0.0 0.0 0.0
192 1 59.871352285 56.2238759553 0.0 0.0 0.0 0.0
193 1 65.138452285 56.1454759553 0.0 0.0 0.0 0.0
194 1 70.342752285 56.3764759553 0.0 0.0 0.0 0.0
195 1 75.006852285 56.4321759553 0.0 0.0 0.0 0.0
196 1 0.252802285033 60.6947759553 0.0 0.0 0.0 0.0
197 1 4.62985228503 63.0564759553 0.0 0.0 0.0 0.0
198 1 9.95435228503 60.9611759553 0.0 0.0 0.0 0.0
199 1 15.284652285 60.5830759553 0.0 0.0 0.0 0.0
200 1 20.560552285 59.8079759553 0.0 0.0 0.0 0.0
201 1 25.880852285 59.8111759553 0.0 0.0 0.0 0.0
202 1 31.107752285 60.7608759553 0.0 0.0 0.0 0.0
203 1 36.447152285 61.1059759553 0.0 0.0 0.0 0.0
204 1 41.716552285 60.4939759553 0.0 0.0 0.0 0.0
205 1 46.734552285 59.4433759553 0.0 0.0 0.0 0.0
206 1 52.022352285 59.9296759553 0.0 0.0 0.0 0.0
207 1 57.136052285 60.4827759553 0.0 0.0 0.0 0.0
208 1 62.349452285 60.6692759553 0.0 0.0 0.0 0.0
209 1 67.516152285 60.7889759553 0.0 0.0 0.0 0.0
210 1 72.747152285 61.2859759553 0.0 0.0 0.0 0.0
211 1 3.06597228503 65.6287759553 0.0 0.0 0.0 0.0
212 1 8.06018228503 65.8449759553 0.0 0.0 0.0 0.0
213 1 12.991852285 65.1622759553 0.0 0.0 0.0 0.0
214 1 18.012152285 64.6204759553 0.0 0.0 0.0 0.0
215 1 23.146352285 64.2535759553 0.0 0.0 0.0 0.0
216 1 28.414152285 64.7158759553 0.0 0.0 0.0 0.0
217 1 33.708552285 65.3242759553 0.0 0.0 0.0 0.0
218 1 39.170552285 65.2348759553 0.0 0.0 0.0 0.0
219 1 46.243852285 64.0231759553 0.0 0.0 0.0 0.0
220 1 49.256552285 64.1198759553 0.0 0.0 0.0 0.0
221 1 54.364752285 64.7973759553 0.0 0.0 0.0 0.0
222 1 59.604752285 65.1148759553 0.0 0.0 0.0 0.0
223 1 64.802552285 65.3076759553 0.0 0.0 0.0 0.0
224 1 70.013552285 65.5213759553 0.0 0.0 0.0 0.0
225 1 75.326352285 65.5059759553 0.0 0.0 0.0 0.0
226 1 0.0516742850326 69.8998759553 0.0 0.0 0.0 0.0
227 1 5.42734228503 70.3875759553 0.0 0.0 0.0 0.0
228 1 10.650352285 70.1620759553 0.0 0.0 0.0 0.0
229 1 15.467652285 69.5273759553 0.0 0.0 0.0 0.0
230 1 20.577552285 69.0025759553 0.0 0.0 0.0 0.0
231 1 25.413052285 68.9127759553 0.0 0.0 0.0 0.0
232 1 30.545952285 69.4166759553 0.0 0.0 0.0 0.0
233 1 36.468952285 69.5751759553 0.0 0.0 0.0 0.0
234 1 41.744052285 69.5850759553 0.0 0.0 0.0 0.0
235 1 46.579652285 69.1671759553 0.0 0.0 0.0 0.0
236 1 51.828052285 69.0609759553 0.0 0.0 0.0 0.0
237 1 56.976152285 69.4811759553 0.0 0.0 0.0 0.0
238 1 62.134652285 69.7745759553 0.0 0.0 0.0 0.0
239 1 67.291052285 69.9526759553 0.0 0.0 0.0 0.0
240 1 72.449052285 69.9552759553 0.0 0.0 0.0 0.0
241 1 2.73456228503 74.4615759553 0.0 0.0 0.0 0.0
242 1 8.17774228503 74.7558759553 0.0 0.0 0.0 0.0
243 1 13.312252285 74.6203759553 0.0 0.0 0.0 0.0
244 1 18.214652285 73.8091759553 0.0 0.0 0.0 0.0
245 1 23.166752285 73.7410759553 0.0 0.0 0.0 0.0
246 1 27.741152285 73.6837759553 0.0 0.0 0.0 0.0
247 1 32.000952285 72.0404759553 0.0 0.0 0.0 0.0
248 1 39.181052285 73.9636759553 0.0 0.0 0.0 0.0
249 1 44.331652285 74.1102759553 0.0 0.0 0.0 0.0
250 1 49.471252285 73.6134759553 0.0 0.0 0.0 0.0
251 1 54.502452285 73.8586759553 0.0 0.0 0.0 0.0
252 1 59.518752285 74.2247759553 0.0 0.0 0.0 0.0
253 1 64.662752285 74.4629759553 0.0 0.0 0.0 0.0
254 1 69.799452285 74.5481759553 0.0 0.0 0.0 0.0
255 1 74.873552285 74.3983759553 0.0 0.0 0.0 0.0
256 1 75.165752285 3.83030595528 0.0 0.0 0.0 0.0
257 1 4.45701228503 2.94060595528 0.0 0.0 0.0 0.0
258 1 9.62865228503 3.66021595528 0.0 0.0 0.0 0.0
259 1 14.987152285 3.69618595528 0.0 0.0 0.0 0.0
260 1 20.241952285 3.01922595528 0.0 0.0 0.0 0.0
261 1 25.398852285 3.10804595528 0.0 0.0 0.0 0.0
262 1 28.414152285 2.97613595528 0.0 0.0 0.0 0.0
263 1 35.498452285 2.10025595528 0.0 0.0 0.0 0.0
264 1 40.913952285 2.48167595528 0.0 0.0 0.0 0.0
265 1 46.219052285 2.42914595528 0.0 0.0 0.0 0.0
266 1 51.169752285 2.91366595528 0.0 0.0 0.0 0.0
267 1 56.482352285 3.22729595528 0.0 0.0 0.0 0.0
268 1 61.768452285 3.18733595528 0.0 0.0 0.0 0.0
269 1 67.071752285 3.34095595528 0.0 0.0 0.0 0.0
270 1 72.155152285 3.87439595528 0.0 0.0 0.0 0.0
271 1 1.72015228503 7.68908595528 0.0 0.0 0.0 0.0
272 1 6.64575228503 7.64284595528 0.0 0.0 0.0 0.0
273 1 12.243652285 7.97498595528 0.0 0.0 0.0 0.0
274 1 17.733852285 7.88512595528 0.0 0.0 0.0 0.0
275 1 22.626952285 7.71646595528 0.0 0.0 0.0 0.0
276 1 27.824052285 7.49661595528 0.0 0.0 0.0 0.0
277 1 32.903952285 6.53573595528 0.0 0.0 0.0 0.0
278 1 38.310852285 6.39473595528 0.0 0.0 0.0 0.0
279 1 43.825952285 6.99645595528 0.0 0.0 0.0 0.0
280 1 49.447952285 5.40345595528 0.0 0.0 0.0 0.0
281 1 53.867052285 7.99814595528 0.0 0.0 0.0 0.0
282 1 59.045252285 7.63499595528 0.0 0.0 0.0 0.0
283 1 64.292952285 7.78273595528 0.0 0.0 0.0 0.0
284 1 69.340852285 8.21116595528 0.0 0.0 0.0 0.0
285 1 74.523852285 8.58302595528 0.0 0.0 0.0 0.0
286 1 0.197289285033 12.9451759553 0.0 0.0 0.0 0.0
287 1 5.22593228503 10.3013759553 0.0 0.0 0.0 0.0
288 1 10.387952285 12.5407759553 0.0 0.0 0.0 0.0
289 1 15.424652285 12.5756759553 0.0 0.0 0.0 0.0
290 1 20.493552285 12.4540759553 0.0 0.0 0.0 0.0
291 1 25.592152285 12.1487759553 0.0 0.0 0.0 0.0
292 1 30.887052285 11.6037759553 0.0 0.0 0.0 0.0
293 1 35.793852285 10.8585759553 0.0 0.0 0.0 0.0
294 1 40.923652285 11.0709759553 0.0 0.0 0.0 0.0
295 1 46.328652285 11.6659759553 0.0 0.0 0.0 0.0
296 1 51.544452285 12.4032759553 0.0 0.0 0.0 0.0
297 1 56.853052285 12.3911759553 0.0 0.0 0.0 0.0
298 1 61.847352285 12.2676759553 0.0 0.0 0.0 0.0
299 1 67.009952285 12.4372759553 0.0 0.0 0.0 0.0
300 1 72.379952285 12.7057759553 0.0 0.0 0.0 0.0
301 1 5.30314228503 17.9798759553 0.0 0.0 0.0 0.0
302 1 9.07543228503 16.8312759553 0.0 0.0 0.0 0.0
303 1 13.714552285 17.4109759553 0.0 0.0 0.0 0.0
304 1 18.455652285 17.3453759553 0.0 0.0 0.0 0.0
305 1 23.432552285 16.8974759553 0.0 0.0 0.0 0.0
306 1 28.666952285 16.2964759553 0.0 0.0 0.0 0.0
307 1 33.967452285 15.7213759553 0.0 0.0 0.0 0.0
308 1 39.334852285 13.6377759553 0.0 0.0 0.0 0.0
309 1 43.817652285 16.3893759553 0.0 0.0 0.0 0.0
310 1 48.690552285 16.5803759553 0.0 0.0 0.0 0.0
311 1 54.078852285 16.8931759553 0.0 0.0 0.0 0.0
312 1 59.326852285 16.8537759553 0.0 0.0 0.0 0.0
313 1 64.486852285 16.8220759553 0.0 0.0 0.0 0.0
314 1 69.790452285 16.9262759553 0.0 0.0 0.0 0.0
315 1 75.223152285 17.1227759553 0.0 0.0 0.0 0.0
316 1 77.332052285 21.9330759553 0.0 0.0 0.0 0.0
317 1 2.62821228503 21.4028759553 0.0 0.0 0.0 0.0
318 1 10.249552285 21.4079759553 0.0 0.0 0.0 0.0
319 1 15.682652285 21.9204759553 0.0 0.0 0.0 0.0
320 1 20.975052285 21.7160759553 0.0 0.0 0.0 0.0
321 1 26.226552285 20.9700759553 0.0 0.0 0.0 0.0
322 1 31.460552285 20.5986759553 0.0 0.0 0.0 0.0
323 1 36.467252285 20.1890759553 0.0 0.0 0.0 0.0
324 1 41.503252285 20.5414759553 0.0 0.0 0.0 0.0
325 1 46.557052285 21.2896759553 0.0 0.0 0.0 0.0
326 1 51.407452285 21.4328759553 0.0 0.0 0.0 0.0
327 1 56.607752285 21.3967759553 0.0 0.0 0.0 0.0
328 1 61.826252285 21.3142759553 0.0 0.0 0.0 0.0
329 1 67.034052285 21.3548759553 0.0 0.0 0.0 0.0
330 1 72.248852285 21.5027759553 0.0 0.0 0.0 0.0
331 1 2.30198228503 26.1814759553 0.0 0.0 0.0 0.0
332 1 6.90624228503 25.6132759553 0.0 0.0 0.0 0.0
333 1 12.270352285 25.8597759553 0.0 0.0 0.0 0.0
334 1 19.733552285 27.3462759553 0.0 0.0 0.0 0.0
335 1 24.048152285 25.7404759553 0.0 0.0 0.0 0.0
336 1 29.031552285 25.5349759553 0.0 0.0 0.0 0.0
337 1 33.857752285 25.2727759553 0.0 0.0 0.0 0.0
338 1 38.482252285 24.8663759553 0.0 0.0 0.0 0.0
339 1 43.541452285 25.3012759553 0.0 0.0 0.0 0.0
340 1 48.770152285 26.1166759553 0.0 0.0 0.0 0.0
341 1 53.891352285 25.9532759553 0.0 0.0 0.0 0.0
342 1 59.149352285 25.7767759553 0.0 0.0 0.0 0.0
343 1 64.392352285 25.7994759553 0.0 0.0 0.0 0.0
344 1 69.556852285 25.9813759553 0.0 0.0 0.0 0.0
345 1 74.586152285 26.2965759553 0.0 0.0 0.0 0.0
346 1 77.649752285 30.7231759553 0.0 0.0 0.0 0.0
347 1 5.22442228503 30.5732759553 0.0 0.0 0.0 0.0
348 1 9.91105228503 30.4649759553 0.0 0.0 0.0 0.0
349 1 15.218252285 30.0426759553 0.0 0.0 0.0 0.0
350 1 21.335352285 29.9020759553 0.0 0.0 0.0 0.0
351 1 26.648852285 30.3359759553 0.0 0.0 0.0 0.0
352 1 31.604752285 30.1775759553 0.0 0.0 0.0 0.0
353 1 36.509052285 29.9111759553 0.0 0.0 0.0 0.0
354 1 41.696052285 27.6628759553 0.0 0.0 0.0 0.0
355 1 46.075152285 30.7113759553 0.0 0.0 0.0 0.0
356 1 51.283452285 30.5839759553 0.0 0.0 0.0 0.0
357 1 56.571052285 30.2042759553 0.0 0.0 0.0 0.0
358 1 61.877452285 30.1791759553 0.0 0.0 0.0 0.0
359 1 67.127952285 30.3290759553 0.0 0.0 0.0 0.0
360 1 72.335552285 30.5973759553 0.0 0.0 0.0 0.0
361 1 2.95853228503 35.1403759553 0.0 0.0 0.0 0.0
362 1 8.14068228503 35.1033759553 0.0 0.0 0.0 0.0
363 1 13.295652285 34.8910759553 0.0 0.0 0.0 0.0
364 1 18.456652285 34.2597759553 0.0 0.0 0.0 0.0
365 1 23.684752285 34.6025759553 0.0 0.0 0.0 0.0
366 1 29.005752285 34.9097759553 0.0 0.0 0.0 0.0
367 1 34.131652285 34.6806759553 0.0 0.0 0.0 0.0
368 1 39.244652285 34.3836759553 0.0 0.0 0.0 0.0
369 1 44.912952285 33.4730759553 0.0 0.0 0.0 0.0
370 1 49.378252285 35.6776759553 0.0 0.0 0.0 0.0
371 1 54.331152285 34.7215759553 0.0 0.0 0.0 0.0
372 1 59.548952285 34.6205759553 0.0 0.0 0.0 0.0
373 1 64.760952285 34.6800759553 0.0 0.0 0.0 0.0
374 1 69.993152285 34.8793759553 0.0 0.0 0.0 0.0
375 1 75.298552285 35.0776759553 0.0 0.0 0.0 0.0
376 1 0.452852285033 39.6006759553 0.0 0.0 0.0 0.0
377 1 5.76324228503 39.5556759553 0.0 0.0 0.0 0.0
378 1 11.090952285 39.5410759553 0.0 0.0 0.0 0.0
379 1 16.417852285 39.1889759553 0.0 0.0 0.0 0.0
380 1 21.235452285 38.9669759553 0.0 0.0 0.0 0.0
381 1 26.286852285 39.5140759553 0.0 0.0 0.0 0.0
382 1 31.432552285 39.5413759553 0.0 0.0 0.0 0.0
383 1 36.436352285 39.2105759553 0.0 0.0 0.0 0.0
384 1 41.416852285 38.9088759553 0.0 0.0 0.0 0.0
385 1 48.636852285 41.1995759553 0.0 0.0 0.0 0.0
386 1 52.903652285 39.5784759553 0.0 0.0 0.0 0.0
387 1 57.578052285 39.3545759553 0.0 0.0 0.0 0.0
388 1 62.474852285 39.2570759553 0.0 0.0 0.0 0.0
389 1 67.578852285 39.2074759553 0.0 0.0 0.0 0.0
390 1 72.838952285 39.4039759553 0.0 0.0 0.0 0.0
391 1 2.93582228503 44.0547759553 0.0 0.0 0.0 0.0
392 1 8.24898228503 43.9468759553 0.0 0.0 0.0 0.0
393 1 13.423852285 44.3167759553 0.0 0.0 0.0 0.0
394 1 16.453552285 44.4250759553 0.0 0.0 0.0 0.0
395 1 23.354252285 43.9116759553 0.0 0.0 0.0 0.0
396 1 28.723252285 44.0611759553 0.0 0.0 0.0 0.0
397 1 33.939952285 44.2193759553 0.0 0.0 0.0 0.0
398 1 38.807752285 43.7576759553 0.0 0.0 0.0 0.0
399 1 43.833852285 43.2474759553 0.0 0.0 0.0 0.0
400 1 50.176952285 43.7604759553 0.0 0.0 0.0 0.0
401 1 55.387652285 44.2287759553 0.0 0.0 0.0 0.0
402 1 60.154552285 44.0907759553 0.0 0.0 0.0 0.0
403 1 65.056152285 43.8341759553 0.0 0.0 0.0 0.0
404 1 70.191352285 43.6443759553 0.0 0.0 0.0 0.0
405 1 75.369252285 44.1417759553 0.0 0.0 0.0 0.0
406 1 77.559252285 48.5832759553 0.0 0.0 0.0 0.0
407 1 5.12747228503 48.4785759553 0.0 0.0 0.0 0.0
408 1 10.128352285 48.6981759553 0.0 0.0 0.0 0.0
409 1 15.403252285 48.6848759553 0.0 0.0 0.0 0.0
410 1 20.681452285 48.4172759553 0.0 0.0 0.0 0.0
411 1 26.063952285 48.4246759553 0.0 0.0 0.0 0.0
412 1 31.621352285 48.3369759553 0.0 0.0 0.0 0.0
413 1 37.170152285 48.6992759553 0.0 0.0 0.0 0.0
414 1 42.170552285 47.9429759553 0.0 0.0 0.0 0.0
415 1 47.094552285 47.7401759553 0.0 0.0 0.0 0.0
416 1 52.301552285 48.5412759553 0.0 0.0 0.0 0.0
417 1 57.521152285 48.7771759553 0.0 0.0 0.0 0.0
418 1 62.487452285 48.7553759553 0.0 0.0 0.0 0.0
419 1 67.396552285 48.2424759553 0.0 0.0 0.0 0.0
420 1 72.252952285 48.5042759553 0.0 0.0 0.0 0.0
421 1 2.27311228503 52.8225759553 0.0 0.0 0.0 0.0
422 1 7.36969228503 53.3025759553 0.0 0.0 0.0 0.0
423 1 12.472352285 53.2849759553 0.0 0.0 0.0 0.0
424 1 17.728052285 52.9029759553 0.0 0.0 0.0 0.0
425 1 24.822852285 54.0612759553 0.0 0.0 0.0 0.0
426 1 29.109252285 52.7144759553 0.0 0.0 0.0 0.0
427 1 34.064852285 53.3587759553 0.0 0.0 0.0 0.0
428 1 37.068552285 53.5659759553 0.0 0.0 0.0 0.0
429 1 41.588252285 52.7491759553 0.0 0.0 0.0 0.0
430 1 49.071952285 52.5028759553 0.0 0.0 0.0 0.0
431 1 54.565052285 52.9583759553 0.0 0.0 0.0 0.0
432 1 59.967452285 53.2187759553 0.0 0.0 0.0 0.0
433 1 65.281852285 53.1339759553 0.0 0.0 0.0 0.0
434 1 70.619552285 51.0357759553 0.0 0.0 0.0 0.0
435 1 74.832052285 53.4426759553 0.0 0.0 0.0 0.0
436 1 0.0328952850326 57.7084759553 0.0 0.0 0.0 0.0
437 1 4.65181228503 57.7491759553 0.0 0.0 0.0 0.0
438 1 9.81945228503 57.9527759553 0.0 0.0 0.0 0.0
439 1 15.041052285 57.5880759553 0.0 0.0 0.0 0.0
440 1 20.401252285 56.7862759553 0.0 0.0 0.0 0.0
441 1 26.129352285 56.7895759553 0.0 0.0 0.0 0.0
442 1 31.139952285 57.7577759553 0.0 0.0 0.0 0.0
443 1 36.210852285 58.1148759553 0.0 0.0 0.0 0.0
444 1 41.241752285 57.5082759553 0.0 0.0 0.0 0.0
445 1 46.101952285 56.4838759553 0.0 0.0 0.0 0.0
446 1 51.650552285 56.9399759553 0.0 0.0 0.0 0.0
447 1 57.122652285 57.4692759553 0.0 0.0 0.0 0.0
448 1 62.524752285 57.6568759553 0.0 0.0 0.0 0.0
449 1 67.672752285 57.7714759553 0.0 0.0 0.0 0.0
450 1 72.650652285 58.2862759553 0.0 0.0 0.0 0.0
451 1 3.24405228503 60.4109759553 0.0 0.0 0.0 0.0
452 1 7.63119228503 62.8797759553 0.0 0.0 0.0 0.0
453 1 12.718352285 62.1661759553 0.0 0.0 0.0 0.0
454 1 18.120252285 61.6037759553 0.0 0.0 0.0 0.0
455 1 23.217752285 61.2365759553 0.0 0.0 0.0 0.0
456 1 28.248252285 61.7033759553 0.0 0.0 0.0 0.0
457 1 33.690752285 62.3205759553 0.0 0.0 0.0 0.0
458 1 39.244052285 62.2262759553 0.0 0.0 0.0 0.0
459 1 44.560552285 61.5171759553 0.0 0.0 0.0 0.0
460 1 49.262652285 61.1059759553 0.0 0.0 0.0 0.0
461 1 54.414352285 61.7757759553 0.0 0.0 0.0 0.0
462 1 59.688152285 62.0949759553 0.0 0.0 0.0 0.0
463 1 64.894952285 62.2880759553 0.0 0.0 0.0 0.0
464 1 69.995852285 62.5096759553 0.0 0.0 0.0 0.0
465 1 75.502052285 62.5013759553 0.0 0.0 0.0 0.0
466 1 0.329142285033 66.8982759553 0.0 0.0 0.0 0.0
467 1 5.49074228503 67.3931759553 0.0 0.0 0.0 0.0
468 1 10.749852285 67.1596759553 0.0 0.0 0.0 0.0
469 1 15.668752285 66.5185759553 0.0 0.0 0.0 0.0
470 1 20.685152285 65.9918759553 0.0 0.0 0.0 0.0
471 1 25.654952285 65.9170759553 0.0 0.0 0.0 0.0
472 1 30.905452285 66.4280759553 0.0 0.0 0.0 0.0
473 1 36.455452285 66.5685759553 0.0 0.0 0.0 0.0
474 1 41.861152285 66.5989759553 0.0 0.0 0.0 0.0
475 1 44.871952285 66.6794759553 0.0 0.0 0.0 0.0
476 1 51.610552285 66.0397759553 0.0 0.0 0.0 0.0
477 1 56.898552285 66.4581759553 0.0 0.0 0.0 0.0
478 1 62.148152285 66.7506759553 0.0 0.0 0.0 0.0
479 1 67.348152285 66.9339759553 0.0 0.0 0.0 0.0
480 1 72.671752285 66.9478759553 0.0 0.0 0.0 0.0
481 1 2.62465228503 71.4629759553 0.0 0.0 0.0 0.0
482 1 8.10274228503 71.7542759553 0.0 0.0 0.0 0.0
483 1 13.283652285 71.6037759553 0.0 0.0 0.0 0.0
484 1 18.177852285 70.8062759553 0.0 0.0 0.0 0.0
485 1 23.030052285 70.7330759553 0.0 0.0 0.0 0.0
486 1 27.828152285 70.6807759553 0.0 0.0 0.0 0.0
487 1 34.978752285 72.1778759553 0.0 0.0 0.0 0.0
488 1 39.109552285 70.9751759553 0.0 0.0 0.0 0.0
489 1 44.311652285 71.1198759553 0.0 0.0 0.0 0.0
490 1 49.236752285 70.5977759553 0.0 0.0 0.0 0.0
491 1 54.282052285 70.8388759553 0.0 0.0 0.0 0.0
492 1 59.469752285 71.1975759553 0.0 0.0 0.0 0.0
493 1 64.661052285 71.4367759553 0.0 0.0 0.0 0.0
494 1 69.868552285 71.5253759553 0.0 0.0 0.0 0.0
495 1 75.093352285 71.3930759553 0.0 0.0 0.0 0.0
496 1 77.623852285 75.6153759553 0.0 0.0 0.0 0.0
497 1 5.39020228503 75.8862759553 0.0 0.0 0.0 0.0
498 1 10.785352285 76.2596759553 0.0 0.0 0.0 0.0
499 1 16.044052285 75.8756759553 0.0 0.0 0.0 0.0
500 1 20.717152285 75.4603759553 0.0 0.0 0.0 0.0
501 1 25.481652285 75.6549759553 0.0 0.0 0.0 0.0
502 1 30.563552285 74.6724759553 0.0 0.0 0.0 0.0
503 1 36.330052285 74.8598759553 0.0 0.0 0.0 0.0
504 1 41.709952285 75.5585759553 0.0 0.0 0.0 0.0
505 1 47.039152285 75.3853759553 0.0 0.0 0.0 0.0
506 1 51.911452285 75.3891759553 0.0 0.0 0.0 0.0
507 1 56.891652285 75.7139759553 0.0 0.0 0.0 0.0
508 1 62.018852285 75.9268759553 0.0 0.0 0.0 0.0
509 1 67.206952285 76.0994759553 0.0 0.0 0.0 0.0
510 1 72.383952285 76.1108759553 0.0 0.0 0.0 0.0
511 1 5.40320228503 78.8882759553 0.0 0.0 0.0 0.0
512 1 10.584252285 79.2643759553 0.0 0.0 0.0 0.0
513 1 17.531052285 78.4939759553 0.0 0.0 0.0 0.0
514 1 20.541952285 78.4597759553 0.0 0.0 0.0 0.0
515 1 25.614952285 78.6699759553 0.0 0.0 0.0 0.0
516 1 30.801652285 77.6628759553 0.0 0.0 0.0 0.0
517 1 36.150552285 77.8561759553 0.0 0.0 0.0 0.0
518 1 41.277652285 78.5208759553 0.0 0.0 0.0 0.0
519 1 46.614052285 78.3582759553 0.0 0.0 0.0 0.0
520 1 51.953452285 78.4105759553 0.0 0.0 0.0 0.0
521 1 56.832852285 78.7461759553 0.0 0.0 0.0 0.0
522 1 61.972052285 78.9549759553 0.0 0.0 0.0 0.0
523 1 67.250052285 79.1270759553 0.0 0.0 0.0 0.0
524 1 72.419052285 79.1357759553 0.0 0.0 0.0 0.0
525 1 77.639252285 78.6096759553 0.0 0.0 0.0 0.0
526 1 2.62348228503 80.0215759553 0.0 0.0 0.0 0.0
527 1 7.87897228503 80.5980759553 0.0 0.0 0.0 0.0
528 1 12.953452285 81.1184759553 0.0 0.0 0.0 0.0
529 1 15.961852285 81.0458759553 0.0 0.0 0.0 0.0
530 1 23.008852285 80.2039759553 0.0 0.0 0.0 0.0
531 1 28.493152285 79.5910759553 0.0 0.0 0.0 0.0
532 1 33.429652285 79.1141759553 0.0 0.0 0.0 0.0
533 1 38.519052285 79.7135759553 0.0 0.0 0.0 0.0
534 1 43.980752285 79.8193759553 0.0 0.0 0.0 0.0
535 1 49.265752285 79.7621759553 0.0 0.0 0.0 0.0
536 1 54.268552285 80.3504759553 0.0 0.0 0.0 0.0
537 1 59.335252285 80.4422759553 0.0 0.0 0.0 0.0
538 1 64.563252285 80.5201759553 0.0 0.0 0.0 0.0
539 1 69.835052285 80.7066759553 0.0 0.0 0.0 0.0
540 1 75.186752285 80.3425759553 0.0 0.0 0.0 0.0
541 2 2.37159228503 81.4976759553 0.0 0.0 0.0 0.0
542 2 3.19303228503 2.12069595528 0.0 0.0 0.0 0.0
543 2 0.492352285033 1.29789595528 0.0 0.0 0.0 0.0
544 2 7.58012228503 0.334291955278 0.0 0.0 0.0 0.0
545 2 8.42697228503 2.75322595528 0.0 0.0 0.0 0.0
546 2 5.84696228503 2.35394595528 0.0 0.0 0.0 0.0
547 2 12.560952285 0.829755955278 0.0 0.0 0.0 0.0
548 2 13.635452285 3.03902595528 0.0 0.0 0.0 0.0
549 2 10.978352285 2.98661595528 0.0 0.0 0.0 0.0
550 2 16.766452285 0.576387955278 0.0 0.0 0.0 0.0
551 2 18.853252285 2.40823595528 0.0 0.0 0.0 0.0
552 2 16.246652285 2.88098595528 0.0 0.0 0.0 0.0
553 2 22.923552285 81.7112759553 0.0 0.0 0.0 0.0
554 2 24.156752285 2.24939595528 0.0 0.0 0.0 0.0
555 2 21.534652285 2.23275595528 0.0 0.0 0.0 0.0
556 2 29.214452285 1.70676595528 0.0 0.0 0.0 0.0
557 2 29.201752285 80.9229759553 0.0 0.0 0.0 0.0
558 2 31.533552285 0.493257955278 0.0 0.0 0.0 0.0
559 2 33.298152285 80.6070759553 0.0 0.0 0.0 0.0
560 2 34.237552285 1.26515595528 0.0 0.0 0.0 0.0
561 2 38.400152285 81.2113759553 0.0 0.0 0.0 0.0
562 2 39.591252285 1.75398595528 0.0 0.0 0.0 0.0
563 2 36.897252285 1.53143595528 0.0 0.0 0.0 0.0
564 2 43.777652285 81.3054759553 0.0 0.0 0.0 0.0
565 2 44.880752285 1.75655595528 0.0 0.0 0.0 0.0
566 2 42.225752285 1.73759595528 0.0 0.0 0.0 0.0
567 2 49.079552285 81.2521759553 0.0 0.0 0.0 0.0
568 2 50.056852285 1.89708595528 0.0 0.0 0.0 0.0
569 2 47.519852285 1.67269595528 0.0 0.0 0.0 0.0
570 2 54.084652285 0.113746955278 0.0 0.0 0.0 0.0
571 2 55.190752285 2.43801595528 0.0 0.0 0.0 0.0
572 2 52.567452285 2.32733595528 0.0 0.0 0.0 0.0
573 2 59.213652285 0.210797955278 0.0 0.0 0.0 0.0
574 2 60.441852285 2.45931595528 0.0 0.0 0.0 0.0
575 2 57.801452285 2.47784595528 0.0 0.0 0.0 0.0
576 2 64.511852285 0.290548955278 0.0 0.0 0.0 0.0
577 2 65.767652285 2.57097595528 0.0 0.0 0.0 0.0
578 2 63.113052285 2.49102595528 0.0 0.0 0.0 0.0
579 2 69.832652285 0.480110955278 0.0 0.0 0.0 0.0
580 2 71.004652285 2.89479595528 0.0 0.0 0.0 0.0
581 2 68.422852285 2.65964595528 0.0 0.0 0.0 0.0
582 2 75.915152285 2.53343595528 0.0 0.0 0.0 0.0
583 2 75.837252285 81.7047759553 0.0 0.0 0.0 0.0
584 2 75.966552285 5.10900595528 0.0 0.0 0.0 0.0
585 2 0.374022285033 7.01050595528 0.0 0.0 0.0 0.0
586 2 75.622452285 7.55927595528 0.0 0.0 0.0 0.0
587 2 4.28595228503 4.43554595528 0.0 0.0 0.0 0.0
588 2 2.92545228503 6.78002595528 0.0 0.0 0.0 0.0
589 2 5.46109228503 6.71003595528 0.0 0.0 0.0 0.0
590 2 9.56285228503 5.16293595528 0.0 0.0 0.0 0.0
591 2 10.860952285 7.36213595528 0.0 0.0 0.0 0.0
592 2 8.09900228503 7.22529595528 0.0 0.0 0.0 0.0
593 2 14.991752285 5.19296595528 0.0 0.0 0.0 0.0
594 2 16.334852285 7.32442595528 0.0 0.0 0.0 0.0
595 2 13.596052285 7.30439595528 0.0 0.0 0.0 0.0
596 2 20.191652285 4.53377595528 0.0 0.0 0.0 0.0
597 2 21.375552285 6.88509595528 0.0 0.0 0.0 0.0
598 2 18.907552285 6.93926595528 0.0 0.0 0.0 0.0
599 2 25.205852285 4.60442595528 0.0 0.0 0.0 0.0
600 2 26.476252285 6.83106595528 0.0 0.0 0.0 0.0
601 2 23.893952285 6.90620595528 0.0 0.0 0.0 0.0
602 2 29.298452285 4.20022595528 0.0 0.0 0.0 0.0
603 2 31.511652285 5.93905595528 0.0 0.0 0.0 0.0
604 2 28.996152285 6.56061595528 0.0 0.0 0.0 0.0
605 2 35.502152285 3.60527595528 0.0 0.0 0.0 0.0
606 2 36.947452285 5.73806595528 0.0 0.0 0.0 0.0
607 2 34.231052285 5.81595595528 0.0 0.0 0.0 0.0
608 2 41.081552285 3.97498595528 0.0 0.0 0.0 0.0