# input file

1350 atoms
2 atom types

0.0 78.8016688198 xlo xhi
0.0 80.671364627 ylo yhi
-10.0 10.0 zlo zhi
0.0 0.0 0.0 xy xz yz

Masses

1 28.0855 #Si
2 15.9994 #O

Atoms

1 1 2.23869218675 1.27612231351 0.0
2 1 7.68706218675 1.48298231351 0.0
3 1 13.0997721868 1.42942231351 0.0
4 1 18.2662721868 1.32925231351 0.0
5 1 23.2343721868 1.06278231351 0.0
6 1 28.5325721868 0.898102313507 0.0
7 1 33.7682721868 1.56505231351 0.0
8 1 39.0624721868 1.73248231351 0.0
9 1 44.4591721868 1.77175231351 0.0
10 1 49.8596721868 1.71686231351 0.0
11 1 55.3126721868 2.12126231351 0.0
12 1 60.3300721868 2.42767231351 0.0
13 1 65.2040721868 1.85673231351 0.0
14 1 70.2080721868 1.28901231351 0.0
15 1 75.6640721868 0.781992313507 0.0
16 1 78.5980721868 7.26586231351 0.0
17 1 5.33067218675 5.68165231351 0.0
18 1 10.7598721868 5.79318231351 0.0
19 1 16.0288721868 5.94073231351 0.0
20 1 21.1744721868 5.90123231351 0.0
21 1 26.3663721868 5.37019231351 0.0
22 1 31.1134721868 7.71078231351 0.0
23 1 36.6460721868 6.12825231351 0.0
24 1 41.9296721868 6.14328231351 0.0
25 1 47.1393721868 6.14189231351 0.0
26 1 52.3617721868 6.23587231351 0.0
27 1 57.7703721868 6.92861231351 0.0
28 1 63.0664721868 6.88791231351 0.0
29 1 68.2713721868 6.20562231351 0.0
30 1 73.6825721868 5.19489231351 0.0
31 1 3.34085218675 10.2585823135 0.0
32 1 8.40037218675 10.0402823135 0.0
33 1 13.6793721868 10.3467823135 0.0
34 1 18.7601721868 10.5388823135 0.0
35 1 23.9238721868 10.1939823135 0.0
36 1 29.5336721868 10.2738823135 0.0
37 1 34.6753721868 10.7442823135 0.0
38 1 39.7117721868 10.6016823135 0.0
39 1 44.6303721868 10.7014823135 0.0
40 1 49.6329721868 10.7302823135 0.0
41 1 54.7342721868 10.8707823135 0.0
42 1 60.1408721868 11.3665823135 0.0
43 1 66.3021721868 11.0253823135 0.0
44 1 71.5510721868 9.91578231351 0.0
45 1 77.1082721868 9.87028231351 0.0
46 1 0.748995186754 14.6496823135 0.0
47 1 5.68662218675 14.7372823135 0.0
48 1 10.6435721868 14.6098823135 0.0
49 1 15.8600721868 15.0932823135 0.0
50 1 21.5606721868 14.9761823135 0.0
51 1 26.8027721868 14.3676823135 0.0
52 1 31.9986721868 15.0228823135 0.0
53 1 37.3320721868 15.3120823135 0.0
54 1 42.1625721868 15.4225823135 0.0
55 1 47.1310721868 15.4212823135 0.0
56 1 52.2240721868 15.4088823135 0.0
57 1 57.3941721868 15.4057823135 0.0
58 1 61.8513721868 13.8469823135 0.0
59 1 69.2145721868 14.8154823135 0.0
60 1 74.3370721868 14.0267823135 0.0
61 1 2.77256218675 19.3508823135 0.0
62 1 7.96609218675 19.3428823135 0.0
63 1 13.0541721868 19.3032823135 0.0
64 1 17.2058721868 17.7966823135 0.0
65 1 24.1734721868 19.0947823135 0.0
66 1 29.2720721868 19.1472823135 0.0
67 1 34.4020721868 19.5178823135 0.0
68 1 39.4235721868 20.1847823135 0.0
69 1 44.5802721868 20.1559823135 0.0
70 1 49.8525721868 20.0366823135 0.0
71 1 55.2055721868 19.9306823135 0.0
72 1 60.5958721868 19.3904823135 0.0
73 1 66.0415721868 19.1669823135 0.0
74 1 73.3911721868 18.5723823135 0.0
75 1 76.3888721868 18.7298823135 0.0
76 1 0.0555701867543 23.5233823135 0.0
77 1 5.33631218675 23.8522823135 0.0
78 1 10.6773721868 23.9036823135 0.0
79 1 16.0892721868 23.5025823135 0.0
80 1 21.1821721868 23.4543823135 0.0
81 1 26.4688721868 23.6739823135 0.0
82 1 31.9586721868 23.8657823135 0.0
83 1 36.6436721868 26.4915823135 0.0
84 1 42.1331721868 24.7755823135 0.0
85 1 47.4540721868 24.5861823135 0.0
86 1 52.7402721868 24.3962823135 0.0
87 1 58.0287721868 24.0350823135 0.0
88 1 63.1922721868 23.6377823135 0.0
89 1 68.1521721868 23.8016823135 0.0
90 1 73.3941721868 23.3807823135 0.0
91 1 2.79567218675 28.1341823135 0.0
92 1 7.92173218675 28.2747823135 0.0
93 1 13.0739721868 28.0146823135 0.0
94 1 18.4532721868 28.1618823135 0.0
95 1 24.6610721868 27.9221823135 0.0
96 1 29.4541721868 30.0864823135 0.0
97 1 35.1996721868 29.1420823135 0.0
98 1 40.1863721868 29.4961823135 0.0
99 1 45.2826721868 29.1162823135 0.0
100 1 50.3573721868 28.9683823135 0.0
101 1 55.5742721868 28.6852823135 0.0
102 1 60.8583721868 28.4025823135 0.0
103 1 66.1432721868 28.3977823135 0.0
104 1 71.3816721868 27.9659823135 0.0
105 1 76.6702721868 27.6924823135 0.0
106 1 0.131123186754 32.6389823135 0.0
107 1 5.32918218675 32.7956823135 0.0
108 1 10.4641721868 32.7146823135 0.0
109 1 15.5517721868 32.4349823135 0.0
110 1 20.0524721868 30.7389823135 0.0
111 1 27.5381721868 32.4138823135 0.0
112 1 32.5294721868 33.4234823135 0.0
113 1 37.4824721868 33.9858823135 0.0
114 1 42.8271721868 33.9054823135 0.0
115 1 48.0532721868 33.6910823135 0.0
116 1 53.1299721868 33.3616823135 0.0
117 1 58.4808721868 33.0066823135 0.0
118 1 63.7252721868 32.8571823135 0.0
119 1 70.7920721868 31.9893823135 0.0
120 1 73.8000721868 32.2101823135 0.0
121 1 2.76334218675 37.2674823135 0.0
122 1 8.00580218675 37.3584823135 0.0
123 1 13.2479721868 37.1954823135 0.0
124 1 18.4047721868 36.3468823135 0.0
125 1 23.8385721868 36.0574823135 0.0
126 1 28.8581721868 37.3294823135 0.0
127 1 34.1059721868 38.2847823135 0.0
128 1 39.8505721868 38.3100823135 0.0
129 1 45.3304721868 38.3016823135 0.0
130 1 50.9730721868 38.1615823135 0.0
131 1 56.2348721868 37.5554823135 0.0
132 1 61.2107721868 37.4443823135 0.0
133 1 66.1433721868 37.2713823135 0.0
134 1 71.1534721868 37.0316823135 0.0
135 1 76.3332721868 37.0128823135 0.0
136 1 0.162369186754 41.6620823135 0.0
137 1 5.43030218675 41.8422823135 0.0
138 1 10.6881721868 41.8142823135 0.0
139 1 15.9739721868 41.3409823135 0.0
140 1 21.1216721868 40.5320823135 0.0
141 1 26.2025721868 41.1877823135 0.0
142 1 30.9970721868 42.1232823135 0.0
143 1 35.3088721868 41.0319823135 0.0
144 1 42.3908721868 42.4865823135 0.0
145 1 46.6080721868 41.0240823135 0.0
146 1 53.4963721868 42.2535823135 0.0
147 1 58.6240721868 42.1876823135 0.0
148 1 65.4603721868 41.5161823135 0.0
149 1 68.4539721868 41.7495823135 0.0
150 1 73.6810721868 41.5807823135 0.0
151 1 2.72258218675 46.2633823135 0.0
152 1 7.85979218675 46.3637823135 0.0
153 1 13.1741721868 46.0688823135 0.0
154 1 20.2938721868 45.0720823135 0.0
155 1 23.2960721868 45.4162823135 0.0
156 1 28.4458721868 46.3801823135 0.0
157 1 33.7741721868 46.5319823135 0.0
158 1 39.2925721868 46.5551823135 0.0
159 1 44.9453721868 46.6624823135 0.0
160 1 50.1403721868 46.5579823135 0.0
161 1 55.2461721868 46.6764823135 0.0
162 1 60.6732721868 46.8987823135 0.0
163 1 65.7063721868 46.6331823135 0.0
164 1 70.9674721868 46.1670823135 0.0
165 1 76.1654721868 46.0950823135 0.0
166 1 78.3474721868 50.5397823135 0.0
167 1 4.75557218675 50.9163823135 0.0
168 1 10.4469721868 50.6961823135 0.0
169 1 15.6422721868 50.5555823135 0.0
170 1 20.4603721868 50.2085823135 0.0
171 1 25.8813721868 50.4170823135 0.0
172 1 31.1082721868 50.9223823135 0.0
173 1 36.3283721868 50.7903823135 0.0
174 1 41.7611721868 50.6918823135 0.0
175 1 47.1646721868 51.1679823135 0.0
176 1 52.7709721868 51.2403823135 0.0
177 1 58.3334721868 50.9917823135 0.0
178 1 63.5501721868 51.3494823135 0.0
179 1 68.5163721868 50.8384823135 0.0
180 1 73.4387721868 50.6611823135 0.0
181 1 1.87507218675 55.2002823135 0.0
182 1 6.04373218675 53.6465823135 0.0
183 1 13.1616721868 55.0928823135 0.0
184 1 18.1748721868 55.1390823135 0.0
185 1 23.0978721868 54.6437823135 0.0
186 1 28.2880721868 55.2069823135 0.0
187 1 34.1312721868 55.3913823135 0.0
188 1 39.4040721868 55.0363823135 0.0
189 1 44.4135721868 55.2334823135 0.0
190 1 48.5341721868 53.8672823135 0.0
191 1 55.9308721868 55.1596823135 0.0
192 1 61.0117721868 55.5951823135 0.0
193 1 65.8868721868 55.7249823135 0.0
194 1 70.8817721868 55.4726823135 0.0
195 1 75.8317721868 55.3436823135 0.0
196 1 78.5840721868 60.0479823135 0.0
197 1 4.74884218675 59.3550823135 0.0
198 1 10.1544721868 59.0754823135 0.0
199 1 15.4653721868 59.7284823135 0.0
200 1 20.6267721868 59.5696823135 0.0
201 1 25.6013721868 59.3994823135 0.0
202 1 29.7199721868 57.8688823135 0.0
203 1 36.9465721868 59.6286823135 0.0
204 1 42.0762721868 59.7792823135 0.0
205 1 47.3524721868 59.5595823135 0.0
206 1 54.4399721868 59.2493823135 0.0
207 1 57.4182721868 59.7648823135 0.0
208 1 62.7169721868 60.3212823135 0.0
209 1 68.0538721868 60.2283823135 0.0
210 1 73.3746721868 60.1215823135 0.0
211 1 2.52240218675 64.4220823135 0.0
212 1 7.65982218675 63.5370823135 0.0
213 1 12.9820721868 63.7581823135 0.0
214 1 18.0992721868 64.1786823135 0.0
215 1 23.4118721868 64.1430823135 0.0
216 1 28.6705721868 63.5780823135 0.0
217 1 33.8770721868 63.7153823135 0.0
218 1 39.0744721868 64.2448823135 0.0
219 1 44.2220721868 64.1043823135 0.0
220 1 49.2429721868 64.4130823135 0.0
221 1 54.2604721868 64.3091823135 0.0
222 1 59.7019721868 64.4572823135 0.0
223 1 65.0382721868 64.6606823135 0.0
224 1 70.4463721868 64.5796823135 0.0
225 1 76.0036721868 64.6226823135 0.0
226 1 78.1859721868 68.9665823135 0.0
227 1 7.10283218675 67.9605823135 0.0
228 1 10.1233721868 68.0363823135 0.0
229 1 15.3321721868 68.5443823135 0.0
230 1 20.7103721868 68.5750823135 0.0
231 1 26.0577721868 68.3191823135 0.0
232 1 31.2819721868 68.1971823135 0.0
233 1 36.3912721868 68.5012823135 0.0
234 1 41.4788721868 68.7413823135 0.0
235 1 46.5348721868 68.8915823135 0.0
236 1 51.7997721868 69.0023823135 0.0
237 1 57.1982721868 68.7109823135 0.0
238 1 62.1779721868 68.9895823135 0.0
239 1 67.3786721868 68.9548823135 0.0
240 1 72.7209721868 68.7620823135 0.0
241 1 0.724211186754 71.6673823135 0.0
242 1 7.77362218675 73.4002823135 0.0
243 1 12.8620721868 72.8170823135 0.0
244 1 18.0320721868 72.9416823135 0.0
245 1 23.3333721868 72.8462823135 0.0
246 1 28.6868721868 72.7792823135 0.0
247 1 33.8855721868 72.9583823135 0.0
248 1 38.9655721868 73.2498823135 0.0
249 1 44.0657721868 73.4514823135 0.0
250 1 49.0801721868 73.3898823135 0.0
251 1 54.3646721868 73.1569823135 0.0
252 1 59.4449721868 73.5807823135 0.0
253 1 64.5399721868 73.5135823135 0.0
254 1 69.8268721868 73.2441823135 0.0
255 1 75.1840721868 73.1119823135 0.0
256 1 78.2186721868 2.36239231351 0.0
257 1 4.91881218675 2.69673231351 0.0
258 1 10.4117721868 2.79977231351 0.0
259 1 15.7180721868 2.93707231351 0.0
260 1 20.8442721868 2.89605231351 0.0
261 1 25.9251721868 2.39696231351 0.0
262 1 30.9535721868 2.67771231351 0.0
263 1 36.3725721868 3.11807231351 0.0
264 1 41.7544721868 3.12828231351 0.0
265 1 47.1739721868 3.11916231351 0.0
266 1 52.4910721868 3.21565231351 0.0
267 1 57.7224721868 3.92334231351 0.0
268 1 62.9663721868 3.87257231351 0.0
269 1 67.8925721868 3.21175231351 0.0
270 1 73.0477721868 2.26440231351 0.0
271 1 2.80428218675 7.31408231351 0.0
272 1 8.02366218675 7.05583231351 0.0
273 1 13.3598721868 7.34378231351 0.0
274 1 18.6153721868 7.51484231351 0.0
275 1 23.9244721868 7.16698231351 0.0
276 1 29.3881721868 5.25744231351 0.0
277 1 34.1305721868 7.79316231351 0.0
278 1 39.2909721868 7.60876231351 0.0
279 1 44.5364721868 7.67805231351 0.0
280 1 49.7212721868 7.70980231351 0.0
281 1 54.9038721868 7.86852231351 0.0
282 1 60.4296721868 8.36575231351 0.0
283 1 65.8590721868 8.03987231351 0.0
284 1 71.2076721868 6.93051231351 0.0
285 1 76.6930721868 4.95841231351 0.0
286 1 0.700532186754 11.6652823135 0.0
287 1 5.93610218675 11.7497823135 0.0
288 1 10.9551721868 11.6224823135 0.0
289 1 16.1593721868 12.0802823135 0.0
290 1 21.4405721868 11.9446823135 0.0
291 1 26.7142721868 11.3578823135 0.0
292 1 31.9661721868 12.0326823135 0.0
293 1 37.2411721868 12.3068823135 0.0
294 1 42.1379721868 12.3946823135 0.0
295 1 47.1219721868 12.3976823135 0.0
296 1 52.1424721868 12.3957823135 0.0
297 1 57.3200721868 12.4032823135 0.0
298 1 64.8529721868 13.6741823135 0.0
299 1 69.2051721868 11.8046823135 0.0
300 1 74.3384721868 11.0290823135 0.0
301 1 3.18420218675 16.3820823135 0.0
302 1 8.20367218675 16.3516823135 0.0
303 1 13.1146721868 16.2993823135 0.0
304 1 20.1999721868 17.6838823135 0.0
305 1 24.3442721868 16.0924823135 0.0
306 1 29.2230721868 16.1475823135 0.0
307 1 34.5905721868 16.5290823135 0.0
308 1 39.7015721868 17.1688823135 0.0
309 1 44.6460721868 17.1305823135 0.0
310 1 49.6836721868 17.0236823135 0.0
311 1 54.8148721868 16.9461823135 0.0
312 1 60.2347721868 16.3925823135 0.0
313 1 66.5312721868 16.1803823135 0.0
314 1 72.0080721868 15.9098823135 0.0
315 1 76.7809721868 15.7619823135 0.0
316 1 0.00521918675433 20.5206823135 0.0
317 1 5.37064218675 20.8517823135 0.0
318 1 10.5224721868 20.9084823135 0.0
319 1 15.8159721868 20.4821823135 0.0
320 1 21.4810721868 20.4273823135 0.0
321 1 26.7046721868 20.6877823135 0.0
322 1 31.7257721868 20.8712823135 0.0
323 1 36.6807721868 21.4671823135 0.0
324 1 42.0087721868 21.7516823135 0.0
325 1 47.2516721868 21.5735823135 0.0
326 1 52.5590721868 21.3863823135 0.0
327 1 58.0319721868 21.0127823135 0.0
328 1 63.3680721868 20.6119823135 0.0
329 1 68.5713721868 20.8306823135 0.0
330 1 71.5946721868 20.9596823135 0.0
331 1 2.61030218675 25.1285823135 0.0
332 1 7.99241218675 25.2699823135 0.0
333 1 13.4721721868 25.0277823135 0.0
334 1 18.6503721868 25.1257823135 0.0
335 1 23.7706721868 25.0342823135 0.0
336 1 29.1581721868 25.0383823135 0.0
337 1 34.9907721868 23.9775823135 0.0
338 1 39.6677721868 26.5328823135 0.0
339 1 44.8500721868 26.1225823135 0.0
340 1 50.1520721868 25.9552823135 0.0
341 1 55.4818721868 25.6658823135 0.0
342 1 60.7272721868 25.3837823135 0.0
343 1 65.6259721868 25.4228823135 0.0
344 1 70.8927721868 25.0248823135 0.0
345 1 76.1039721868 24.7315823135 0.0
346 1 0.185077186754 29.6206823135 0.0
347 1 5.31701218675 29.7803823135 0.0
348 1 10.5709721868 29.7001823135 0.0
349 1 15.7200721868 29.4320823135 0.0
350 1 23.0698721868 30.5087823135 0.0
351 1 27.6826721868 27.6646823135 0.0
352 1 32.4590721868 30.4178823135 0.0
353 1 37.5739721868 30.9869823135 0.0
354 1 42.8502721868 30.8916823135 0.0
355 1 47.8700721868 30.6742823135 0.0
356 1 53.0449721868 30.3406823135 0.0
357 1 58.2939721868 29.9970823135 0.0
358 1 63.5060721868 29.8545823135 0.0
359 1 68.9021721868 29.6422823135 0.0
360 1 74.1027721868 29.2315823135 0.0
361 1 2.68775218675 34.2495823135 0.0
362 1 7.92183218675 34.3388823135 0.0
363 1 13.0946721868 34.1819823135 0.0
364 1 18.4276721868 33.3116823135 0.0
365 1 24.6004721868 33.1174823135 0.0
366 1 29.7152721868 34.4676823135 0.0
367 1 34.8191721868 35.3680823135 0.0
368 1 40.1659721868 35.3256823135 0.0
369 1 45.5025721868 35.2968823135 0.0
370 1 50.6937721868 35.1525823135 0.0
371 1 55.8987721868 34.5636823135 0.0
372 1 61.1467721868 34.4271823135 0.0
373 1 66.3750721868 34.2953823135 0.0
374 1 69.3707721868 34.6066823135 0.0
375 1 76.2364721868 33.9958823135 0.0
376 1 0.0765631867543 38.6412823135 0.0
377 1 5.35973218675 38.8201823135 0.0
378 1 10.6722721868 38.7885823135 0.0
379 1 16.0648721868 38.3013823135 0.0
380 1 21.1885721868 37.5139823135 0.0
381 1 25.9871721868 38.1820823135 0.0
382 1 31.2381721868 39.1384823135 0.0
383 1 38.2871721868 40.8729823135 0.0
384 1 42.5901721868 39.4963823135 0.0
385 1 49.5899721868 40.8449823135 0.0
386 1 53.7627721868 39.2587823135 0.0
387 1 58.7603721868 39.1805823135 0.0
388 1 63.7487721868 39.0500823135 0.0
389 1 68.7345721868 38.7791823135 0.0
390 1 73.7480721868 38.5603823135 0.0
391 1 2.74748218675 43.2383823135 0.0
392 1 8.06264218675 43.3406823135 0.0
393 1 13.4532721868 43.0495823135 0.0
394 1 18.7947721868 42.4423823135 0.0
395 1 23.4746721868 42.4130823135 0.0
396 1 28.2788721868 43.3713823135 0.0
397 1 33.6413721868 43.5270823135 0.0
398 1 39.6030721868 43.5679823135 0.0
399 1 45.1412721868 43.6558823135 0.0
400 1 50.8097721868 43.6010823135 0.0
401 1 56.0680721868 43.7816823135 0.0
402 1 61.0621721868 43.9376823135 0.0
403 1 64.0512721868 44.1356823135 0.0
404 1 71.1075721868 43.1627823135 0.0
405 1 76.2993721868 43.0837823135 0.0
406 1 78.7958721868 47.5630823135 0.0
407 1 5.25565218675 47.9236823135 0.0
408 1 10.5868721868 47.6718823135 0.0
409 1 15.7999721868 47.5673823135 0.0
410 1 18.8144721868 47.6763823135 0.0
411 1 25.6042721868 47.4019823135 0.0
412 1 31.0725721868 47.8989823135 0.0
413 1 36.5246721868 47.7808823135 0.0
414 1 42.0949721868 47.7021823135 0.0
415 1 47.5702721868 48.1649823135 0.0
416 1 52.6542721868 48.2237823135 0.0
417 1 57.9133721868 48.0387823135 0.0
418 1 63.2796721868 48.3787823135 0.0
419 1 68.4608721868 47.8292823135 0.0
420 1 73.5821721868 47.6519823135 0.0
421 1 2.03905218675 52.1974823135 0.0
422 1 9.02153218675 53.3562823135 0.0
423 1 13.0911721868 52.1000823135 0.0
424 1 18.1782721868 52.1468823135 0.0
425 1 23.1214721868 51.6312823135 0.0
426 1 28.3586721868 52.1789823135 0.0
427 1 33.7573721868 52.3888823135 0.0
428 1 39.0714721868 52.0483823135 0.0
429 1 44.3484721868 52.2262823135 0.0
430 1 51.5311721868 53.9931823135 0.0
431 1 55.6060721868 52.1945823135 0.0
432 1 60.8462721868 52.6131823135 0.0
433 1 66.1950721868 52.7405823135 0.0
434 1 71.0362721868 52.4647823135 0.0
435 1 75.9327721868 52.3304823135 0.0
436 1 78.3092721868 57.0452823135 0.0
437 1 4.65167218675 56.3297823135 0.0
438 1 10.3366721868 56.0683823135 0.0
439 1 15.6529721868 56.7433823135 0.0
440 1 20.7987721868 56.5721823135 0.0
441 1 25.5344721868 56.3940823135 0.0
442 1 32.7099721868 58.0506823135 0.0
443 1 36.8664721868 56.6260823135 0.0
444 1 41.8484721868 56.7823823135 0.0
445 1 47.1191721868 56.5368823135 0.0
446 1 53.2492721868 56.4776823135 0.0
447 1 58.3412721868 56.9220823135 0.0
448 1 63.3958721868 57.3953823135 0.0
449 1 68.4586721868 57.2498823135 0.0
450 1 73.3987721868 57.1074823135 0.0
451 1 2.49225218675 61.3837823135 0.0
452 1 7.52033218675 60.5319823135 0.0
453 1 12.6521721868 60.7697823135 0.0
454 1 18.0910721868 61.1772823135 0.0
455 1 23.1720721868 61.1516823135 0.0
456 1 28.3655721868 60.5668823135 0.0
457 1 34.1450721868 60.7057823135 0.0
458 1 39.4627721868 61.2660823135 0.0
459 1 44.7658721868 61.1342823135 0.0
460 1 49.7172721868 61.4468823135 0.0
461 1 52.7258721868 61.7066823135 0.0
462 1 59.9162721868 61.4560823135 0.0
463 1 65.4042721868 61.6757823135 0.0
464 1 70.7365721868 61.5857823135 0.0
465 1 76.0014721868 61.6052823135 0.0
466 1 78.7131721868 65.9847823135 0.0
467 1 5.36401218675 65.4845823135 0.0
468 1 10.2714721868 65.0373823135 0.0
469 1 15.4148721868 65.5338823135 0.0
470 1 20.7635721868 65.5713823135 0.0
471 1 26.1896721868 65.3055823135 0.0
472 1 31.2364721868 65.1729823135 0.0
473 1 36.3287721868 65.4829823135 0.0
474 1 41.6856721868 65.7351823135 0.0
475 1 46.6335721868 65.8904823135 0.0
476 1 51.7876721868 66.0069823135 0.0
477 1 56.9516721868 65.6988823135 0.0
478 1 62.3138721868 65.9744823135 0.0
479 1 67.7548721868 65.9666823135 0.0
480 1 73.2083721868 65.7943823135 0.0
481 1 3.64700218675 72.3241823135 0.0
482 1 6.23849218675 70.8279823135 0.0
483 1 12.5863721868 69.8064823135 0.0
484 1 18.0154721868 69.9311823135 0.0
485 1 23.4464721868 69.8371823135 0.0
486 1 28.7036721868 69.7625823135 0.0
487 1 33.7483721868 69.9415823135 0.0
488 1 38.8628721868 70.2320823135 0.0
489 1 43.9605721868 70.4413823135 0.0
490 1 49.1365721868 70.3906823135 0.0
491 1 54.5665721868 70.1660823135 0.0
492 1 59.5947721868 70.5538823135 0.0
493 1 64.7833721868 70.5038823135 0.0
494 1 70.0942721868 70.2474823135 0.0
495 1 75.4020721868 70.1145823135 0.0
496 1 77.9644721868 74.2446823135 0.0
497 1 5.17730218675 74.8975823135 0.0
498 1 10.4915721868 74.6722823135 0.0
499 1 15.4127721868 74.4309823135 0.0
500 1 20.7059721868 74.3299823135 0.0
501 1 26.0247721868 74.1968823135 0.0
502 1 31.2383721868 74.3916823135 0.0
503 1 36.3377721868 74.7226823135 0.0
504 1 41.4580721868 74.9499823135 0.0
505 1 46.5994721868 75.0807823135 0.0
506 1 51.7817721868 74.6905823135 0.0
507 1 56.7577721868 74.9655823135 0.0
508 1 62.0120721868 75.1733823135 0.0
509 1 67.2544721868 74.8197823135 0.0
510 1 72.5394721868 74.5374823135 0.0
511 1 4.93676218675 77.8866823135 0.0
512 1 10.3301721868 77.6833823135 0.0
513 1 15.5288721868 77.4489823135 0.0
514 1 20.6542721868 77.3411823135 0.0
515 1 25.9298721868 77.2042823135 0.0
516 1 31.3851721868 77.4035823135 0.0
517 1 36.4496721868 77.7436823135 0.0
518 1 41.6550721868 77.9619823135 0.0
519 1 46.9975721868 78.0696823135 0.0
520 1 52.2297721868 77.6585823135 0.0
521 1 56.7818721868 80.1581823135 0.0
522 1 62.1134721868 78.1967823135 0.0
523 1 67.3243721868 77.8299823135 0.0
524 1 72.7752721868 77.5283823135 0.0
525 1 78.4011721868 77.2294823135 0.0
526 1 2.10731218675 78.9298823135 0.0
527 1 7.68260218675 79.1418823135 0.0
528 1 12.9989721868 79.0882823135 0.0
529 1 18.1273721868 78.9841823135 0.0
530 1 23.3263721868 78.7250823135 0.0
531 1 28.6112721868 78.5705823135 0.0
532 1 33.8103721868 79.2091823135 0.0
533 1 38.9912721868 79.3826823135 0.0
534 1 44.3011721868 79.4302823135 0.0
535 1 49.7348721868 79.3689823135 0.0
536 1 55.2485721868 77.5793823135 0.0
537 1 59.7985721868 80.1393823135 0.0
538 1 64.8268721868 79.5296823135 0.0
539 1 70.1188721868 78.9570823135 0.0
540 1 75.6436721868 78.4570823135 0.0
541 2 2.15560218675 80.4390823135 0.0
542 2 3.57237218675 1.99856231351 0.0
543 2 0.849892186754 1.88890231351 0.0
544 2 7.69963218675 80.6474823135 0.0
545 2 9.04084218675 2.16056231351 0.0
546 2 6.29866218675 2.07732231351 0.0
547 2 13.0680721868 80.5927823135 0.0
548 2 14.4002721868 2.19754231351 0.0
549 2 11.7471721868 2.09616231351 0.0
550 2 18.2017721868 80.4917823135 0.0
551 2 19.5468721868 2.12537231351 0.0
552 2 16.9863721868 2.12216231351 0.0
553 2 23.2667721868 80.2302823135 0.0
554 2 24.5823721868 1.73013231351 0.0
555 2 22.0397721868 1.97415231351 0.0
556 2 28.5698721868 80.0721823135 0.0
557 2 29.7901721868 1.71565231351 0.0
558 2 27.2120721868 1.61833231351 0.0
559 2 33.7891721868 0.0496183135073 0.0
560 2 35.0584721868 2.36007231351 0.0
561 2 32.3822721868 2.18587231351 0.0
562 2 39.0167721868 0.220742313507 0.0
563 2 40.4068721868 2.43390231351 0.0
564 2 37.7168721868 2.42353231351 0.0
565 2 44.3739721868 0.264652313507 0.0
566 2 45.8195721868 2.43875231351 0.0
567 2 43.1073721868 2.45063231351 0.0
568 2 49.8176721868 0.205382313507 0.0
569 2 51.1866721868 2.44880231351 0.0
570 2 48.5168721868 2.41825231351 0.0
571 2 56.4716721868 3.09021231351 0.0
572 2 55.9746721868 0.761872313507 0.0
573 2 53.8818721868 2.60779231351 0.0
574 2 60.1482721868 0.935832313507 0.0
575 2 61.6391721868 3.16030231351 0.0
576 2 59.0403721868 3.20019231351 0.0
577 2 65.0050721868 0.360482313507 0.0
578 2 66.5535721868 2.52630231351 0.0
579 2 64.0928721868 2.87427231351 0.0
580 2 70.1362721868 80.4613823135 0.0
581 2 71.6306721868 1.77753231351 0.0
582 2 69.0591721868 2.25551231351 0.0
583 2 75.6626721868 79.9587823135 0.0
584 2 76.9850721868 1.49078231351 0.0
585 2 74.3351721868 1.48831231351 0.0
586 2 77.6515721868 6.11036231351 0.0
587 2 1.30052218675 7.18808231351 0.0
588 2 77.7960721868 8.53852231351 0.0
589 2 5.10174218675 4.19545231351 0.0
590 2 6.68297218675 6.35980231351 0.0
591 2 4.03763218675 6.45962231351 0.0
592 2 10.6005721868 4.29501231351 0.0
593 2 12.0555721868 6.57384231351 0.0
594 2 9.38869218675 6.42087231351 0.0
595 2 15.8859721868 4.43628231351 0.0
596 2 17.3184721868 6.73076231351 0.0
597 2 14.6916721868 6.63827231351 0.0
598 2 21.0063721868 4.39584231351 0.0
599 2 22.5522721868 6.52442231351 0.0
600 2 19.9047721868 6.72346231351 0.0
601 2 26.0710721868 3.89045231351 0.0
602 2 27.8828721868 5.40837231351 0.0
603 2 25.1864721868 6.31926231351 0.0
604 2 30.2591721868 6.47996231351 0.0
605 2 32.6234721868 7.66392231351 0.0
606 2 30.2580721868 8.95258231351 0.0
607 2 36.4938721868 4.62594231351 0.0
608 2 37.9686721868 6.87031231351 0.0
609 2 35.3512721868 6.91145231351 0.0
610 2 41.8432721868 4.63709231351 0.0
611 2 43.2315721868 6.91340231351 0.0
612 2 40.6063721868 6.86749231351 0.0
613 2 47.1619721868 4.63218231351 0.0
614 2 48.4318721868 6.92422231351 0.0
615 2 45.8353721868 6.90573231351 0.0
616 2 52.4205721868 4.72693231351 0.0
617 2 53.6456721868 7.03615231351 0.0
618 2 51.0409721868 6.97272231351 0.0
619 2 57.7591721868 5.42238231351 0.0
620 2 59.0939721868 7.65330231351 0.0
621 2 56.3419721868 7.41468231351 0.0
622 2 63.0262721868 5.37676231351 0.0
623 2 64.4526721868 7.48689231351 0.0
624 2 61.7583721868 7.64674231351 0.0
625 2 68.0609721868 4.70745231351 0.0
626 2 69.7423721868 6.56158231351 0.0
627 2 67.0743721868 7.13319231351 0.0
628 2 73.3026721868 3.74059231351 0.0
629 2 75.1976721868 5.17553231351 0.0
630 2 72.4741721868 6.10157231351 0.0
631 2 3.13938218675 8.77889231351 0.0
632 2 4.63963218675 10.9958823135 0.0
633 2 2.03412218675 10.9888823135 0.0
634 2 8.19320218675 8.55497231351 0.0
635 2 9.69850218675 10.7967823135 0.0
636 2 7.17732218675 10.9153823135 0.0
637 2 13.5272721868 8.84448231351 0.0
638 2 14.9188721868 11.2091823135 0.0
639 2 12.3212721868 11.0050823135 0.0
640 2 18.6806721868 9.02668231351 0.0
641 2 20.0971721868 11.2456823135 0.0
642 2 17.4724721868 11.3338823135 0.0
643 2 23.9228721868 8.67923231351 0.0
644 2 25.3307721868 10.7607823135 0.0
645 2 22.6887721868 11.0753823135 0.0
646 2 30.7038721868 11.2279823135 0.0
647 2 28.0978721868 10.7372823135 0.0
648 2 34.4804721868 9.25798231351 0.0
649 2 35.9509721868 11.5325823135 0.0
650 2 33.3316721868 11.4138823135 0.0
651 2 39.4999721868 9.10839231351 0.0
652 2 40.9305721868 11.4888823135 0.0
653 2 38.4725721868 11.4552823135 0.0
654 2 44.5824721868 9.19128231351 0.0
655 2 45.8785721868 11.5463823135 0.0
656 2 43.3895721868 11.5556823135 0.0
657 2 49.6745721868 9.22178231351 0.0
658 2 50.8897721868 11.5633823135 0.0
659 2 48.3783721868 11.5643823135 0.0
660 2 54.7896721868 9.37108231351 0.0
661 2 56.0342721868 11.6291823135 0.0
662 2 53.4407721868 11.6334823135 0.0
663 2 60.3542721868 9.87518231351 0.0
664 2 61.0612721868 12.5603823135 0.0
665 2 58.7046721868 11.8231823135 0.0
666 2 66.0202721868 9.54348231351 0.0
667 2 67.7736721868 11.3490823135 0.0
668 2 65.5070721868 12.3109823135 0.0
669 2 71.3902721868 8.42555231351 0.0
670 2 72.9614721868 10.4394823135 0.0
671 2 70.3797721868 10.8621823135 0.0
672 2 78.2559721868 10.8421823135 0.0
673 2 75.6928721868 10.3728823135 0.0
674 2 0.740092186754 13.1569823135 0.0
675 2 1.95967218675 15.5177823135 0.0
676 2 78.1703721868 15.2173823135 0.0
677 2 5.81549218675 13.2441823135 0.0
678 2 6.93995218675 15.5506823135 0.0
679 2 4.44013218675 15.5670823135 0.0
680 2 10.7807721868 13.1177823135 0.0
681 2 11.8848721868 15.4497823135 0.0
682 2 9.41865218675 15.4748823135 0.0
683 2 16.0718721868 13.5956823135 0.0
684 2 16.6055721868 16.4089823135 0.0
685 2 14.4493721868 15.6241823135 0.0
686 2 21.4415721868 13.4648823135 0.0
687 2 22.9852721868 15.4654823135 0.0
688 2 20.8015721868 16.2913823135 0.0
689 2 26.7623721868 12.8684823135 0.0
690 2 28.0312721868 15.2383823135 0.0
691 2 25.5646721868 15.2221823135 0.0
692 2 31.9826721868 13.5276823135 0.0
693 2 33.2951721868 15.7722823135 0.0
694 2 30.6175721868 15.5985823135 0.0
695 2 37.3162721868 13.8072823135 0.0
696 2 38.5046721868 16.2471823135 0.0
697 2 35.9546721868 15.9151823135 0.0
698 2 42.1427721868 13.9083823135 0.0
699 2 43.4090721868 16.2693823135 0.0
700 2 40.9400721868 16.3068823135 0.0
701 2 47.1223721868 13.9093823135 0.0
702 2 48.4093721868 16.2215823135 0.0
703 2 45.8939721868 16.2823823135 0.0
704 2 52.1753721868 13.9022823135 0.0
705 2 53.5182721868 16.1822823135 0.0
706 2 50.9543721868 16.2149823135 0.0
707 2 57.3113721868 13.9053823135 0.0
708 2 58.7901721868 15.9580823135 0.0
709 2 56.1099721868 16.1800823135 0.0
710 2 63.3515721868 13.7646823135 0.0
711 2 61.1218721868 15.1692823135 0.0
712 2 69.2521721868 13.3094823135 0.0
713 2 70.5855721868 15.4382823135 0.0
714 2 67.9195721868 15.5762823135 0.0
715 2 74.3432721868 12.5320823135 0.0
716 2 75.5871721868 14.8593823135 0.0
717 2 73.1177721868 14.8964823135 0.0
718 2 2.98833218675 17.8639823135 0.0
719 2 4.05869218675 20.1239823135 0.0
720 2 1.38619218675 19.9219823135 0.0
721 2 8.09325218675 17.8466823135 0.0
722 2 9.23593218675 20.1405823135 0.0
723 2 6.66090218675 20.0823823135 0.0
724 2 13.0490721868 17.8000823135 0.0
725 2 14.3976721868 19.9662823135 0.0
726 2 11.7889721868 20.1050823135 0.0
727 2 18.7018721868 17.7367823135 0.0
728 2 16.5881721868 19.1778823135 0.0
729 2 24.2903721868 17.5956823135 0.0
730 2 25.4417721868 19.8871823135 0.0
731 2 22.8732721868 19.8379823135 0.0
732 2 29.2238721868 17.6497823135 0.0
733 2 30.5047721868 20.0013823135 0.0
734 2 27.9915721868 19.9243823135 0.0
735 2 34.5024721868 18.0248823135 0.0
736 2 35.5847721868 20.4320823135 0.0
737 2 33.0519721868 20.1702823135 0.0
738 2 39.5639721868 18.6736823135 0.0
739 2 40.7031721868 20.9884823135 0.0
740 2 38.0780721868 20.8850823135 0.0
741 2 44.6044721868 18.6415823135 0.0
742 2 45.9134721868 20.8713823135 0.0
743 2 43.2937721868 20.9510823135 0.0
744 2 49.7632721868 18.5285823135 0.0
745 2 51.2082721868 20.7067823135 0.0
746 2 48.5524721868 20.8041823135 0.0
747 2 54.9955721868 18.4370823135 0.0
748 2 56.6197721868 20.4608823135 0.0
749 2 53.8905721868 20.6738823135 0.0
750 2 60.4697721868 17.8810823135 0.0
751 2 61.9908721868 19.9757823135 0.0
752 2 59.3151721868 20.2060823135 0.0
753 2 66.2411721868 17.6619823135 0.0
754 2 67.3408721868 19.9538823135 0.0
755 2 64.6928721868 19.8659823135 0.0
756 2 72.4696721868 19.7441823135 0.0
757 2 72.6545721868 17.2634823135 0.0
758 2 74.8834721868 18.7631823135 0.0
759 2 76.6455721868 17.2496823135 0.0
760 2 77.5600721868 19.6724823135 0.0
761 2 0.0259781867543 22.0202823135 0.0
762 2 1.32901218675 24.3317823135 0.0
763 2 77.4688721868 24.0954823135 0.0
764 2 5.36288218675 22.3498823135 0.0
765 2 6.66378218675 24.5598823135 0.0
766 2 3.97235218675 24.4846823135 0.0
767 2 10.5876721868 22.4026823135 0.0
768 2 12.0776721868 24.4462823135 0.0
769 2 9.34307218675 24.6036823135 0.0
770 2 16.0250721868 21.9818823135 0.0
771 2 17.3693721868 24.3091823135 0.0
772 2 14.7761721868 24.2657823135 0.0
773 2 21.2618721868 21.9308823135 0.0
774 2 22.4693721868 24.2628823135 0.0
775 2 19.9154721868 24.2869823135 0.0
776 2 26.5750721868 22.1751823135 0.0
777 2 27.8442721868 24.2845823135 0.0
778 2 25.1104721868 24.3257823135 0.0
779 2 31.7747721868 22.3674823135 0.0
780 2 33.4712721868 24.0300823135 0.0
781 2 30.5956721868 24.5473823135 0.0
782 2 35.8020721868 25.2461823135 0.0
783 2 38.1561721868 26.4205823135 0.0
784 2 35.8519721868 27.7805823135 0.0
785 2 42.0557721868 23.2641823135 0.0
786 2 43.4907721868 25.4533823135 0.0
787 2 40.8622721868 25.6048823135 0.0