# input file

1350 atoms
2 atom types

0.0 77.5133981587 xlo xhi
0.0 81.6470892727 ylo yhi
-10.0 10.0 zlo zhi
0.0 0.0 0.0 xy xz yz

Masses

1 28.0855 #Si
2 15.9994 #O

Atoms

1 1 1.8025068562 1.34400463638 0.0
2 1 6.8605368562 2.34738463638 0.0
3 1 12.3632368562 1.93419463638 0.0
4 1 17.9792368562 1.16208463638 0.0
5 1 24.6498368562 0.770304636375 0.0
6 1 27.5936368562 1.38619463638 0.0
7 1 32.4781368562 1.86226463638 0.0
8 1 37.8968368562 1.82547463638 0.0
9 1 43.1940368562 1.38008463638 0.0
10 1 48.8322368562 1.17206463638 0.0
11 1 54.1723368562 1.41991463638 0.0
12 1 58.4207368562 3.89338463638 0.0
13 1 63.6413368562 1.54460463638 0.0
14 1 68.7634368562 1.22195463638 0.0
15 1 73.9778368562 1.11305463638 0.0
16 1 76.4347368562 5.59577463638 0.0
17 1 3.8899868562 6.35956463638 0.0
18 1 8.1570468562 5.06814463638 0.0
19 1 15.2531368562 5.63666463638 0.0
20 1 20.1593368562 6.07589463638 0.0
21 1 25.1499368562 5.91659463638 0.0
22 1 30.4226368562 6.32718463638 0.0
23 1 35.4543368562 6.14997463638 0.0
24 1 40.9027368562 5.98778463638 0.0
25 1 46.2854368562 5.39349463638 0.0
26 1 51.6447368562 5.73946463638 0.0
27 1 56.7670368562 6.42108463638 0.0
28 1 61.6555368562 6.60832463638 0.0
29 1 66.5694368562 5.98547463638 0.0
30 1 71.3683368562 5.68254463638 0.0
31 1 1.6223368562 12.7304446364 0.0
32 1 7.0563968562 10.6377446364 0.0
33 1 12.4333368562 10.2744446364 0.0
34 1 17.5408368562 10.5558446364 0.0
35 1 23.1071368562 10.6299446364 0.0
36 1 28.4945368562 10.5107446364 0.0
37 1 33.6793368562 10.8589446364 0.0
38 1 38.6391368562 10.3137446364 0.0
39 1 43.7059368562 10.0000446364 0.0
40 1 48.6927368562 9.94094463638 0.0
41 1 53.6441368562 10.6626446364 0.0
42 1 58.8668368562 11.2504446364 0.0
43 1 64.2521368562 10.9849446364 0.0
44 1 69.4779368562 10.6301446364 0.0
45 1 74.3887368562 10.2061446364 0.0
46 1 0.174196856198 15.3746446364 0.0
47 1 4.9866168562 15.4178446364 0.0
48 1 10.2860368562 14.8219446364 0.0
49 1 15.3549368562 15.0075446364 0.0
50 1 20.5826368562 14.7069446364 0.0
51 1 26.0707368562 14.8972446364 0.0
52 1 31.4203368562 15.2382446364 0.0
53 1 38.1824368562 14.7065446364 0.0
54 1 41.2148368562 14.7630446364 0.0
55 1 46.2479368562 14.6512446364 0.0
56 1 50.7590368562 17.1249446364 0.0
57 1 56.2644368562 15.4472446364 0.0
58 1 61.7092368562 15.4657446364 0.0
59 1 67.1108368562 15.2935446364 0.0
60 1 72.4485368562 15.1408446364 0.0
61 1 2.3462468562 20.1909446364 0.0
62 1 7.4379468562 19.4741446364 0.0
63 1 12.8791368562 19.5637446364 0.0
64 1 19.7398368562 18.8406446364 0.0
65 1 22.7460368562 18.9617446364 0.0
66 1 27.9487368562 19.3701446364 0.0
67 1 33.3612368562 20.0216446364 0.0
68 1 38.5129368562 19.9582446364 0.0
69 1 43.7647368562 19.4728446364 0.0
70 1 49.2306368562 19.7265446364 0.0
71 1 54.2538368562 20.1099446364 0.0
72 1 59.3997368562 19.7486446364 0.0
73 1 64.6132368562 19.7191446364 0.0
74 1 69.8150368562 19.6289446364 0.0
75 1 75.0535368562 19.7861446364 0.0
76 1 77.4058368562 24.8221446364 0.0
77 1 5.7398868562 24.3175446364 0.0
78 1 10.2642368562 25.8427446364 0.0
79 1 15.4540368562 24.2712446364 0.0
80 1 20.0354368562 23.9914446364 0.0
81 1 25.0989368562 23.6724446364 0.0
82 1 30.2230368562 23.9360446364 0.0
83 1 35.6794368562 24.5337446364 0.0
84 1 41.6801368562 24.2740446364 0.0
85 1 46.8193368562 23.9215446364 0.0
86 1 51.7143368562 24.5527446364 0.0
87 1 56.9030368562 24.4657446364 0.0
88 1 62.1551368562 24.2394446364 0.0
89 1 67.2527368562 24.1972446364 0.0
90 1 72.2261368562 24.1969446364 0.0
91 1 1.4527768562 27.4161446364 0.0
92 1 8.7654168562 28.4167446364 0.0
93 1 13.6143368562 29.1762446364 0.0
94 1 18.2454368562 29.0213446364 0.0
95 1 23.0291368562 28.4289446364 0.0
96 1 27.8232368562 28.3498446364 0.0
97 1 32.8847368562 28.4219446364 0.0
98 1 37.4480368562 26.9564446364 0.0
99 1 44.4541368562 28.6731446364 0.0
100 1 49.3144368562 28.9707446364 0.0
101 1 54.2406368562 29.0301446364 0.0
102 1 59.6640368562 28.8044446364 0.0
103 1 64.8587368562 28.8146446364 0.0
104 1 69.8431368562 28.8951446364 0.0
105 1 74.8465368562 28.9814446364 0.0
106 1 0.281576856198 33.1696446364 0.0
107 1 7.0385368562 32.4676446364 0.0
108 1 9.9450368562 33.2765446364 0.0
109 1 15.3954368562 33.9069446364 0.0
110 1 20.7643368562 33.4869446364 0.0
111 1 25.7174368562 33.1902446364 0.0
112 1 30.6590368562 32.9639446364 0.0
113 1 36.0298368562 32.3788446364 0.0
114 1 41.3570368562 32.8574446364 0.0
115 1 46.6401368562 33.6092446364 0.0
116 1 51.9447368562 33.7624446364 0.0
117 1 57.1351368562 33.1936446364 0.0
118 1 62.4483368562 33.3170446364 0.0
119 1 67.4414368562 33.5469446364 0.0
120 1 72.5959368562 33.5965446364 0.0
121 1 2.4616768562 38.1125446364 0.0
122 1 7.1925568562 37.6725446364 0.0
123 1 12.5950368562 37.8171446364 0.0
124 1 18.2503368562 38.0181446364 0.0
125 1 23.4388368562 38.0301446364 0.0
126 1 28.6196368562 37.7666446364 0.0
127 1 33.8977368562 36.9567446364 0.0
128 1 38.3830368562 39.1548446364 0.0
129 1 43.9918368562 37.7044446364 0.0
130 1 49.3160368562 38.1750446364 0.0
131 1 56.3775368562 37.5065446364 0.0
132 1 59.3985368562 37.6316446364 0.0
133 1 64.6758368562 38.1148446364 0.0
134 1 69.9516368562 38.1418446364 0.0
135 1 75.0335368562 37.9251446364 0.0
136 1 0.306456856198 42.7149446364 0.0
137 1 5.5677568562 42.6784446364 0.0
138 1 10.2404368562 42.0556446364 0.0
139 1 15.5697368562 41.9176446364 0.0
140 1 20.8758368562 42.5603446364 0.0
141 1 25.9345368562 42.4450446364 0.0
142 1 31.1141368562 41.7789446364 0.0
143 1 36.5409368562 41.5487446364 0.0
144 1 41.8246368562 42.2436446364 0.0
145 1 46.6719368562 42.4091446364 0.0
146 1 51.5068368562 42.9485446364 0.0
147 1 56.4820368562 42.5598446364 0.0
148 1 62.0753368562 42.3451446364 0.0
149 1 67.5301368562 42.6059446364 0.0
150 1 72.6470368562 42.6741446364 0.0
151 1 3.5784168562 47.1013446364 0.0
152 1 8.9231368562 47.1437446364 0.0
153 1 13.7155368562 46.2544446364 0.0
154 1 18.0788368562 48.9478446364 0.0
155 1 23.3529368562 47.1679446364 0.0
156 1 28.3926368562 46.6352446364 0.0
157 1 33.2896368562 45.9506446364 0.0
158 1 38.6361368562 46.2107446364 0.0
159 1 44.0469368562 47.1208446364 0.0
160 1 49.1215368562 47.4591446364 0.0
161 1 54.2092368562 47.4250446364 0.0
162 1 59.5555368562 46.6122446364 0.0
163 1 65.1963368562 46.7691446364 0.0
164 1 70.4785368562 47.2549446364 0.0
165 1 75.4783368562 47.2488446364 0.0
166 1 1.3404268562 51.2257446364 0.0
167 1 6.6303068562 51.5248446364 0.0
168 1 13.2600368562 51.0244446364 0.0
169 1 16.2699368562 51.3554446364 0.0
170 1 21.0584368562 52.1629446364 0.0
171 1 26.0325368562 51.5648446364 0.0
172 1 31.1313368562 51.0241446364 0.0
173 1 36.1829368562 50.4070446364 0.0
174 1 40.9782368562 52.5094446364 0.0
175 1 46.7935368562 51.9258446364 0.0
176 1 52.0523368562 52.0747446364 0.0
177 1 57.0196368562 51.3509446364 0.0
178 1 62.4780368562 50.7607446364 0.0
179 1 67.9299368562 51.4911446364 0.0
180 1 73.6362368562 51.9403446364 0.0
181 1 3.3092368562 55.7251446364 0.0
182 1 8.0532368562 56.5365446364 0.0
183 1 12.9347368562 56.4652446364 0.0
184 1 18.2505368562 56.5487446364 0.0
185 1 23.5425368562 56.5545446364 0.0
186 1 28.7556368562 55.9023446364 0.0
187 1 34.1689368562 55.3011446364 0.0
188 1 39.6622368562 55.2052446364 0.0
189 1 44.3803368562 58.0039446364 0.0
190 1 50.0347368562 56.4727446364 0.0
191 1 55.9888368562 56.1786446364 0.0
192 1 60.5329368562 55.1801446364 0.0
193 1 65.5348368562 55.2680446364 0.0
194 1 69.3425368562 54.1850446364 0.0
195 1 0.310766856198 55.6806446364 0.0
196 1 77.2854368562 60.9891446364 0.0
197 1 4.9759568562 60.8862446364 0.0
198 1 10.2765368562 61.2563446364 0.0
199 1 15.3275368562 60.9617446364 0.0
200 1 20.5283368562 61.0373446364 0.0
201 1 26.7192368562 60.7219446364 0.0
202 1 31.8667368562 59.8980446364 0.0
203 1 36.7300368562 59.5021446364 0.0
204 1 42.2294368562 60.0897446364 0.0
205 1 47.2196368562 60.8302446364 0.0
206 1 52.3336368562 61.6536446364 0.0
207 1 55.1516368562 59.0611446364 0.0
208 1 63.0899368562 59.8165446364 0.0
209 1 67.7245368562 59.9401446364 0.0
210 1 72.4937368562 60.4546446364 0.0
211 1 2.2466068562 65.4686446364 0.0
212 1 7.1987168562 65.4792446364 0.0
213 1 12.4814368562 65.7428446364 0.0
214 1 18.2403368562 65.5178446364 0.0
215 1 22.3759368562 63.4169446364 0.0
216 1 29.4970368562 64.7872446364 0.0
217 1 34.2186368562 64.4614446364 0.0
218 1 39.0298368562 63.9171446364 0.0
219 1 44.1001368562 64.9740446364 0.0
220 1 49.3144368562 65.6368446364 0.0
221 1 54.5846368562 63.6548446364 0.0
222 1 59.4594368562 63.1181446364 0.0
223 1 64.2473368562 64.6255446364 0.0
224 1 69.4370368562 64.9908446364 0.0
225 1 74.6147368562 65.5179446364 0.0
226 1 77.1933368562 70.0875446364 0.0
227 1 4.8643768562 70.2089446364 0.0
228 1 9.7235368562 70.0421446364 0.0
229 1 14.0424368562 68.3171446364 0.0
230 1 21.5061368562 69.1658446364 0.0
231 1 26.5904368562 69.1168446364 0.0
232 1 31.7083368562 69.4655446364 0.0
233 1 38.0145368562 68.6839446364 0.0
234 1 40.9926368562 68.8636446364 0.0
235 1 45.8894368562 69.5947446364 0.0
236 1 51.3070368562 69.7383446364 0.0
237 1 56.3013368562 69.3564446364 0.0
238 1 61.3565368562 68.6589446364 0.0
239 1 66.4761368562 69.3677446364 0.0
240 1 71.8032368562 69.7910446364 0.0
241 1 2.5369968562 74.7016446364 0.0
242 1 7.9223868562 74.8821446364 0.0
243 1 13.1105368562 73.9125446364 0.0
244 1 18.5051368562 73.6576446364 0.0
245 1 23.6066368562 73.7589446364 0.0
246 1 28.9689368562 73.9204446364 0.0
247 1 33.9263368562 74.1868446364 0.0
248 1 38.8848368562 74.0004446364 0.0
249 1 43.8860368562 73.7880446364 0.0
250 1 49.0980368562 73.8375446364 0.0
251 1 53.4482368562 76.1924446364 0.0
252 1 58.8064368562 73.6707446364 0.0
253 1 63.7744368562 73.6602446364 0.0
254 1 68.9972368562 74.0198446364 0.0
255 1 74.4798368562 74.3172446364 0.0
256 1 76.5872368562 2.59843463638 0.0
257 1 4.0324368562 3.35303463638 0.0
258 1 11.1320368562 4.70018463638 0.0
259 1 15.3132368562 2.61427463638 0.0
260 1 20.3454368562 3.07786463638 0.0
261 1 23.3519368562 3.46546463638 0.0
262 1 29.8775368562 3.36493463638 0.0
263 1 35.1983368562 3.15383463638 0.0
264 1 40.6646368562 3.00626463638 0.0
265 1 46.0561368562 2.38586463638 0.0
266 1 51.4465368562 2.72517463638 0.0
267 1 57.1814368562 1.17239463638 0.0
268 1 61.4230368562 3.61143463638 0.0
269 1 66.3045368562 2.97280463638 0.0
270 1 71.4013368562 2.67202463638 0.0
271 1 1.1562568562 7.59063463638 0.0
272 1 6.6010968562 7.65108463638 0.0
273 1 12.7195368562 7.25788463638 0.0
274 1 17.5579368562 7.55407463638 0.0
275 1 22.7156368562 7.65953463638 0.0
276 1 27.6948368562 7.58727463638 0.0
277 1 33.0086368562 7.90588463638 0.0
278 1 38.2201368562 7.34270463638 0.0
279 1 43.7347368562 6.99843463638 0.0
280 1 48.8795368562 6.93464463638 0.0
281 1 53.9975368562 7.64464463638 0.0
282 1 59.1384368562 8.25853463638 0.0
283 1 64.3184368562 7.97770463638 0.0
284 1 69.0870368562 7.63460463638 0.0
285 1 73.9276368562 7.23969463638 0.0
286 1 77.3874368562 10.3029446364 0.0
287 1 4.6227068562 12.4378446364 0.0
288 1 9.8410368562 11.8291446364 0.0
289 1 14.9087368562 12.0185446364 0.0
290 1 20.3113368562 11.7304446364 0.0
291 1 25.8342368562 11.9091446364 0.0
292 1 30.9988368562 12.2374446364 0.0
293 1 36.3691368562 12.2714446364 0.0
294 1 41.2769368562 11.7557446364 0.0
295 1 46.2094368562 11.6398446364 0.0
296 1 50.9094368562 11.9657446364 0.0
297 1 56.0942368562 12.4362446364 0.0
298 1 61.6241368562 12.4628446364 0.0
299 1 66.9645368562 12.2895446364 0.0
300 1 72.0905368562 12.1437446364 0.0
301 1 2.5577468562 17.1943446364 0.0
302 1 7.7810568562 16.4925446364 0.0
303 1 12.7685368562 16.5461446364 0.0
304 1 18.0675368562 16.3396446364 0.0
305 1 23.2861368562 16.0180446364 0.0
306 1 28.6511368562 16.4449446364 0.0
307 1 33.8562368562 17.0589446364 0.0
308 1 36.8694368562 17.4051446364 0.0
309 1 43.7667368562 16.4232446364 0.0
310 1 49.2740368562 14.5173446364 0.0
311 1 53.7741368562 17.1494446364 0.0
312 1 58.9877368562 16.7652446364 0.0
313 1 64.4531368562 16.7168446364 0.0
314 1 69.8198368562 16.6182446364 0.0
315 1 75.0049368562 16.7551446364 0.0
316 1 77.3176368562 21.7950446364 0.0
317 1 5.0955768562 21.3831446364 0.0
318 1 10.1273368562 20.7985446364 0.0
319 1 15.3622368562 21.2824446364 0.0
320 1 18.3637368562 21.4869446364 0.0
321 1 25.2249368562 20.6669446364 0.0
322 1 30.5030368562 20.9548446364 0.0
323 1 35.9611368562 21.5506446364 0.0
324 1 41.2794368562 21.2414446364 0.0
325 1 46.4459368562 20.9107446364 0.0
326 1 51.6193368562 21.5539446364 0.0
327 1 56.9324368562 21.4620446364 0.0
328 1 62.0180368562 21.2339446364 0.0
329 1 67.2395368562 21.1868446364 0.0
330 1 72.3876368562 21.1894446364 0.0
331 1 4.4387768562 27.0572446364 0.0
332 1 8.6028468562 23.3834446364 0.0
333 1 13.2148368562 26.2230446364 0.0
334 1 17.8679368562 26.0470446364 0.0
335 1 22.6704368562 25.4345446364 0.0
336 1 27.5834368562 25.3566446364 0.0
337 1 32.8193368562 25.4306446364 0.0
338 1 40.4415368562 27.0474446364 0.0
339 1 44.3606368562 25.6498446364 0.0
340 1 49.0599368562 25.9542446364 0.0
341 1 54.3306368562 26.0249446364 0.0
342 1 59.5917368562 25.8036446364 0.0
343 1 64.7193368562 25.8094446364 0.0
344 1 69.7397368562 25.8839446364 0.0
345 1 74.6407368562 25.9817446364 0.0
346 1 0.110470856198 30.1352446364 0.0
347 1 6.0329968562 29.6173446364 0.0
348 1 10.9309368562 30.4658446364 0.0
349 1 15.9863368562 30.9747446364 0.0
350 1 20.8500368562 30.4854446364 0.0
351 1 25.4610368562 30.1894446364 0.0
352 1 30.3345368562 29.9842446364 0.0
353 1 35.7142368562 29.4001446364 0.0
354 1 41.6750368562 29.8248446364 0.0
355 1 46.7789368562 30.5902446364 0.0
356 1 51.7624368562 30.7413446364 0.0
357 1 57.0054368562 30.2002446364 0.0
358 1 62.2609368562 30.3181446364 0.0
359 1 67.3252368562 30.5352446364 0.0
360 1 72.3209368562 30.5996446364 0.0
361 1 2.6052568562 35.1059446364 0.0
362 1 5.6144168562 35.1007446364 0.0
363 1 12.5260368562 34.8241446364 0.0
364 1 18.1842368562 35.0251446364 0.0
365 1 23.3411368562 35.0247446364 0.0
366 1 28.2692368562 34.7778446364 0.0
367 1 33.4807368562 33.9828446364 0.0
368 1 38.5479368562 34.0149446364 0.0
369 1 43.8034368562 34.6768446364 0.0
370 1 49.2553368562 35.1517446364 0.0
371 1 54.7212368562 34.9791446364 0.0
372 1 59.7626368562 34.6519446364 0.0
373 1 64.8670368562 35.1050446364 0.0
374 1 70.0041368562 35.1292446364 0.0
375 1 75.3117368562 34.9091446364 0.0
376 1 77.4474368562 39.7236446364 0.0
377 1 5.0049768562 39.7216446364 0.0
378 1 9.8633368562 39.0705446364 0.0
379 1 15.3883368562 38.9330446364 0.0
380 1 20.8408368562 39.5519446364 0.0
381 1 26.1021368562 39.4349446364 0.0
382 1 31.4638368562 38.7775446364 0.0
383 1 36.8999368562 36.5540446364 0.0
384 1 41.4068368562 39.2711446364 0.0
385 1 46.5356368562 39.3784446364 0.0
386 1 51.7733368562 39.9547446364 0.0
387 1 54.7959368562 40.0524446364 0.0
388 1 61.9081368562 39.3296446364 0.0
389 1 67.3121368562 39.5965446364 0.0
390 1 72.5594368562 39.6538446364 0.0
391 1 2.9582968562 44.1565446364 0.0
392 1 8.1596968562 44.2188446364 0.0
393 1 12.9431368562 43.3587446364 0.0
394 1 18.0549368562 43.5969446364 0.0
395 1 23.4363368562 44.1479446364 0.0
396 1 28.7053368562 43.6260446364 0.0
397 1 33.8702368562 42.9868446364 0.0
398 1 39.0020368562 43.2541446364 0.0
399 1 44.1868368562 44.1032446364 0.0
400 1 48.9048368562 44.4429446364 0.0
401 1 54.1248368562 44.4248446364 0.0
402 1 59.3249368562 43.6046446364 0.0
403 1 64.7525368562 43.7813446364 0.0
404 1 70.0759368562 44.2532446364 0.0
405 1 75.2246368562 44.2435446364 0.0
406 1 0.805676856198 48.2774446364 0.0
407 1 6.2489168562 48.5355446364 0.0
408 1 11.6627368562 48.4500446364 0.0
409 1 16.7200368562 46.2819446364 0.0
410 1 21.0760368562 49.1522446364 0.0
411 1 26.0382368562 48.5359446364 0.0
412 1 31.0706368562 48.0004446364 0.0
413 1 35.8927368562 47.4305446364 0.0
414 1 41.1246368562 47.8714446364 0.0
415 1 46.4838368562 48.9165446364 0.0
416 1 51.6841368562 49.0716446364 0.0
417 1 57.0749368562 48.3418446364 0.0
418 1 62.3492368562 47.7644446364 0.0
419 1 67.7192368562 48.4725446364 0.0
420 1 72.9895368562 48.9692446364 0.0
421 1 3.9075968562 52.7856446364 0.0
422 1 8.7986268562 53.6204446364 0.0
423 1 11.8115368562 53.6636446364 0.0
424 1 18.3638368562 53.5286446364 0.0
425 1 23.7351368562 53.5365446364 0.0
426 1 28.7435368562 52.8791446364 0.0
427 1 33.8562368562 52.3105446364 0.0
428 1 39.1742368562 50.1522446364 0.0
429 1 43.9451368562 52.9351446364 0.0
430 1 49.3956368562 53.5092446364 0.0
431 1 54.7900368562 53.3868446364 0.0
432 1 59.8806368562 52.2592446364 0.0
433 1 65.0503368562 52.3128446364 0.0
434 1 72.3052368562 54.6535446364 0.0
435 1 76.4504368562 53.0085446364 0.0
436 1 76.1995368562 58.1884446364 0.0
437 1 5.3749868562 57.9027446364 0.0
438 1 10.5175368562 58.2560446364 0.0
439 1 15.5667368562 57.9451446364 0.0
440 1 20.8910368562 58.0307446364 0.0
441 1 26.3297368562 57.7246446364 0.0
442 1 31.6075368562 56.9002446364 0.0
443 1 36.9344368562 56.5005446364 0.0
444 1 42.6230368562 55.6202446364 0.0
445 1 47.3704368562 57.8549446364 0.0
446 1 52.1644368562 58.6503446364 0.0
447 1 58.6801368562 57.5206446364 0.0
448 1 63.0146368562 56.8342446364 0.0
449 1 68.0330368562 56.9137446364 0.0
450 1 73.2642368562 57.5338446364 0.0
451 1 2.4009868562 62.4517446364 0.0
452 1 7.5242268562 62.4871446364 0.0
453 1 12.8921368562 62.7496446364 0.0
454 1 17.9030368562 62.5211446364 0.0
455 1 25.3702368562 63.4209446364 0.0
456 1 29.5271368562 61.7779446364 0.0
457 1 34.4350368562 61.4516446364 0.0
458 1 39.3565368562 60.9381446364 0.0
459 1 44.4838368562 62.0296446364 0.0
460 1 49.5449368562 62.6779446364 0.0
461 1 56.7887368562 61.6492446364 0.0
462 1 60.1294368562 60.1809446364 0.0
463 1 65.3325368562 61.7954446364 0.0
464 1 69.9147368562 62.0009446364 0.0
465 1 74.6999368562 62.5072446364 0.0
466 1 77.2033368562 67.0672446364 0.0
467 1 4.7225468562 67.1893446364 0.0
468 1 9.7644368562 67.0340446364 0.0
469 1 17.0366368562 68.2737446364 0.0
470 1 21.1676368562 66.1704446364 0.0
471 1 26.7903368562 66.0886446364 0.0
472 1 31.9790368562 66.4653446364 0.0
473 1 36.8217368562 65.9332446364 0.0
474 1 41.2728368562 65.8920446364 0.0
475 1 46.5282368562 66.6905446364 0.0
476 1 52.0295368562 66.8607446364 0.0
477 1 55.0120368562 66.6276446364 0.0
478 1 61.3475368562 65.5693446364 0.0
479 1 66.7306368562 66.3526446364 0.0
480 1 71.8762368562 66.7738446364 0.0
481 1 2.2436768562 71.6939446364 0.0
482 1 7.3649668562 71.9069446364 0.0
483 1 12.5834368562 70.9480446364 0.0
484 1 18.8835368562 70.6538446364 0.0
485 1 24.0546368562 70.7644446364 0.0
486 1 29.0446368562 70.8903446364 0.0
487 1 34.1585368562 71.2127446364 0.0
488 1 37.1467368562 71.5360446364 0.0
489 1 43.1995368562 70.8802446364 0.0
490 1 48.5612368562 70.9095446364 0.0
491 1 53.9166368562 71.1919446364 0.0
492 1 59.0367368562 70.6300446364 0.0
493 1 63.7094368562 70.6079446364 0.0
494 1 69.0297368562 70.9984446364 0.0
495 1 74.4275368562 71.3016446364 0.0
496 1 77.1858368562 75.6875446364 0.0
497 1 5.1908768562 76.2018446364 0.0
498 1 10.8079368562 75.8699446364 0.0
499 1 15.8663368562 75.1402446364 0.0
500 1 21.0172368562 75.3437446364 0.0
501 1 26.2473368562 75.2163446364 0.0
502 1 31.3801368562 75.7456446364 0.0
503 1 36.4781368562 75.7651446364 0.0
504 1 41.4730368562 75.5468446364 0.0
505 1 46.4850368562 75.2904446364 0.0
506 1 52.0834368562 73.5595446364 0.0
507 1 56.3979368562 75.5237446364 0.0
508 1 61.2931368562 75.4091446364 0.0
509 1 66.2848368562 75.3696446364 0.0
510 1 71.6698368562 75.4460446364 0.0
511 1 5.2710768562 79.2291446364 0.0
512 1 12.3899368562 78.4631446364 0.0
513 1 15.4218368562 78.1313446364 0.0
514 1 20.7024368562 78.3654446364 0.0
515 1 26.1173368562 78.2224446364 0.0
516 1 33.0563368562 78.2554446364 0.0
517 1 36.0361368562 78.7170446364 0.0
518 1 43.1209368562 78.0694446364 0.0
519 1 46.1331368562 78.2651446364 0.0
520 1 51.4493368562 78.4550446364 0.0
521 1 56.5122368562 78.5136446364 0.0
522 1 61.2759368562 78.4580446364 0.0
523 1 66.2405368562 78.4027446364 0.0
524 1 71.5776368562 78.4591446364 0.0
525 1 77.1342368562 78.6971446364 0.0
526 1 2.3430468562 80.0321446364 0.0
527 1 7.6956568562 81.0869446364 0.0
528 1 10.7412368562 81.0100446364 0.0
529 1 17.9959368562 79.7675446364 0.0
530 1 23.4565368562 79.6451446364 0.0
531 1 28.4327368562 80.1551446364 0.0
532 1 31.3777368562 80.7181446364 0.0
533 1 38.4460368562 80.5281446364 0.0
534 1 41.4651368562 80.5589446364 0.0
535 1 48.7391368562 79.7967446364 0.0
536 1 53.9478368562 80.0896446364 0.0
537 1 58.8895368562 80.3212446364 0.0
538 1 63.7729368562 80.1577446364 0.0
539 1 68.8923368562 79.8531446364 0.0
540 1 74.3016368562 79.7690446364 0.0
541 2 2.0854168562 81.5208446364 0.0
542 2 2.9094568562 2.35934463638 0.0
543 2 0.420926856198 1.93820463638 0.0
544 2 7.2901868562 0.904524636375 0.0
545 2 5.4158668562 2.77492463638 0.0
546 2 7.5534368562 3.68765463638 0.0
547 2 11.5545368562 0.651944636375 0.0
548 2 13.8706368562 2.14117463638 0.0
549 2 11.7157368562 3.30709463638 0.0
550 2 17.9982368562 81.2908446364 0.0
551 2 19.2087368562 2.06964463638 0.0
552 2 16.6264368562 1.85987463638 0.0
553 2 23.9660368562 2.09850463638 0.0
554 2 23.9675368562 81.0739446364 0.0
555 2 26.1104368562 1.14580463638 0.0
556 2 28.0279368562 81.5977446364 0.0
557 2 28.6555368562 2.46556463638 0.0
558 2 32.0050368562 0.434053636375 0.0
559 2 33.8563368562 2.46812463638 0.0
560 2 31.2038368562 2.65504463638 0.0
561 2 38.0844368562 0.338517636375 0.0
562 2 39.2671368562 2.44905463638 0.0
563 2 36.5386368562 2.46612463638 0.0
564 2 42.4017368562 0.0927156363753 0.0
565 2 41.9696368562 2.26791463638 0.0
566 2 44.6450368562 1.81392463638 0.0
567 2 48.7969368562 81.3050446364 0.0
568 2 50.1347368562 1.95642463638 0.0
569 2 47.4311368562 1.75689463638 0.0
570 2 53.9886368562 81.5750446364 0.0
571 2 55.6830368562 1.39019463638 0.0
572 2 52.8386368562 2.12303463638 0.0
573 2 57.7985368562 2.53453463638 0.0
574 2 59.9145368562 3.68790463638 0.0
575 2 57.5195368562 5.10532463638 0.0
576 2 63.6812368562 0.0285956363753 0.0
577 2 64.9724368562 2.26480463638 0.0
578 2 62.4747368562 2.52287463638 0.0
579 2 68.8160368562 81.3631446364 0.0
580 2 70.0858368562 1.94610463638 0.0
581 2 67.5291368562 2.08830463638 0.0
582 2 74.1286368562 81.2676446364 0.0
583 2 75.2843368562 1.85871463638 0.0
584 2 72.6861368562 1.88532463638 0.0
585 2 76.5187368562 4.10094463638 0.0
586 2 0.0841908561984 6.54003463638 0.0
587 2 75.1587368562 6.38317463638 0.0
588 2 3.9222968562 4.85362463638 0.0
589 2 5.1990468562 7.09079463638 0.0
590 2 2.5536068562 7.04644463638 0.0
591 2 9.6467368562 4.90902463638 0.0
592 2 7.4599568562 6.40644463638 0.0
593 2 15.3186368562 4.13252463638 0.0
594 2 16.4194368562 6.58403463638 0.0
595 2 14.0211368562 6.49773463638 0.0
596 2 20.1375368562 4.57807463638 0.0
597 2 21.4292368562 6.88423463638 0.0
598 2 18.8749368562 6.84048463638 0.0
599 2 24.3393368562 4.62386463638 0.0
600 2 26.4539368562 6.70328463638 0.0
601 2 23.9682368562 6.84767463638 0.0
602 2 30.1512368562 4.84229463638 0.0
603 2 31.6997368562 7.13737463638 0.0
604 2 29.0558368562 6.94576463638 0.0
605 2 35.3040368562 4.65338463638 0.0
606 2 36.8455368562 6.73455463638 0.0
607 2 34.2315368562 7.02090463638 0.0
608 2 40.7806368562 4.49628463638 0.0
609 2 42.3169368562 6.49227463638 0.0
610 2 39.5627368562 6.66523463638 0.0
611 2 46.1663368562 3.89373463638 0.0
612 2 47.5982368562 6.13867463638 0.0
613 2 45.0033368562 6.19294463638 0.0
614 2 51.5600368562 4.23249463638 0.0
615 2 52.8321368562 6.67530463638 0.0
616 2 50.2606368562 6.34150463638 0.0
617 2 57.9056368562 7.40603463638 0.0
618 2 55.3674368562 6.98715463638 0.0
619 2 61.6437368562 5.10795463638 0.0
620 2 62.9779368562 7.30669463638 0.0
621 2 60.4127368562 7.45707463638 0.0
622 2 66.4389368562 4.48152463638 0.0
623 2 67.8270368562 6.81322463638 0.0
624 2 65.4374368562 6.97874463638 0.0
625 2 71.3773368562 4.17964463638 0.0
626 2 72.6512368562 6.46162463638 0.0
627 2 70.2253368562 6.65239463638 0.0
628 2 0.737766856198 11.5198446364 0.0
629 2 3.1081168562 12.4715446364 0.0
630 2 0.837746856198 14.0194446364 0.0
631 2 6.8671768562 9.13425463638 0.0
632 2 8.4498268562 11.2293446364 0.0
633 2 5.8069868562 11.4996446364 0.0
634 2 12.5412368562 8.75984463638 0.0
635 2 13.6621368562 11.1630446364 0.0
636 2 11.1103368562 11.0058446364 0.0
637 2 17.5180368562 9.05165463638 0.0
638 2 18.9303368562 11.1401446364 0.0
639 2 16.2328368562 11.2907446364 0.0
640 2 22.9287368562 9.13917463638 0.0
641 2 24.4657368562 11.2742446364 0.0
642 2 21.7092368562 11.1822446364 0.0
643 2 28.0843368562 9.05381463638 0.0
644 2 29.7545368562 11.3624446364 0.0
645 2 27.1653368562 11.2239446364 0.0
646 2 33.3590368562 9.37493463638 0.0
647 2 34.9926368562 11.6244446364 0.0
648 2 32.3488368562 11.5661446364 0.0
649 2 38.4152368562 8.83299463638 0.0
650 2 39.9662368562 11.0170446364 0.0
651 2 37.4604368562 11.2335446364 0.0
652 2 43.7409368562 8.50325463638 0.0
653 2 44.9584368562 10.8163446364 0.0
654 2 42.4804368562 10.8626446364 0.0
655 2 48.7820368562 8.44055463638 0.0
656 2 49.8570368562 10.8874446364 0.0
657 2 47.4381368562 10.7726446364 0.0
658 2 53.8136368562 9.15191463638 0.0
659 2 54.8661368562 11.5596446364 0.0
660 2 52.3034368562 11.3732446364 0.0
661 2 58.9982368562 9.75034463638 0.0
662 2 60.2356368562 11.8799446364 0.0
663 2 57.4862368562 11.8467446364 0.0
664 2 64.3054368562 9.47954463638 0.0
665 2 65.6012368562 11.6520446364 0.0
666 2 62.9322368562 11.7117446364 0.0
667 2 69.2909368562 9.12979463638 0.0
668 2 70.7804368562 11.3925446364 0.0
669 2 68.2184368562 11.4588446364 0.0
670 2 74.0855368562 8.73076463638 0.0
671 2 75.8863368562 10.3533446364 0.0
672 2 73.2824368562 11.2175446364 0.0
673 2 76.3180368562 16.0024446364 0.0
674 2 1.3225168562 16.3466446364 0.0
675 2 4.8613568562 13.9257446364 0.0
676 2 6.3945868562 15.9223446364 0.0
677 2 3.8062668562 16.3514446364 0.0
678 2 10.0812368562 13.3255446364 0.0
679 2 11.5373368562 15.6704446364 0.0
680 2 9.0314368562 15.6642446364 0.0
681 2 15.1171368562 13.5154446364 0.0
682 2 16.6930368562 15.7196446364 0.0
683 2 14.0804368562 15.8071446364 0.0
684 2 20.4300368562 13.2226446364 0.0
685 2 21.9536368562 15.3197446364 0.0
686 2 19.2941368562 15.4658446364 0.0
687 2 25.9650368562 13.4025446364 0.0
688 2 27.3738368562 15.6385446364 0.0
689 2 24.6815368562 15.4771446364 0.0
690 2 31.2116368562 13.7382446364 0.0
691 2 32.6883368562 16.0814446364 0.0
692 2 30.0444368562 15.8788446364 0.0
693 2 37.5423368562 16.0636446364 0.0
694 2 37.2000368562 13.5443446364 0.0
695 2 39.6954368562 14.8185446364 0.0
696 2 41.3420368562 13.2535446364 0.0
697 2 42.4518368562 15.6440446364 0.0
698 2 46.1428368562 13.1384446364 0.0
699 2 47.7699368562 14.6884446364 0.0
700 2 45.0474368562 15.5832446364 0.0
701 2 50.0242368562 15.8192446364 0.0
702 2 52.2681368562 17.0532446364 0.0
703 2 49.9242368562 18.3830446364 0.0
704 2 56.1411368562 13.9452446364 0.0
705 2 57.6307368562 16.1018446364 0.0
706 2 54.9856368562 16.2529446364 0.0
707 2 61.6820368562 13.9632446364 0.0
708 2 63.0776368562 16.0997446364 0.0
709 2 60.3456368562 16.1050446364 0.0
710 2 67.0488368562 13.7899446364 0.0
711 2 68.4664368562 15.9520446364 0.0
712 2 65.7801368562 16.0025446364 0.0
713 2 72.2940368562 13.6365446364 0.0
714 2 73.7329368562 15.9350446364 0.0
715 2 71.1329368562 15.8811446364 0.0
716 2 2.4346268562 18.6891446364 0.0
717 2 3.7094168562 20.8160446364 0.0
718 2 1.0937368562 21.0104446364 0.0
719 2 7.6000268562 17.9832446364 0.0
720 2 8.8213268562 20.0530446364 0.0
721 2 6.2561768562 20.4122446364 0.0
722 2 12.8320368562 18.0560446364 0.0
723 2 14.1516368562 20.3871446364 0.0
724 2 11.5199368562 20.2311446364 0.0
725 2 19.0659368562 20.1717446364 0.0
726 2 18.8092368562 17.6569446364 0.0
727 2 21.2411368562 18.9690446364 0.0
728 2 23.9423368562 19.8744446364 0.0
729 2 23.0926368562 17.5013446364 0.0
730 2 28.2918368562 17.9067446364 0.0
731 2 29.2252368562 20.1705446364 0.0
732 2 26.5809368562 20.0040446364 0.0
733 2 33.5264368562 18.5307446364 0.0
734 2 34.6449368562 20.8123446364 0.0
735 2 31.9325368562 20.4918446364 0.0
736 2 37.7718368562 18.6258446364 0.0
737 2 39.9075368562 20.5627446364 0.0
738 2 37.2811368562 20.8409446364 0.0
739 2 43.7584368562 17.9459446364 0.0
740 2 45.1143368562 20.1844446364 0.0
741 2 42.5128368562 20.3426446364 0.0
742 2 47.8089368562 20.2339446364 0.0
743 2 50.3791368562 20.7105446364 0.0
744 2 54.0859368562 18.6217446364 0.0
745 2 55.5934368562 20.7818446364 0.0
746 2 52.9534368562 20.8604446364 0.0
747 2 59.1814368562 18.2623446364 0.0
748 2 60.7185368562 20.4751446364 0.0
749 2 58.1716368562 20.6177446364 0.0
750 2 64.5370368562 18.2195446364 0.0
751 2 65.9265368562 20.4513446364 0.0
752 2 63.3176368562 20.4807446364 0.0
753 2 69.8221368562 18.1250446364 0.0
754 2 71.1057368562 20.4018446364 0.0
755 2 68.5245368562 20.4054446364 0.0
756 2 75.0466368562 18.2703446364 0.0
757 2 76.1763368562 20.8002446364 0.0
758 2 73.7094368562 20.4755446364 0.0
759 2 77.4161368562 23.3061446364 0.0
760 2 0.740416856198 26.0770446364 0.0
761 2 75.9975368562 25.3495446364 0.0
762 2 5.2675068562 22.8763446364 0.0
763 2 7.1908568562 23.8935446364 0.0
764 2 5.0844068562 25.6790446364 0.0
765 2 9.4863368562 24.5863446364 0.0
766 2 11.7488368562 25.9538446364 0.0
767 2 9.4424368562 27.0895446364 0.0
768 2 15.2963368562 22.7916446364 0.0
769 2 16.6519368562 25.1706446364 0.0
770 2 14.2812368562 25.1948446364 0.0
771 2 19.2602368562 22.6992446364 0.0
772 2 21.3840368562 24.6538446364 0.0
773 2 19.0083368562 25.0838446364 0.0
774 2 25.1449368562 22.1712446364 0.0
775 2 26.3451368562 24.5139446364 0.0
776 2 23.8728368562 24.5360446364 0.0
777 2 30.3405368562 22.4460446364 0.0
778 2 31.5262368562 24.6793446364 0.0
779 2 28.9028368562 24.6401446364 0.0
780 2 35.8906368562 23.0515446364 0.0
781 2 36.6340368562 25.6910446364 0.0
782 2 34.2285368562 24.9246446364 0.0
783 2 41.4296368562 22.7679446364 0.0
784 2 43.0649368562 24.8884446364 0.0
785 2 40.9732368562 25.6268446364 0.0
786 2 46.6352368562 22.4196446364 0.0
787 2 47.9576368562 24.9220446364 0.0
788 2 45.5793368562 24.7768446364 0.0
789 2 51.6586368562 23.0530446364 0.0