ITEM: TIMESTEP
0
ITEM: NUMBER OF ATOMS
1350
ITEM: BOX BOUNDS xy xz yz pp pp pp
0.0 78.254235504 0
0.0 81.1443016134 0
-10.0 10.0 0
ITEM: ATOMS id type x y z vx vy vz
1 1 2.06478552886 1.06578080669 0.0 0.0 0.0 0.0
2 1 7.54815552886 1.14932080669 0.0 0.0 0.0 0.0
3 1 13.1627555289 1.29192080669 0.0 0.0 0.0 0.0
4 1 18.3913555289 1.57441080669 0.0 0.0 0.0 0.0
5 1 23.6967555289 1.75665080669 0.0 0.0 0.0 0.0
6 1 28.9916555289 1.86745080669 0.0 0.0 0.0 0.0
7 1 34.1175555289 1.86102080669 0.0 0.0 0.0 0.0
8 1 39.2856555289 1.95293080669 0.0 0.0 0.0 0.0
9 1 44.5687555289 2.02998080669 0.0 0.0 0.0 0.0
10 1 49.7570555289 1.87133080669 0.0 0.0 0.0 0.0
11 1 54.8144555289 1.59792080669 0.0 0.0 0.0 0.0
12 1 60.0061555289 1.31331080669 0.0 0.0 0.0 0.0
13 1 65.3706555289 1.22845080669 0.0 0.0 0.0 0.0
14 1 70.2843555289 1.20548080669 0.0 0.0 0.0 0.0
15 1 75.1931555289 1.05583080669 0.0 0.0 0.0 0.0
16 1 77.9275555289 5.67362080669 0.0 0.0 0.0 0.0
17 1 4.90113552886 5.34821080669 0.0 0.0 0.0 0.0
18 1 10.3032555289 5.27514080669 0.0 0.0 0.0 0.0
19 1 15.6189555289 5.92052080669 0.0 0.0 0.0 0.0
20 1 21.0214555289 6.08896080669 0.0 0.0 0.0 0.0
21 1 26.4813555289 6.24869080669 0.0 0.0 0.0 0.0
22 1 31.7779555289 6.45408080669 0.0 0.0 0.0 0.0
23 1 36.7687555289 6.45079080669 0.0 0.0 0.0 0.0
24 1 42.0790555289 6.42873080669 0.0 0.0 0.0 0.0
25 1 47.2640555289 6.47149080669 0.0 0.0 0.0 0.0
26 1 52.3534555289 6.37292080669 0.0 0.0 0.0 0.0
27 1 57.2417555289 5.97214080669 0.0 0.0 0.0 0.0
28 1 62.4142555289 5.63729080669 0.0 0.0 0.0 0.0
29 1 67.5521555289 6.02437080669 0.0 0.0 0.0 0.0
30 1 72.7712555289 5.94566080669 0.0 0.0 0.0 0.0
31 1 3.26294552886 9.87905080669 0.0 0.0 0.0 0.0
32 1 8.21878552886 9.55705080669 0.0 0.0 0.0 0.0
33 1 12.8137555289 12.0269508067 0.0 0.0 0.0 0.0
34 1 18.4049555289 10.3324508067 0.0 0.0 0.0 0.0
35 1 23.9088555289 10.4371508067 0.0 0.0 0.0 0.0
36 1 29.3594555289 10.7835508067 0.0 0.0 0.0 0.0
37 1 34.6816555289 11.1433508067 0.0 0.0 0.0 0.0
38 1 39.6619555289 10.8453508067 0.0 0.0 0.0 0.0
39 1 44.7649555289 10.9814508067 0.0 0.0 0.0 0.0
40 1 49.7221555289 11.0390508067 0.0 0.0 0.0 0.0
41 1 55.1420555289 10.9303508067 0.0 0.0 0.0 0.0
42 1 60.1363555289 10.3296508067 0.0 0.0 0.0 0.0
43 1 64.5100555289 12.6035508067 0.0 0.0 0.0 0.0
44 1 70.0645555289 10.5691508067 0.0 0.0 0.0 0.0
45 1 76.2367555289 10.3101508067 0.0 0.0 0.0 0.0
46 1 1.08685552886 14.4887508067 0.0 0.0 0.0 0.0
47 1 6.13861552886 14.4154508067 0.0 0.0 0.0 0.0
48 1 11.2161555289 14.5706508067 0.0 0.0 0.0 0.0
49 1 16.3545555289 14.8055508067 0.0 0.0 0.0 0.0
50 1 21.4789555289 14.5917508067 0.0 0.0 0.0 0.0
51 1 26.6188555289 14.8865508067 0.0 0.0 0.0 0.0
52 1 32.0420555289 15.3891508067 0.0 0.0 0.0 0.0
53 1 38.8157555289 15.3106508067 0.0 0.0 0.0 0.0
54 1 41.8351555289 15.4891508067 0.0 0.0 0.0 0.0
55 1 46.7369555289 15.7177508067 0.0 0.0 0.0 0.0
56 1 52.0232555289 15.2943508067 0.0 0.0 0.0 0.0
57 1 57.3864555289 15.3437508067 0.0 0.0 0.0 0.0
58 1 63.3571555289 15.3932508067 0.0 0.0 0.0 0.0
59 1 68.2958555289 15.0052508067 0.0 0.0 0.0 0.0
60 1 71.9672555289 12.9302508067 0.0 0.0 0.0 0.0
61 1 3.47277552886 19.0890508067 0.0 0.0 0.0 0.0
62 1 8.52940552886 19.1247508067 0.0 0.0 0.0 0.0
63 1 13.6077555289 19.1858508067 0.0 0.0 0.0 0.0
64 1 18.8189555289 19.2238508067 0.0 0.0 0.0 0.0
65 1 23.6050555289 19.2652508067 0.0 0.0 0.0 0.0
66 1 28.5457555289 19.3500508067 0.0 0.0 0.0 0.0
67 1 33.5612555289 20.1480508067 0.0 0.0 0.0 0.0
68 1 38.3748555289 20.7990508067 0.0 0.0 0.0 0.0
69 1 44.4534555289 20.4344508067 0.0 0.0 0.0 0.0
70 1 49.6959555289 19.9532508067 0.0 0.0 0.0 0.0
71 1 54.5825555289 19.6983508067 0.0 0.0 0.0 0.0
72 1 58.7280555289 18.0610508067 0.0 0.0 0.0 0.0
73 1 66.0907555289 19.8398508067 0.0 0.0 0.0 0.0
74 1 71.3338555289 18.8439508067 0.0 0.0 0.0 0.0
75 1 76.5015555289 18.6297508067 0.0 0.0 0.0 0.0
76 1 0.676425528857 23.3576508067 0.0 0.0 0.0 0.0
77 1 5.83358552886 23.7471508067 0.0 0.0 0.0 0.0
78 1 12.5614555289 23.3469508067 0.0 0.0 0.0 0.0
79 1 15.5534555289 23.5821508067 0.0 0.0 0.0 0.0
80 1 20.7061555289 24.0074508067 0.0 0.0 0.0 0.0
81 1 25.6593555289 23.9755508067 0.0 0.0 0.0 0.0
82 1 30.7031555289 24.2898508067 0.0 0.0 0.0 0.0
83 1 35.7858555289 25.2076508067 0.0 0.0 0.0 0.0
84 1 40.0691555289 23.3121508067 0.0 0.0 0.0 0.0
85 1 47.5019555289 24.6546508067 0.0 0.0 0.0 0.0
86 1 52.5082555289 24.5855508067 0.0 0.0 0.0 0.0
87 1 57.5337555289 23.8179508067 0.0 0.0 0.0 0.0
88 1 62.9482555289 23.5725508067 0.0 0.0 0.0 0.0
89 1 68.4939555289 23.6732508067 0.0 0.0 0.0 0.0
90 1 73.7462555289 23.2797508067 0.0 0.0 0.0 0.0
91 1 2.87154552886 28.0913508067 0.0 0.0 0.0 0.0
92 1 7.73863552886 28.7176508067 0.0 0.0 0.0 0.0
93 1 12.5716555289 28.5315508067 0.0 0.0 0.0 0.0
94 1 17.9603555289 28.3130508067 0.0 0.0 0.0 0.0
95 1 23.4378555289 28.6786508067 0.0 0.0 0.0 0.0
96 1 28.4453555289 28.7109508067 0.0 0.0 0.0 0.0
97 1 33.3888555289 31.1093508067 0.0 0.0 0.0 0.0
98 1 38.9620555289 29.0306508067 0.0 0.0 0.0 0.0
99 1 44.5812555289 28.7615508067 0.0 0.0 0.0 0.0
100 1 50.1026555289 29.3431508067 0.0 0.0 0.0 0.0
101 1 55.0469555289 28.8778508067 0.0 0.0 0.0 0.0
102 1 60.4303555289 28.0509508067 0.0 0.0 0.0 0.0
103 1 65.8054555289 27.8358508067 0.0 0.0 0.0 0.0
104 1 70.9598555289 27.9301508067 0.0 0.0 0.0 0.0
105 1 76.1453555289 27.8499508067 0.0 0.0 0.0 0.0
106 1 0.338241528857 32.6470508067 0.0 0.0 0.0 0.0
107 1 5.28738552886 33.1048508067 0.0 0.0 0.0 0.0
108 1 10.4065555289 33.3817508067 0.0 0.0 0.0 0.0
109 1 15.3988555289 32.7467508067 0.0 0.0 0.0 0.0
110 1 20.7245555289 32.7108508067 0.0 0.0 0.0 0.0
111 1 26.0355555289 33.3864508067 0.0 0.0 0.0 0.0
112 1 31.5871555289 33.5499508067 0.0 0.0 0.0 0.0
113 1 36.7695555289 33.6981508067 0.0 0.0 0.0 0.0
114 1 42.0518555289 33.0890508067 0.0 0.0 0.0 0.0
115 1 47.3971555289 33.3405508067 0.0 0.0 0.0 0.0
116 1 52.8123555289 33.9594508067 0.0 0.0 0.0 0.0
117 1 58.5290555289 32.7155508067 0.0 0.0 0.0 0.0
118 1 63.8073555289 32.2566508067 0.0 0.0 0.0 0.0
119 1 68.3107555289 32.4609508067 0.0 0.0 0.0 0.0
120 1 73.5441555289 32.4064508067 0.0 0.0 0.0 0.0
121 1 2.71029552886 37.5557508067 0.0 0.0 0.0 0.0
122 1 7.92169552886 37.7950508067 0.0 0.0 0.0 0.0
123 1 13.2841555289 37.6859508067 0.0 0.0 0.0 0.0
124 1 18.5121555289 37.0795508067 0.0 0.0 0.0 0.0
125 1 22.9789555289 39.5605508067 0.0 0.0 0.0 0.0
126 1 28.4538555289 37.7180508067 0.0 0.0 0.0 0.0
127 1 33.8499555289 38.1378508067 0.0 0.0 0.0 0.0
128 1 39.2487555289 37.8033508067 0.0 0.0 0.0 0.0
129 1 44.5682555289 37.6503508067 0.0 0.0 0.0 0.0
130 1 49.7662555289 38.0104508067 0.0 0.0 0.0 0.0
131 1 54.8355555289 36.2822508067 0.0 0.0 0.0 0.0
132 1 60.5762555289 36.7768508067 0.0 0.0 0.0 0.0
133 1 65.5408555289 37.3595508067 0.0 0.0 0.0 0.0
134 1 70.7650555289 36.8902508067 0.0 0.0 0.0 0.0
135 1 76.0089555289 37.1436508067 0.0 0.0 0.0 0.0
136 1 78.0092555289 42.0207508067 0.0 0.0 0.0 0.0
137 1 5.11602552886 42.1691508067 0.0 0.0 0.0 0.0
138 1 10.4822555289 42.1123508067 0.0 0.0 0.0 0.0
139 1 15.8476555289 41.8511508067 0.0 0.0 0.0 0.0
140 1 21.2982555289 42.0658508067 0.0 0.0 0.0 0.0
141 1 26.1962555289 42.4807508067 0.0 0.0 0.0 0.0
142 1 31.1493555289 42.2696508067 0.0 0.0 0.0 0.0
143 1 36.3383555289 42.2908508067 0.0 0.0 0.0 0.0
144 1 41.6167555289 42.1271508067 0.0 0.0 0.0 0.0
145 1 46.9333555289 42.3727508067 0.0 0.0 0.0 0.0
146 1 51.9341555289 42.9611508067 0.0 0.0 0.0 0.0
147 1 56.7927555289 41.8594508067 0.0 0.0 0.0 0.0
148 1 62.4421555289 41.7994508067 0.0 0.0 0.0 0.0
149 1 69.7881555289 41.2310508067 0.0 0.0 0.0 0.0
150 1 72.8020555289 41.4261508067 0.0 0.0 0.0 0.0
151 1 2.30848552886 46.4855508067 0.0 0.0 0.0 0.0
152 1 7.64674552886 46.5213508067 0.0 0.0 0.0 0.0
153 1 12.8735555289 46.3434508067 0.0 0.0 0.0 0.0
154 1 18.0772555289 46.2248508067 0.0 0.0 0.0 0.0
155 1 23.3898555289 46.9790508067 0.0 0.0 0.0 0.0
156 1 28.3352555289 47.0407508067 0.0 0.0 0.0 0.0
157 1 33.4524555289 46.7948508067 0.0 0.0 0.0 0.0
158 1 38.7216555289 46.6313508067 0.0 0.0 0.0 0.0
159 1 43.7885555289 46.6208508067 0.0 0.0 0.0 0.0
160 1 48.9548555289 47.3099508067 0.0 0.0 0.0 0.0
161 1 54.8996555289 47.1083508067 0.0 0.0 0.0 0.0
162 1 59.8946555289 46.0806508067 0.0 0.0 0.0 0.0
163 1 64.8639555289 46.4648508067 0.0 0.0 0.0 0.0
164 1 69.8384555289 46.1242508067 0.0 0.0 0.0 0.0
165 1 75.2135555289 46.2370508067 0.0 0.0 0.0 0.0
166 1 77.9950555289 50.7782508067 0.0 0.0 0.0 0.0
167 1 5.00077552886 50.9248508067 0.0 0.0 0.0 0.0
168 1 10.2368555289 50.9454508067 0.0 0.0 0.0 0.0
169 1 15.2240555289 50.7931508067 0.0 0.0 0.0 0.0
170 1 20.4286555289 50.9286508067 0.0 0.0 0.0 0.0
171 1 25.5420555289 51.7207508067 0.0 0.0 0.0 0.0
172 1 30.5963555289 51.4685508067 0.0 0.0 0.0 0.0
173 1 36.0815555289 51.1450508067 0.0 0.0 0.0 0.0
174 1 41.3367555289 51.2280508067 0.0 0.0 0.0 0.0
175 1 46.2974555289 51.4243508067 0.0 0.0 0.0 0.0
176 1 50.3617555289 49.9715508067 0.0 0.0 0.0 0.0
177 1 57.3175555289 51.1624508067 0.0 0.0 0.0 0.0
178 1 62.8871555289 50.9240508067 0.0 0.0 0.0 0.0
179 1 68.1200555289 50.8977508067 0.0 0.0 0.0 0.0
180 1 72.9582555289 50.5814508067 0.0 0.0 0.0 0.0
181 1 2.39020552886 55.3432508067 0.0 0.0 0.0 0.0
182 1 7.77479552886 55.4371508067 0.0 0.0 0.0 0.0
183 1 13.0358555289 55.5615508067 0.0 0.0 0.0 0.0
184 1 18.1784555289 55.3266508067 0.0 0.0 0.0 0.0
185 1 22.7840555289 57.9521508067 0.0 0.0 0.0 0.0
186 1 28.2733555289 56.2408508067 0.0 0.0 0.0 0.0
187 1 33.5392555289 55.4983508067 0.0 0.0 0.0 0.0
188 1 39.0007555289 55.6136508067 0.0 0.0 0.0 0.0
189 1 44.1415555289 55.9824508067 0.0 0.0 0.0 0.0
190 1 49.3384555289 55.6828508067 0.0 0.0 0.0 0.0
191 1 54.4219555289 55.4618508067 0.0 0.0 0.0 0.0
192 1 58.5944555289 53.8736508067 0.0 0.0 0.0 0.0
193 1 65.7015555289 55.3746508067 0.0 0.0 0.0 0.0
194 1 70.5144555289 55.5322508067 0.0 0.0 0.0 0.0
195 1 75.3913555289 55.3620508067 0.0 0.0 0.0 0.0
196 1 77.8096555289 59.8439508067 0.0 0.0 0.0 0.0
197 1 5.20875552886 59.7588508067 0.0 0.0 0.0 0.0
198 1 10.4235555289 60.0003508067 0.0 0.0 0.0 0.0
199 1 15.6999555289 60.0437508067 0.0 0.0 0.0 0.0
200 1 21.1084555289 60.4578508067 0.0 0.0 0.0 0.0
201 1 26.1495555289 60.9480508067 0.0 0.0 0.0 0.0
202 1 32.8817555289 59.6974508067 0.0 0.0 0.0 0.0
203 1 35.8897555289 59.7619508067 0.0 0.0 0.0 0.0
204 1 41.3186555289 60.3390508067 0.0 0.0 0.0 0.0
205 1 46.5775555289 60.3645508067 0.0 0.0 0.0 0.0
206 1 51.8880555289 60.2251508067 0.0 0.0 0.0 0.0
207 1 58.9466555289 59.0639508067 0.0 0.0 0.0 0.0
208 1 61.9755555289 59.2048508067 0.0 0.0 0.0 0.0
209 1 67.3466555289 60.1889508067 0.0 0.0 0.0 0.0
210 1 72.5830555289 60.2069508067 0.0 0.0 0.0 0.0
211 1 2.55602552886 63.8406508067 0.0 0.0 0.0 0.0
212 1 7.65454552886 64.4243508067 0.0 0.0 0.0 0.0
213 1 12.7980555289 64.5136508067 0.0 0.0 0.0 0.0
214 1 18.0316555289 64.5911508067 0.0 0.0 0.0 0.0
215 1 23.1645555289 65.2899508067 0.0 0.0 0.0 0.0
216 1 28.3138555289 65.6301508067 0.0 0.0 0.0 0.0
217 1 33.1073555289 64.9708508067 0.0 0.0 0.0 0.0
218 1 38.4291555289 64.3144508067 0.0 0.0 0.0 0.0
219 1 43.6314555289 64.8502508067 0.0 0.0 0.0 0.0
220 1 48.8053555289 64.7319508067 0.0 0.0 0.0 0.0
221 1 53.9911555289 64.8249508067 0.0 0.0 0.0 0.0
222 1 58.9244555289 64.3202508067 0.0 0.0 0.0 0.0
223 1 64.1936555289 64.0258508067 0.0 0.0 0.0 0.0
224 1 69.5799555289 64.7277508067 0.0 0.0 0.0 0.0
225 1 75.3793555289 64.5505508067 0.0 0.0 0.0 0.0
226 1 0.314133528857 68.3762508067 0.0 0.0 0.0 0.0
227 1 4.54470552886 70.9707508067 0.0 0.0 0.0 0.0
228 1 10.0304555289 69.0704508067 0.0 0.0 0.0 0.0
229 1 15.3984555289 69.0680508067 0.0 0.0 0.0 0.0
230 1 20.6518555289 69.4542508067 0.0 0.0 0.0 0.0
231 1 25.9521555289 69.9561508067 0.0 0.0 0.0 0.0
232 1 31.3668555289 70.0113508067 0.0 0.0 0.0 0.0
233 1 36.4693555289 68.9224508067 0.0 0.0 0.0 0.0
234 1 40.9596555289 71.3355508067 0.0 0.0 0.0 0.0
235 1 46.3219555289 69.3622508067 0.0 0.0 0.0 0.0
236 1 51.6022555289 69.3011508067 0.0 0.0 0.0 0.0
237 1 56.8767555289 69.2542508067 0.0 0.0 0.0 0.0
238 1 61.9849555289 68.6530508067 0.0 0.0 0.0 0.0
239 1 66.9959555289 68.6813508067 0.0 0.0 0.0 0.0
240 1 71.1883555289 67.2908508067 0.0 0.0 0.0 0.0
241 1 2.70829552886 73.3727508067 0.0 0.0 0.0 0.0
242 1 7.84039552886 73.8061508067 0.0 0.0 0.0 0.0
243 1 13.0565555289 73.4472508067 0.0 0.0 0.0 0.0
244 1 18.2462555289 73.7104508067 0.0 0.0 0.0 0.0
245 1 23.4884555289 74.0922508067 0.0 0.0 0.0 0.0
246 1 28.8580555289 74.2869508067 0.0 0.0 0.0 0.0
247 1 34.2112555289 73.9510508067 0.0 0.0 0.0 0.0
248 1 39.5366555289 73.9878508067 0.0 0.0 0.0 0.0
249 1 44.4546555289 74.2032508067 0.0 0.0 0.0 0.0
250 1 49.4717555289 73.7558508067 0.0 0.0 0.0 0.0
251 1 54.6085555289 73.7162508067 0.0 0.0 0.0 0.0
252 1 59.8490555289 73.5137508067 0.0 0.0 0.0 0.0
253 1 65.0775555289 73.3051508067 0.0 0.0 0.0 0.0
254 1 70.2960555289 72.9226508067 0.0 0.0 0.0 0.0
255 1 75.5630555289 72.8398508067 0.0 0.0 0.0 0.0
256 1 77.7570555289 2.65511080669 0.0 0.0 0.0 0.0
257 1 4.78989552886 2.35102080669 0.0 0.0 0.0 0.0
258 1 10.3288555289 2.28699080669 0.0 0.0 0.0 0.0
259 1 15.6979555289 2.91459080669 0.0 0.0 0.0 0.0
260 1 20.9972555289 3.08329080669 0.0 0.0 0.0 0.0
261 1 26.3177555289 3.24468080669 0.0 0.0 0.0 0.0
262 1 31.5596555289 3.44626080669 0.0 0.0 0.0 0.0
263 1 36.6755555289 3.44397080669 0.0 0.0 0.0 0.0
264 1 41.9094555289 3.42791080669 0.0 0.0 0.0 0.0
265 1 47.2085555289 3.46607080669 0.0 0.0 0.0 0.0
266 1 52.3706555289 3.35736080669 0.0 0.0 0.0 0.0
267 1 57.4870555289 2.97114080669 0.0 0.0 0.0 0.0
268 1 62.7051555289 2.64180080669 0.0 0.0 0.0 0.0
269 1 67.8278555289 2.98953080669 0.0 0.0 0.0 0.0
270 1 72.7895555289 2.90246080669 0.0 0.0 0.0 0.0
271 1 2.39110552886 6.99534080669 0.0 0.0 0.0 0.0
272 1 7.62034552886 6.62141080669 0.0 0.0 0.0 0.0
273 1 12.7900555289 6.94924080669 0.0 0.0 0.0 0.0
274 1 18.2790555289 7.33333080669 0.0 0.0 0.0 0.0
275 1 23.7177555289 7.44104080669 0.0 0.0 0.0 0.0
276 1 29.0803555289 7.78548080669 0.0 0.0 0.0 0.0
277 1 34.2825555289 8.14545080669 0.0 0.0 0.0 0.0
278 1 39.4320555289 7.84908080669 0.0 0.0 0.0 0.0
279 1 44.6611555289 7.97469080669 0.0 0.0 0.0 0.0
280 1 49.8361555289 8.02628080669 0.0 0.0 0.0 0.0
281 1 54.9394555289 7.91357080669 0.0 0.0 0.0 0.0
282 1 59.9155555289 7.32719080669 0.0 0.0 0.0 0.0
283 1 64.8384555289 7.41364080669 0.0 0.0 0.0 0.0
284 1 70.1852555289 7.53725080669 0.0 0.0 0.0 0.0
285 1 75.4398555289 7.38823080669 0.0 0.0 0.0 0.0
286 1 0.744235528857 11.5013508067 0.0 0.0 0.0 0.0
287 1 5.85849552886 11.4148508067 0.0 0.0 0.0 0.0
288 1 11.2205555289 9.50525080669 0.0 0.0 0.0 0.0
289 1 15.8174555289 11.8649508067 0.0 0.0 0.0 0.0
290 1 21.1372555289 11.6102508067 0.0 0.0 0.0 0.0
291 1 26.5556555289 11.8845508067 0.0 0.0 0.0 0.0
292 1 31.9315555289 12.3771508067 0.0 0.0 0.0 0.0
293 1 37.2922555289 12.6882508067 0.0 0.0 0.0 0.0
294 1 42.1757555289 12.4981508067 0.0 0.0 0.0 0.0
295 1 47.2137555289 12.7272508067 0.0 0.0 0.0 0.0
296 1 52.4507555289 12.3140508067 0.0 0.0 0.0 0.0
297 1 57.8324555289 12.3290508067 0.0 0.0 0.0 0.0
298 1 63.1418555289 9.93725080669 0.0 0.0 0.0 0.0
299 1 67.4857555289 12.1245508067 0.0 0.0 0.0 0.0
300 1 74.9626555289 13.0397508067 0.0 0.0 0.0 0.0
301 1 3.63716552886 16.0823508067 0.0 0.0 0.0 0.0
302 1 8.62825552886 16.1055508067 0.0 0.0 0.0 0.0
303 1 13.7142555289 16.2095508067 0.0 0.0 0.0 0.0
304 1 18.9792555289 16.2365508067 0.0 0.0 0.0 0.0
305 1 23.9582555289 16.2816508067 0.0 0.0 0.0 0.0
306 1 29.2067555289 16.4194508067 0.0 0.0 0.0 0.0
307 1 34.4082555289 17.2757508067 0.0 0.0 0.0 0.0
308 1 37.3596555289 17.9400508067 0.0 0.0 0.0 0.0
309 1 44.2010555289 17.3942508067 0.0 0.0 0.0 0.0
310 1 49.4954555289 16.9448508067 0.0 0.0 0.0 0.0
311 1 54.6857555289 16.6858508067 0.0 0.0 0.0 0.0
312 1 61.7260555289 17.9272508067 0.0 0.0 0.0 0.0
313 1 65.9622555289 16.8588508067 0.0 0.0 0.0 0.0
314 1 71.1598555289 15.8350508067 0.0 0.0 0.0 0.0
315 1 76.5564555289 15.6085508067 0.0 0.0 0.0 0.0
316 1 0.733905528857 20.3421508067 0.0 0.0 0.0 0.0
317 1 5.98956552886 20.7394508067 0.0 0.0 0.0 0.0
318 1 11.0610555289 20.7483508067 0.0 0.0 0.0 0.0
319 1 16.2038555289 20.6664508067 0.0 0.0 0.0 0.0
320 1 21.1910555289 21.0426508067 0.0 0.0 0.0 0.0
321 1 26.0424555289 20.9979508067 0.0 0.0 0.0 0.0
322 1 30.8093555289 21.3013508067 0.0 0.0 0.0 0.0
323 1 35.7322555289 22.2090508067 0.0 0.0 0.0 0.0
324 1 43.0802555289 23.1436508067 0.0 0.0 0.0 0.0
325 1 47.2138555289 21.6489508067 0.0 0.0 0.0 0.0
326 1 52.2316555289 21.5778508067 0.0 0.0 0.0 0.0
327 1 57.3824555289 20.7811508067 0.0 0.0 0.0 0.0
328 1 63.1838555289 20.5719508067 0.0 0.0 0.0 0.0
329 1 68.9596555289 20.7070508067 0.0 0.0 0.0 0.0
330 1 73.9771555289 20.2745508067 0.0 0.0 0.0 0.0
331 1 3.13970552886 25.0909508067 0.0 0.0 0.0 0.0
332 1 8.08415552886 25.7417508067 0.0 0.0 0.0 0.0
333 1 11.0765555289 25.9310508067 0.0 0.0 0.0 0.0
334 1 18.0010555289 25.3141508067 0.0 0.0 0.0 0.0
335 1 23.1963555289 25.6828508067 0.0 0.0 0.0 0.0
336 1 28.0805555289 25.7354508067 0.0 0.0 0.0 0.0
337 1 32.9709555289 26.2432508067 0.0 0.0 0.0 0.0
338 1 38.6803555289 26.0122508067 0.0 0.0 0.0 0.0
339 1 44.6868555289 25.7234508067 0.0 0.0 0.0 0.0
340 1 50.0316555289 26.3129508067 0.0 0.0 0.0 0.0
341 1 55.2541555289 25.8409508067 0.0 0.0 0.0 0.0
342 1 60.3022555289 25.0330508067 0.0 0.0 0.0 0.0
343 1 65.7014555289 24.8282508067 0.0 0.0 0.0 0.0
344 1 71.2223555289 24.9338508067 0.0 0.0 0.0 0.0
345 1 76.3152555289 24.8452508067 0.0 0.0 0.0 0.0
346 1 0.302466528857 29.6393508067 0.0 0.0 0.0 0.0
347 1 5.09342552886 30.1086508067 0.0 0.0 0.0 0.0
348 1 10.2265555289 30.3914508067 0.0 0.0 0.0 0.0
349 1 15.3183555289 29.7430508067 0.0 0.0 0.0 0.0
350 1 20.6184555289 29.7177508067 0.0 0.0 0.0 0.0
351 1 25.9355555289 30.3721508067 0.0 0.0 0.0 0.0
352 1 31.4498555289 28.8283508067 0.0 0.0 0.0 0.0
353 1 36.4091555289 30.7138508067 0.0 0.0 0.0 0.0
354 1 41.8282555289 30.0692508067 0.0 0.0 0.0 0.0
355 1 47.2200555289 30.3133508067 0.0 0.0 0.0 0.0
356 1 52.7408555289 30.8863508067 0.0 0.0 0.0 0.0
357 1 57.9350555289 29.7640508067 0.0 0.0 0.0 0.0
358 1 63.1820555289 29.3085508067 0.0 0.0 0.0 0.0
359 1 68.3536555289 29.4438508067 0.0 0.0 0.0 0.0
360 1 73.5748555289 29.4029508067 0.0 0.0 0.0 0.0
361 1 2.66221552886 34.5494508067 0.0 0.0 0.0 0.0
362 1 7.76679552886 34.7977508067 0.0 0.0 0.0 0.0
363 1 13.1058555289 34.6863508067 0.0 0.0 0.0 0.0
364 1 18.0689555289 34.1138508067 0.0 0.0 0.0 0.0
365 1 23.1914555289 34.4285508067 0.0 0.0 0.0 0.0
366 1 28.7662555289 34.7059508067 0.0 0.0 0.0 0.0
367 1 34.1268555289 35.1545508067 0.0 0.0 0.0 0.0
368 1 39.5642555289 34.8086508067 0.0 0.0 0.0 0.0
369 1 44.6592555289 34.6286508067 0.0 0.0 0.0 0.0
370 1 49.9547555289 34.9867508067 0.0 0.0 0.0 0.0
371 1 57.7777555289 35.6247508067 0.0 0.0 0.0 0.0
372 1 61.2897555289 33.8642508067 0.0 0.0 0.0 0.0
373 1 65.9665555289 34.3532508067 0.0 0.0 0.0 0.0
374 1 70.9415555289 33.8963508067 0.0 0.0 0.0 0.0
375 1 75.9929555289 34.1397508067 0.0 0.0 0.0 0.0
376 1 0.092585528857 39.0292508067 0.0 0.0 0.0 0.0
377 1 5.24809552886 39.1665508067 0.0 0.0 0.0 0.0
378 1 10.6273555289 39.1110508067 0.0 0.0 0.0 0.0
379 1 16.0635555289 38.8486508067 0.0 0.0 0.0 0.0
380 1 21.5263555289 36.9441508067 0.0 0.0 0.0 0.0
381 1 25.9947555289 39.4855508067 0.0 0.0 0.0 0.0
382 1 31.0512555289 39.2609508067 0.0 0.0 0.0 0.0
383 1 36.6249555289 39.3000508067 0.0 0.0 0.0 0.0
384 1 41.9429555289 39.1385508067 0.0 0.0 0.0 0.0
385 1 47.0630555289 39.3542508067 0.0 0.0 0.0 0.0
386 1 52.0818555289 39.9579508067 0.0 0.0 0.0 0.0
387 1 55.0348555289 39.3330508067 0.0 0.0 0.0 0.0
388 1 62.8510555289 38.7841508067 0.0 0.0 0.0 0.0
389 1 68.2994555289 38.6067508067 0.0 0.0 0.0 0.0
390 1 73.3197555289 38.4705508067 0.0 0.0 0.0 0.0
391 1 2.39805552886 43.4770508067 0.0 0.0 0.0 0.0
392 1 7.81200552886 43.5166508067 0.0 0.0 0.0 0.0
393 1 13.2250555289 43.3534508067 0.0 0.0 0.0 0.0
394 1 18.5165555289 43.2429508067 0.0 0.0 0.0 0.0
395 1 23.6005555289 43.9885508067 0.0 0.0 0.0 0.0
396 1 28.7381555289 44.0622508067 0.0 0.0 0.0 0.0
397 1 33.7340555289 43.7989508067 0.0 0.0 0.0 0.0
398 1 39.0163555289 43.6433508067 0.0 0.0 0.0 0.0
399 1 44.2058555289 43.6478508067 0.0 0.0 0.0 0.0
400 1 49.2472555289 44.3106508067 0.0 0.0 0.0 0.0
401 1 54.7283555289 44.0868508067 0.0 0.0 0.0 0.0
402 1 59.6375555289 43.0367508067 0.0 0.0 0.0 0.0
403 1 65.0116555289 43.4577508067 0.0 0.0 0.0 0.0
404 1 68.0473555289 43.6731508067 0.0 0.0 0.0 0.0
405 1 75.2362555289 43.2202508067 0.0 0.0 0.0 0.0
406 1 77.8272555289 47.7639508067 0.0 0.0 0.0 0.0
407 1 4.96922552886 47.9114508067 0.0 0.0 0.0 0.0
408 1 10.3089555289 47.9315508067 0.0 0.0 0.0 0.0
409 1 15.5036555289 47.7957508067 0.0 0.0 0.0 0.0
410 1 20.5473555289 47.9346508067 0.0 0.0 0.0 0.0
411 1 25.8367555289 48.7211508067 0.0 0.0 0.0 0.0
412 1 30.9606555289 48.4847508067 0.0 0.0 0.0 0.0
413 1 36.1309555289 48.1459508067 0.0 0.0 0.0 0.0
414 1 41.2585555289 48.2279508067 0.0 0.0 0.0 0.0
415 1 46.1776555289 48.4253508067 0.0 0.0 0.0 0.0
416 1 53.3387555289 49.6960508067 0.0 0.0 0.0 0.0
417 1 57.7096555289 48.1663508067 0.0 0.0 0.0 0.0
418 1 62.2639555289 47.9642508067 0.0 0.0 0.0 0.0
419 1 67.4754555289 47.9673508067 0.0 0.0 0.0 0.0
420 1 72.5075555289 47.5818508067 0.0 0.0 0.0 0.0
421 1 2.33183552886 52.3258508067 0.0 0.0 0.0 0.0
422 1 7.61577552886 52.4274508067 0.0 0.0 0.0 0.0
423 1 12.7836555289 52.5536508067 0.0 0.0 0.0 0.0
424 1 17.7874555289 52.3507508067 0.0 0.0 0.0 0.0
425 1 22.7429555289 52.8376508067 0.0 0.0 0.0 0.0
426 1 28.1471555289 53.2289508067 0.0 0.0 0.0 0.0
427 1 33.4092555289 52.5119508067 0.0 0.0 0.0 0.0
428 1 38.6906555289 52.6311508067 0.0 0.0 0.0 0.0
429 1 43.7563555289 53.0046508067 0.0 0.0 0.0 0.0
430 1 49.0257555289 52.6745508067 0.0 0.0 0.0 0.0
431 1 54.5926555289 52.4323508067 0.0 0.0 0.0 0.0
432 1 61.5665555289 53.6238508067 0.0 0.0 0.0 0.0
433 1 65.5206555289 52.3748508067 0.0 0.0 0.0 0.0
434 1 70.6505555289 52.5157508067 0.0 0.0 0.0 0.0
435 1 75.4150555289 52.3363508067 0.0 0.0 0.0 0.0
436 1 78.0183555289 56.8341508067 0.0 0.0 0.0 0.0
437 1 5.06297552886 56.7517508067 0.0 0.0 0.0 0.0
438 1 10.3719555289 56.9829508067 0.0 0.0 0.0 0.0
439 1 15.6825555289 57.0237508067 0.0 0.0 0.0 0.0
440 1 21.1906555289 55.4156508067 0.0 0.0 0.0 0.0
441 1 25.8004555289 57.9702508067 0.0 0.0 0.0 0.0
442 1 31.1132555289 57.2641508067 0.0 0.0 0.0 0.0
443 1 36.2470555289 56.7923508067 0.0 0.0 0.0 0.0
444 1 41.4632555289 57.3385508067 0.0 0.0 0.0 0.0
445 1 46.8211555289 57.3553508067 0.0 0.0 0.0 0.0
446 1 51.9489555289 57.1987508067 0.0 0.0 0.0 0.0
447 1 57.2365555289 56.5590508067 0.0 0.0 0.0 0.0
448 1 62.8688555289 56.3323508067 0.0 0.0 0.0 0.0
449 1 68.0407555289 57.2509508067 0.0 0.0 0.0 0.0
450 1 73.0048555289 57.2126508067 0.0 0.0 0.0 0.0
451 1 2.39994552886 60.8498508067 0.0 0.0 0.0 0.0
452 1 7.74719552886 61.4040508067 0.0 0.0 0.0 0.0
453 1 13.0470555289 61.5003508067 0.0 0.0 0.0 0.0
454 1 18.3017555289 61.5808508067 0.0 0.0 0.0 0.0
455 1 23.4714555289 62.3091508067 0.0 0.0 0.0 0.0
456 1 28.6141555289 62.6525508067 0.0 0.0 0.0 0.0
457 1 31.5949555289 62.3880508067 0.0 0.0 0.0 0.0
458 1 38.4682555289 61.3172508067 0.0 0.0 0.0 0.0
459 1 43.9353555289 61.8458508067 0.0 0.0 0.0 0.0
460 1 49.2621555289 61.7442508067 0.0 0.0 0.0 0.0
461 1 54.4381555289 61.8519508067 0.0 0.0 0.0 0.0
462 1 57.4554555289 61.6801508067 0.0 0.0 0.0 0.0
463 1 64.4205555289 61.0121508067 0.0 0.0 0.0 0.0
464 1 69.9574555289 61.7265508067 0.0 0.0 0.0 0.0
465 1 75.2923555289 61.5337508067 0.0 0.0 0.0 0.0
466 1 78.2483555289 65.3960508067 0.0 0.0 0.0 0.0
467 1 4.91684552886 65.6890508067 0.0 0.0 0.0 0.0
468 1 10.1942555289 66.0515508067 0.0 0.0 0.0 0.0
469 1 15.3929555289 66.0517508067 0.0 0.0 0.0 0.0
470 1 20.4012555289 66.4555508067 0.0 0.0 0.0 0.0
471 1 25.6437555289 66.9762508067 0.0 0.0 0.0 0.0
472 1 30.9530555289 67.0469508067 0.0 0.0 0.0 0.0
473 1 35.9284555289 65.9704508067 0.0 0.0 0.0 0.0
474 1 40.8678555289 66.0662508067 0.0 0.0 0.0 0.0
475 1 46.2492555289 66.3446508067 0.0 0.0 0.0 0.0
476 1 51.3736555289 66.3018508067 0.0 0.0 0.0 0.0
477 1 56.6312555289 66.2610508067 0.0 0.0 0.0 0.0
478 1 61.6450555289 65.6422508067 0.0 0.0 0.0 0.0
479 1 66.7218555289 65.6780508067 0.0 0.0 0.0 0.0
480 1 74.1944555289 67.3297508067 0.0 0.0 0.0 0.0
481 1 3.31946552886 68.2444508067 0.0 0.0 0.0 0.0
482 1 7.56039552886 70.8201508067 0.0 0.0 0.0 0.0
483 1 12.7193555289 70.4523508067 0.0 0.0 0.0 0.0
484 1 17.9260555289 70.7193508067 0.0 0.0 0.0 0.0
485 1 23.1775555289 71.1043508067 0.0 0.0 0.0 0.0
486 1 28.6485555289 71.2952508067 0.0 0.0 0.0 0.0
487 1 34.2280555289 70.9427508067 0.0 0.0 0.0 0.0
488 1 39.4738555289 68.7369508067 0.0 0.0 0.0 0.0
489 1 43.9665555289 71.2436508067 0.0 0.0 0.0 0.0
490 1 48.9836555289 70.7842508067 0.0 0.0 0.0 0.0
491 1 54.2565555289 70.7292508067 0.0 0.0 0.0 0.0
492 1 59.6109555289 70.5088508067 0.0 0.0 0.0 0.0
493 1 64.4927555289 70.3403508067 0.0 0.0 0.0 0.0
494 1 69.7361555289 69.9378508067 0.0 0.0 0.0 0.0
495 1 75.9214555289 69.8213508067 0.0 0.0 0.0 0.0
496 1 78.1267555289 74.4644508067 0.0 0.0 0.0 0.0
497 1 5.14051552886 75.1360508067 0.0 0.0 0.0 0.0
498 1 10.5463555289 75.0980508067 0.0 0.0 0.0 0.0
499 1 15.5808555289 75.0894508067 0.0 0.0 0.0 0.0
500 1 20.7669555289 75.3618508067 0.0 0.0 0.0 0.0
501 1 26.1279555289 75.5490508067 0.0 0.0 0.0 0.0
502 1 31.6181555289 75.4934508067 0.0 0.0 0.0 0.0
503 1 36.8612555289 75.3738508067 0.0 0.0 0.0 0.0
504 1 41.9197555289 75.8069508067 0.0 0.0 0.0 0.0
505 1 47.1046555289 75.5990508067 0.0 0.0 0.0 0.0
506 1 52.0546555289 75.2977508067 0.0 0.0 0.0 0.0
507 1 57.2843555289 75.0960508067 0.0 0.0 0.0 0.0
508 1 62.5238555289 74.9093508067 0.0 0.0 0.0 0.0
509 1 67.7979555289 74.6408508067 0.0 0.0 0.0 0.0
510 1 72.9501555289 74.3991508067 0.0 0.0 0.0 0.0
511 1 4.88485552886 78.1208508067 0.0 0.0 0.0 0.0
512 1 10.4063555289 78.0947508067 0.0 0.0 0.0 0.0
513 1 15.7780555289 78.0894508067 0.0 0.0 0.0 0.0
514 1 20.9961555289 78.3592508067 0.0 0.0 0.0 0.0
515 1 26.2762555289 78.5507508067 0.0 0.0 0.0 0.0
516 1 31.5274555289 78.5019508067 0.0 0.0 0.0 0.0
517 1 36.6853555289 78.3835508067 0.0 0.0 0.0 0.0
518 1 41.8720555289 78.8037508067 0.0 0.0 0.0 0.0
519 1 47.1043555289 78.6009508067 0.0 0.0 0.0 0.0
520 1 52.2302555289 78.3015508067 0.0 0.0 0.0 0.0
521 1 57.4073555289 78.1042508067 0.0 0.0 0.0 0.0
522 1 62.6992555289 77.9195508067 0.0 0.0 0.0 0.0
523 1 67.8753555289 77.6730508067 0.0 0.0 0.0 0.0
524 1 72.8224555289 77.4443508067 0.0 0.0 0.0 0.0
525 1 77.8402555289 77.4868508067 0.0 0.0 0.0 0.0
526 1 2.07327552886 79.1993508067 0.0 0.0 0.0 0.0
527 1 7.64949552886 79.3009508067 0.0 0.0 0.0 0.0
528 1 13.0956555289 79.4394508067 0.0 0.0 0.0 0.0
529 1 18.3144555289 79.7130508067 0.0 0.0 0.0 0.0
530 1 23.5876555289 79.8951508067 0.0 0.0 0.0 0.0
531 1 28.9162555289 80.0014508067 0.0 0.0 0.0 0.0
532 1 34.1392555289 79.9935508067 0.0 0.0 0.0 0.0
533 1 39.1612555289 80.0933508067 0.0 0.0 0.0 0.0
534 1 44.5439555289 80.1726508067 0.0 0.0 0.0 0.0
535 1 49.7563555289 80.0093508067 0.0 0.0 0.0 0.0
536 1 54.8747555289 79.7333508067 0.0 0.0 0.0 0.0
537 1 60.1002555289 79.4485508067 0.0 0.0 0.0 0.0
538 1 65.3596555289 79.3481508067 0.0 0.0 0.0 0.0
539 1 70.4226555289 79.3043508067 0.0 0.0 0.0 0.0
540 1 75.3138555289 79.1610508067 0.0 0.0 0.0 0.0
541 2 2.03314552886 80.7056508067 0.0 0.0 0.0 0.0
542 2 3.43681552886 1.69613080669 0.0 0.0 0.0 0.0
543 2 0.793535528857 1.87030080669 0.0 0.0 0.0 0.0
544 2 7.60193552886 80.7974508067 0.0 0.0 0.0 0.0
545 2 6.17037552886 1.74892080669 0.0 0.0 0.0 0.0
546 2 8.94049552886 1.71671080669 0.0 0.0 0.0 0.0
547 2 13.1597555289 80.9364508067 0.0 0.0 0.0 0.0
548 2 14.4245555289 2.10867080669 0.0 0.0 0.0 0.0
549 2 11.7390555289 1.77661080669 0.0 0.0 0.0 0.0
550 2 17.0490555289 2.25393080669 0.0 0.0 0.0 0.0
551 2 19.6951555289 2.32649080669 0.0 0.0 0.0 0.0
552 2 18.3471555289 0.0711688066944 0.0 0.0 0.0 0.0
553 2 23.6396555289 0.253331806694 0.0 0.0 0.0 0.0
554 2 25.0046555289 2.50462080669 0.0 0.0 0.0 0.0
555 2 22.3486555289 2.42399080669 0.0 0.0 0.0 0.0
556 2 28.9639555289 0.361742806694 0.0 0.0 0.0 0.0
557 2 30.2677555289 2.66822080669 0.0 0.0 0.0 0.0
558 2 27.6496555289 2.54688080669 0.0 0.0 0.0 0.0
559 2 34.1350555289 0.355680806694 0.0 0.0 0.0 0.0
560 2 35.3988555289 2.65108080669 0.0 0.0 0.0 0.0
561 2 32.8339555289 2.64416080669 0.0 0.0 0.0 0.0
562 2 39.2052555289 0.451720806694 0.0 0.0 0.0 0.0
563 2 40.6005555289 2.68666080669 0.0 0.0 0.0 0.0
564 2 37.9860555289 2.70624080669 0.0 0.0 0.0 0.0
565 2 44.5686555289 0.528310806694 0.0 0.0 0.0 0.0
566 2 45.8829555289 2.75661080669 0.0 0.0 0.0 0.0
567 2 43.2369555289 2.72290080669 0.0 0.0 0.0 0.0
568 2 49.7637555289 0.367679806694 0.0 0.0 0.0 0.0
569 2 51.0591555289 2.61945080669 0.0 0.0 0.0 0.0
570 2 48.4786555289 2.66234080669 0.0 0.0 0.0 0.0
571 2 54.8339555289 0.0934718066944 0.0 0.0 0.0 0.0
572 2 56.1566555289 2.27157080669 0.0 0.0 0.0 0.0
573 2 53.5947555289 2.47951080669 0.0 0.0 0.0 0.0
574 2 60.0415555289 80.9531508067 0.0 0.0 0.0 0.0
575 2 61.3629555289 1.96205080669 0.0 0.0 0.0 0.0
576 2 58.7516555289 2.15108080669 0.0 0.0 0.0 0.0
577 2 65.3861555289 80.8605508067 0.0 0.0 0.0 0.0
578 2 64.0300555289 1.92902080669 0.0 0.0 0.0 0.0
579 2 66.5903555289 2.11392080669 0.0 0.0 0.0 0.0
580 2 70.3595555289 80.8270508067 0.0 0.0 0.0 0.0
581 2 71.5334555289 2.06023080669 0.0 0.0 0.0 0.0
582 2 69.0590555289 2.10156080669 0.0 0.0 0.0 0.0
583 2 75.2436555289 80.6808508067 0.0 0.0 0.0 0.0
584 2 76.4814555289 1.85238080669 0.0 0.0 0.0 0.0
585 2 73.9958555289 1.98318080669 0.0 0.0 0.0 0.0
586 2 77.8320555289 4.16464080669 0.0 0.0 0.0 0.0
587 2 1.02660552886 6.35465080669 0.0 0.0 0.0 0.0
588 2 76.6786555289 6.51884080669 0.0 0.0 0.0 0.0
589 2 4.83293552886 3.85273080669 0.0 0.0 0.0 0.0
590 2 6.26190552886 5.98938080669 0.0 0.0 0.0 0.0
591 2 3.63428552886 6.14485080669 0.0 0.0 0.0 0.0
592 2 10.3205555289 3.78429080669 0.0 0.0 0.0 0.0
593 2 11.5908555289 6.03792080669 0.0 0.0 0.0 0.0
594 2 8.94692552886 5.91697080669 0.0 0.0 0.0 0.0
595 2 15.6558555289 4.41647080669 0.0 0.0 0.0 0.0
596 2 16.9405555289 6.64055080669 0.0 0.0 0.0 0.0
597 2 14.2254555289 6.50390080669 0.0 0.0 0.0 0.0
598 2 21.0040555289 4.58540080669 0.0 0.0 0.0 0.0