# input file

1350 atoms
2 atom types

0.0 77.7947130179 xlo xhi
0.0 81.4552444037 ylo yhi
-10.0 10.0 zlo zhi
0.0 0.0 0.0 xy xz yz

Masses

1 28.0855 #Si
2 15.9994 #O

Atoms

1 1 2.61415428582 1.73318220184 0.0
2 1 7.53589428582 1.54277220184 0.0
3 1 12.5856942858 1.75052220184 0.0
4 1 17.4809942858 1.33258220184 0.0
5 1 22.9855942858 1.40916220184 0.0
6 1 29.1518942858 1.57890220184 0.0
7 1 34.3809942858 0.698862201836 0.0
8 1 38.7451942858 3.20494220184 0.0
9 1 43.9609942858 0.924082201836 0.0
10 1 48.9312942858 1.00062220184 0.0
11 1 54.0407942858 0.691622201836 0.0
12 1 59.5011942858 1.26992220184 0.0
13 1 64.8514942858 2.01370220184 0.0
14 1 70.1378942858 2.75479220184 0.0
15 1 75.4800942858 2.05526220184 0.0
16 1 0.270270285821 6.59181220184 0.0
17 1 5.10297428582 6.35878220184 0.0
18 1 10.1020942858 6.24560220184 0.0
19 1 15.3989942858 6.23445220184 0.0
20 1 20.2785942858 5.60132220184 0.0
21 1 24.6405942858 3.95671220184 0.0
22 1 31.9522942858 5.61485220184 0.0
23 1 37.2840942858 5.86849220184 0.0
24 1 42.2374942858 6.03365220184 0.0
25 1 47.1168942858 5.63220220184 0.0
26 1 52.3755942858 5.29618220184 0.0
27 1 56.7267942858 7.70092220184 0.0
28 1 61.9175942858 6.01157220184 0.0
29 1 67.2420942858 6.72286220184 0.0
30 1 73.0020942858 6.68259220184 0.0
31 1 2.81513428582 11.2588222018 0.0
32 1 7.74682428582 10.9523222018 0.0
33 1 12.9357942858 10.6241222018 0.0
34 1 18.0347942858 10.6409222018 0.0
35 1 23.2722942858 9.60652220184 0.0
36 1 28.5817942858 9.86432220184 0.0
37 1 34.0489942858 10.1848222018 0.0
38 1 39.5881942858 10.6853222018 0.0
39 1 45.0188942858 10.6161222018 0.0
40 1 50.2124942858 9.92522220184 0.0
41 1 55.5402942858 10.4666222018 0.0
42 1 60.1434942858 11.0381222018 0.0
43 1 64.7132942858 10.6852222018 0.0
44 1 70.2265942858 10.5076222018 0.0
45 1 75.5717942858 11.2438222018 0.0
46 1 0.529544285821 15.8820222018 0.0
47 1 5.92358428582 15.7723222018 0.0
48 1 11.1452942858 15.1917222018 0.0
49 1 16.0878942858 17.2533222018 0.0
50 1 21.2740942858 14.5249222018 0.0
51 1 25.7561942858 16.5006222018 0.0
52 1 31.2460942858 14.4328222018 0.0
53 1 36.7088942858 14.6846222018 0.0
54 1 42.2105942858 15.0307222018 0.0
55 1 49.3792942858 14.3682222018 0.0
56 1 52.4018942858 14.5545222018 0.0
57 1 57.6025942858 15.6570222018 0.0
58 1 63.0189942858 15.7744222018 0.0
59 1 68.1402942858 14.6759222018 0.0
60 1 72.7274942858 17.2312222018 0.0
61 1 3.52454428582 20.1788222018 0.0
62 1 8.94912428582 19.9792222018 0.0
63 1 14.4474942858 19.8225222018 0.0
64 1 19.3468942858 19.7401222018 0.0
65 1 24.3251942858 19.1853222018 0.0
66 1 29.3008942858 19.1718222018 0.0
67 1 34.2471942858 18.8908222018 0.0
68 1 39.1843942858 19.1439222018 0.0
69 1 44.2448942858 19.7122222018 0.0
70 1 49.2705942858 19.4884222018 0.0
71 1 54.7393942858 19.5634222018 0.0
72 1 60.1775942858 20.0860222018 0.0
73 1 67.6801942858 19.1314222018 0.0
74 1 70.6996942858 19.4549222018 0.0
75 1 75.9024942858 20.3984222018 0.0
76 1 0.626154285821 24.6025222018 0.0
77 1 5.98829428582 24.4245222018 0.0
78 1 11.2571942858 24.2112222018 0.0
79 1 16.4854942858 24.5364222018 0.0
80 1 21.5472942858 24.1632222018 0.0
81 1 26.6200942858 23.8389222018 0.0
82 1 31.7255942858 23.7233222018 0.0
83 1 36.5154942858 23.7579222018 0.0
84 1 41.5565942858 24.0211222018 0.0
85 1 46.8336942858 24.2404222018 0.0
86 1 52.0891942858 23.8482222018 0.0
87 1 57.2911942858 24.1590222018 0.0
88 1 62.4867942858 24.7211222018 0.0
89 1 67.4386942858 23.9002222018 0.0
90 1 73.0196942858 24.3437222018 0.0
91 1 2.93655428582 28.8914222018 0.0
92 1 8.22442428582 28.8044222018 0.0
93 1 13.3910942858 28.8861222018 0.0
94 1 18.6381942858 28.9864222018 0.0
95 1 25.5712942858 28.2711222018 0.0
96 1 28.5788942858 28.2834222018 0.0
97 1 33.5432942858 28.5220222018 0.0
98 1 38.7039942858 28.5185222018 0.0
99 1 44.0108942858 28.5668222018 0.0
100 1 49.3439942858 28.4965222018 0.0
101 1 54.5452942858 28.5405222018 0.0
102 1 59.6868942858 28.9446222018 0.0
103 1 66.9686942858 28.3936222018 0.0
104 1 69.9744942858 28.2276222018 0.0
105 1 75.3255942858 28.7995222018 0.0
106 1 77.7020942858 33.2011222018 0.0
107 1 5.22977428582 33.3165222018 0.0
108 1 10.4229942858 33.4217222018 0.0
109 1 15.3285942858 33.4046222018 0.0
110 1 20.4447942858 33.7910222018 0.0
111 1 25.5426942858 33.4392222018 0.0
112 1 30.7174942858 33.1127222018 0.0
113 1 35.8236942858 33.0672222018 0.0
114 1 41.1239942858 32.9530222018 0.0
115 1 46.4703942858 32.9226222018 0.0
116 1 51.7368942858 33.0344222018 0.0
117 1 56.7546942858 33.3048222018 0.0
118 1 61.6282942858 33.6751222018 0.0
119 1 66.7475942858 33.2757222018 0.0
120 1 72.4194942858 32.8941222018 0.0
121 1 2.21946428582 37.6902222018 0.0
122 1 7.62793428582 37.9279222018 0.0
123 1 12.7086942858 38.2043222018 0.0
124 1 17.5759942858 38.1581222018 0.0
125 1 23.3363942858 38.1726222018 0.0
126 1 28.4308942858 37.8340222018 0.0
127 1 33.2292942858 37.7157222018 0.0
128 1 38.3999942858 37.4330222018 0.0
129 1 43.5713942858 37.3048222018 0.0
130 1 48.9115942858 37.4212222018 0.0
131 1 54.0493942858 37.8271222018 0.0
132 1 59.2024942858 38.2359222018 0.0
133 1 64.2780942858 38.0066222018 0.0
134 1 69.6942942858 37.0792222018 0.0
135 1 74.8839942858 37.5290222018 0.0
136 1 77.2573942858 42.2140222018 0.0
137 1 4.49701428582 42.1270222018 0.0
138 1 9.81179428582 42.7098222018 0.0
139 1 15.4308942858 42.9900222018 0.0
140 1 20.5551942858 42.0056222018 0.0
141 1 25.9490942858 42.6073222018 0.0
142 1 31.0903942858 42.6318222018 0.0
143 1 36.2409942858 42.0928222018 0.0
144 1 40.9174942858 41.8965222018 0.0
145 1 45.9065942858 41.7131222018 0.0
146 1 50.8448942858 42.1302222018 0.0
147 1 56.2491942858 42.5484222018 0.0
148 1 62.6192942858 42.6158222018 0.0
149 1 67.8403942858 41.6413222018 0.0
150 1 72.0193942858 44.2431222018 0.0
151 1 2.13536428582 46.8275222018 0.0
152 1 6.94375428582 46.7745222018 0.0
153 1 11.1957942858 45.3960222018 0.0
154 1 19.8440942858 46.4874222018 0.0
155 1 22.8329942858 46.5246222018 0.0
156 1 26.9225942858 45.4587222018 0.0
157 1 33.8474942858 46.8667222018 0.0
158 1 38.9517942858 46.8788222018 0.0
159 1 43.7169942858 46.4467222018 0.0
160 1 48.1521942858 48.8124222018 0.0
161 1 53.5665942858 46.6035222018 0.0
162 1 58.0472942858 44.9502222018 0.0
163 1 65.5389942858 46.4976222018 0.0
164 1 70.5738942858 46.8779222018 0.0
165 1 75.2170942858 47.2165222018 0.0
166 1 77.5477942858 51.8513222018 0.0
167 1 4.62306428582 51.5907222018 0.0
168 1 9.64129428582 51.0182222018 0.0
169 1 14.9667942858 51.4546222018 0.0
170 1 19.8923942858 51.6769222018 0.0
171 1 25.5650942858 51.0814222018 0.0
172 1 30.7258942858 51.1786222018 0.0
173 1 35.7508942858 51.3954222018 0.0
174 1 41.2044942858 51.5004222018 0.0
175 1 47.0750942858 51.6118222018 0.0
176 1 52.1922942858 51.1059222018 0.0
177 1 57.3268942858 50.3510222018 0.0
178 1 62.5419942858 50.6169222018 0.0
179 1 67.5241942858 51.2799222018 0.0
180 1 72.5099942858 51.9158222018 0.0
181 1 2.16131428582 56.4762222018 0.0
182 1 6.85646428582 55.9158222018 0.0
183 1 12.0414942858 55.5881222018 0.0
184 1 17.7287942858 56.2864222018 0.0
185 1 22.8523942858 55.3838222018 0.0
186 1 28.0486942858 55.7470222018 0.0
187 1 33.5824942858 55.9655222018 0.0
188 1 38.7344942858 55.6872222018 0.0
189 1 42.5373942858 54.2130222018 0.0
190 1 49.3779942858 55.8232222018 0.0
191 1 54.5084942858 55.1555222018 0.0
192 1 59.9099942858 54.9645222018 0.0
193 1 64.7465942858 55.5993222018 0.0
194 1 69.6931942858 56.2320222018 0.0
195 1 74.8642942858 56.5122222018 0.0
196 1 77.3351942858 61.0962222018 0.0
197 1 4.78921428582 61.0611222018 0.0
198 1 10.9958942858 59.8377222018 0.0
199 1 13.4929942858 58.2024222018 0.0
200 1 20.4057942858 60.3064222018 0.0
201 1 25.3169942858 60.0530222018 0.0
202 1 29.3516942858 58.4776222018 0.0
203 1 36.6424942858 60.3251222018 0.0
204 1 41.6381942858 60.0523222018 0.0
205 1 46.2918942858 59.9993222018 0.0
206 1 51.2577942858 59.8469222018 0.0
207 1 56.6693942858 59.2686222018 0.0
208 1 61.8754942858 60.0276222018 0.0
209 1 66.7780942858 60.5903222018 0.0
210 1 72.1077942858 60.9006222018 0.0
211 1 1.86089428582 65.5708222018 0.0
212 1 7.02565428582 65.8155222018 0.0
213 1 12.0467942858 65.1508222018 0.0
214 1 17.5186942858 64.6690222018 0.0
215 1 23.0007942858 64.8845222018 0.0
216 1 28.3204942858 64.2350222018 0.0
217 1 33.6175942858 64.3532222018 0.0
218 1 39.0852942858 64.8895222018 0.0
219 1 44.1468942858 64.9883222018 0.0
220 1 48.9203942858 64.6306222018 0.0
221 1 54.1980942858 63.7685222018 0.0
222 1 58.0210942858 66.2262222018 0.0
223 1 63.7058942858 65.0178222018 0.0
224 1 69.3682942858 65.1445222018 0.0
225 1 74.5597942858 65.5035222018 0.0
226 1 77.0307942858 70.1685222018 0.0
227 1 4.62785428582 70.2176222018 0.0
228 1 10.0478942858 70.0790222018 0.0
229 1 15.1450942858 69.1823222018 0.0
230 1 20.5814942858 69.0400222018 0.0
231 1 25.8059942858 68.9712222018 0.0
232 1 30.8217942858 68.7788222018 0.0
233 1 36.0338942858 68.9064222018 0.0
234 1 41.4739942858 69.6350222018 0.0
235 1 47.4902942858 69.5941222018 0.0
236 1 52.5949942858 68.4504222018 0.0
237 1 57.1908942858 70.5461222018 0.0
238 1 61.9607942858 71.3613222018 0.0
239 1 67.1892942858 69.0471222018 0.0
240 1 72.1643942858 69.8521222018 0.0
241 1 2.08360428582 74.5385222018 0.0
242 1 7.66154428582 74.4581222018 0.0
243 1 13.1523942858 74.1693222018 0.0
244 1 18.3114942858 73.3881222018 0.0
245 1 23.5390942858 73.5285222018 0.0
246 1 28.2763942858 73.5815222018 0.0
247 1 33.3252942858 73.3841222018 0.0
248 1 38.7074942858 73.5126222018 0.0
249 1 43.0223942858 72.2507222018 0.0
250 1 50.4709942858 73.5486222018 0.0
251 1 55.7296942858 73.1728222018 0.0
252 1 60.5851942858 74.0033222018 0.0
253 1 65.3995942858 73.8967222018 0.0
254 1 68.7909942858 76.8271222018 0.0
255 1 74.2730942858 74.8060222018 0.0
256 1 0.258948285821 3.58816220184 0.0
257 1 5.13855428582 3.34984220184 0.0
258 1 9.99609428582 3.24987220184 0.0
259 1 15.1811942858 3.24974220184 0.0
260 1 20.2131942858 2.58844220184 0.0
261 1 27.6511942858 4.22016220184 0.0
262 1 32.0074942858 2.58490220184 0.0
263 1 37.4076942858 0.503226201836 0.0
264 1 41.7711942858 3.04437220184 0.0
265 1 46.4332942858 2.67704220184 0.0
266 1 51.5839942858 2.41098220184 0.0
267 1 56.6269942858 2.25695220184 0.0
268 1 61.9878942858 2.99275220184 0.0
269 1 67.3030942858 3.74322220184 0.0
270 1 72.9786942858 3.69732220184 0.0
271 1 2.77027428582 8.24821220184 0.0
272 1 7.64032428582 7.95349220184 0.0
273 1 12.7548942858 7.63725220184 0.0
274 1 18.0523942858 7.62889220184 0.0
275 1 23.1211942858 6.57771220184 0.0
276 1 29.1796942858 6.85390220184 0.0
277 1 34.5398942858 7.18599220184 0.0
278 1 39.7011942858 7.67030220184 0.0
279 1 44.8215942858 7.59340220184 0.0
280 1 49.8500942858 6.93523220184 0.0
281 1 55.3781942858 5.01476220184 0.0
282 1 59.7085942858 8.05737220184 0.0
283 1 64.4073942858 7.70339220184 0.0
284 1 70.1295942858 7.53202220184 0.0
285 1 75.5618942858 8.24324220184 0.0
286 1 0.290554285821 12.8852222018 0.0
287 1 5.39165428582 12.8083222018 0.0
288 1 10.4353942858 12.2772222018 0.0
289 1 15.4664942858 12.2328222018 0.0
290 1 20.9121942858 11.5246222018 0.0
291 1 25.8196942858 11.2345222018 0.0
292 1 31.2357942858 11.3883222018 0.0
293 1 36.7117942858 11.6655222018 0.0
294 1 42.3217942858 12.0110222018 0.0
295 1 47.8313942858 11.7660222018 0.0
296 1 52.7453942858 11.5601222018 0.0
297 1 57.6115942858 12.6452222018 0.0
298 1 62.5828942858 12.7906222018 0.0
299 1 67.5081942858 11.7563222018 0.0
300 1 72.7174942858 12.1596222018 0.0
301 1 3.25610428582 17.1812222018 0.0
302 1 8.70243428582 16.9709222018 0.0
303 1 14.1582942858 14.9514222018 0.0
304 1 19.0980942858 16.7232222018 0.0
305 1 24.2657942858 13.8818222018 0.0
306 1 28.7790942858 16.2127222018 0.0
307 1 33.9242942858 15.8826222018 0.0
308 1 39.3805942858 16.1289222018 0.0
309 1 44.7122942858 16.7455222018 0.0
310 1 47.7362942858 16.8821222018 0.0
311 1 54.7080942858 16.5401222018 0.0
312 1 60.2847942858 17.0728222018 0.0
313 1 65.9113942858 16.6866222018 0.0
314 1 71.1441942858 14.7043222018 0.0
315 1 75.7294942858 17.4087222018 0.0
316 1 0.865494285821 21.6076222018 0.0
317 1 6.28043428582 21.4199222018 0.0
318 1 11.7218942858 21.2078222018 0.0
319 1 16.9134942858 21.5462222018 0.0
320 1 22.0038942858 21.1523222018 0.0
321 1 26.8151942858 20.8508222018 0.0
322 1 31.8663942858 20.7201222018 0.0
323 1 36.6293942858 20.7357222018 0.0
324 1 41.5406942858 21.0130222018 0.0
325 1 46.8308942858 21.2416222018 0.0
326 1 51.9907942858 20.8261222018 0.0
327 1 57.3375942858 21.1381222018 0.0
328 1 62.7290942858 21.7201222018 0.0
329 1 65.7382942858 21.4220222018 0.0
330 1 73.0410942858 21.3491222018 0.0
331 1 3.34475428582 25.9034222018 0.0
332 1 8.67058428582 25.8087222018 0.0
333 1 13.7729942858 25.8859222018 0.0
334 1 19.1242942858 25.9946222018 0.0
335 1 24.1939942858 25.5992222018 0.0
336 1 29.2066942858 25.3507222018 0.0
337 1 34.0985942858 25.5555222018 0.0
338 1 38.9513942858 25.5187222018 0.0
339 1 44.1358942858 25.5659222018 0.0
340 1 49.5638942858 25.4961222018 0.0
341 1 54.6027942858 25.5224222018 0.0
342 1 59.7331942858 25.9340222018 0.0
343 1 65.2412942858 25.9384222018 0.0
344 1 70.1469942858 25.2267222018 0.0
345 1 75.6531942858 25.8092222018 0.0
346 1 0.205688285821 30.2008222018 0.0
347 1 5.59623428582 30.3164222018 0.0
348 1 10.7773942858 30.4164222018 0.0
349 1 15.9746942858 30.4461222018 0.0
350 1 21.0161942858 30.8422222018 0.0
351 1 24.0295942858 30.8376222018 0.0
352 1 30.9710942858 30.1061222018 0.0
353 1 36.1204942858 30.0707222018 0.0
354 1 41.3431942858 29.9584222018 0.0
355 1 46.6925942858 29.9259222018 0.0
356 1 51.9292942858 30.0320222018 0.0
357 1 56.9957942858 30.2984222018 0.0
358 1 62.1198942858 30.7175222018 0.0
359 1 65.1288942858 30.7484222018 0.0
360 1 72.5047942858 29.8831222018 0.0
361 1 2.53190428582 34.6891222018 0.0
362 1 7.79376428582 34.9093222018 0.0
363 1 12.8772942858 35.1760222018 0.0
364 1 17.7659942858 35.1574222018 0.0
365 1 23.1071942858 35.1861222018 0.0
366 1 28.2284942858 34.8145222018 0.0
367 1 33.2808942858 34.6935222018 0.0
368 1 38.5025942858 34.4315222018 0.0
369 1 43.8018942858 34.3123222018 0.0
370 1 49.0723942858 34.4233222018 0.0
371 1 54.1574942858 34.8160222018 0.0
372 1 59.0642942858 35.2304222018 0.0
373 1 64.3080942858 35.0178222018 0.0
374 1 69.6493942858 34.0794222018 0.0
375 1 74.9758942858 34.5101222018 0.0
376 1 77.3951942858 39.1981222018 0.0
377 1 4.86090428582 39.1400222018 0.0
378 1 10.0821942858 39.6957222018 0.0
379 1 15.1590942858 39.9722222018 0.0
380 1 20.4545942858 39.0248222018 0.0
381 1 25.9916942858 39.5974222018 0.0
382 1 30.8740942858 39.6053222018 0.0
383 1 35.9011942858 39.1012222018 0.0
384 1 41.0208942858 38.8948222018 0.0
385 1 46.2089942858 38.7306222018 0.0
386 1 51.3541942858 39.1668222018 0.0
387 1 56.5094942858 39.5590222018 0.0
388 1 61.8163942858 39.7217222018 0.0
389 1 67.1838942858 38.7249222018 0.0
390 1 72.1542942858 38.8009222018 0.0
391 1 2.00881428582 43.8164222018 0.0
392 1 7.00336428582 43.7728222018 0.0
393 1 14.1750942858 45.7339222018 0.0
394 1 18.2771942858 43.9312222018 0.0
395 1 23.1164942858 43.5425222018 0.0
396 1 29.9074942858 45.4164222018 0.0
397 1 33.8239942858 43.8597222018 0.0
398 1 38.6621942858 43.8726222018 0.0
399 1 43.4656942858 43.4563222018 0.0
400 1 48.2248942858 43.6029222018 0.0
401 1 53.4471942858 43.6132222018 0.0
402 1 61.0334942858 45.1629222018 0.0
403 1 65.4882942858 43.5005222018 0.0
404 1 70.8342942858 41.5004222018 0.0
405 1 75.0177942858 44.2236222018 0.0
406 1 77.7176942858 48.8508222018 0.0
407 1 4.56127428582 48.5866222018 0.0
408 1 9.67579428582 47.9991222018 0.0
409 1 15.4381942858 48.4855222018 0.0
410 1 18.3820942858 49.0817222018 0.0
411 1 25.4022942858 48.0643222018 0.0
412 1 31.1451942858 48.1735222018 0.0
413 1 36.3865942858 48.4546222018 0.0
414 1 41.5018942858 48.4911222018 0.0
415 1 46.7092942858 46.2008222018 0.0
416 1 51.1153942858 48.3239222018 0.0
417 1 56.4384942858 47.4816222018 0.0
418 1 62.7594942858 47.6191222018 0.0
419 1 67.9317942858 48.2991222018 0.0
420 1 72.7558942858 48.9259222018 0.0
421 1 2.27896428582 53.4683222018 0.0
422 1 7.30523428582 52.9315222018 0.0
423 1 12.1969942858 52.5945222018 0.0
424 1 17.3568942858 53.2999222018 0.0
425 1 22.8307942858 52.3760222018 0.0
426 1 28.1193942858 52.7133222018 0.0
427 1 33.1710942858 52.9626222018 0.0
428 1 38.4539942858 52.6978222018 0.0
429 1 45.5227942858 54.1906222018 0.0
430 1 49.7837942858 52.8679222018 0.0
431 1 54.9662942858 52.1964222018 0.0
432 1 59.8623942858 51.9568222018 0.0
433 1 64.8177942858 52.5852222018 0.0
434 1 69.8115942858 53.2272222018 0.0
435 1 75.0471942858 53.5133222018 0.0
436 1 77.4199942858 58.0888222018 0.0
437 1 4.72433428582 58.0411222018 0.0
438 1 9.53939428582 57.2300222018 0.0
439 1 16.3742942858 58.9722222018 0.0
440 1 20.5444942858 57.3020222018 0.0
441 1 25.3441942858 57.0455222018 0.0
442 1 32.3336942858 58.7085222018 0.0
443 1 36.2500942858 57.3433222018 0.0
444 1 41.4185942858 57.0222222018 0.0
445 1 46.6261942858 56.9969222018 0.0
446 1 52.1218942858 56.9788222018 0.0
447 1 57.2486942858 56.3395222018 0.0
448 1 62.1033942858 57.0222222018 0.0
449 1 67.0088942858 57.5827222018 0.0
450 1 72.1970942858 57.8956222018 0.0
451 1 2.16922428582 62.5686222018 0.0
452 1 7.23967428582 62.8236222018 0.0
453 1 10.2505942858 62.7325222018 0.0
454 1 17.7249942858 61.6572222018 0.0
455 1 22.9475942858 61.8856222018 0.0
456 1 28.0783942858 61.2171222018 0.0
457 1 33.8189942858 61.3398222018 0.0
458 1 39.2279942858 61.8674222018 0.0
459 1 43.9918942858 61.9480222018 0.0
460 1 48.8259942858 61.6153222018 0.0
461 1 54.0827942858 60.7907222018 0.0
462 1 59.0575942858 61.0641222018 0.0
463 1 64.1250942858 62.0258222018 0.0
464 1 69.3653942858 62.1373222018 0.0
465 1 74.6650942858 62.4943222018 0.0
466 1 77.0838942858 67.1483222018 0.0
467 1 4.37550428582 67.2228222018 0.0
468 1 9.75099428582 67.0907222018 0.0
469 1 14.8927942858 66.1703222018 0.0
470 1 20.2161942858 66.0493222018 0.0
471 1 25.8250942858 65.9536222018 0.0
472 1 30.9354942858 65.7541222018 0.0
473 1 36.2271942858 65.8936222018 0.0
474 1 41.5884942858 66.6026222018 0.0
475 1 46.6807942858 66.6576222018 0.0
476 1 51.7809942858 65.5621222018 0.0
477 1 57.1726942858 63.3894222018 0.0
478 1 61.0256942858 66.4555222018 0.0
479 1 66.5204942858 66.1264222018 0.0
480 1 71.8670942858 66.8497222018 0.0
481 1 1.92209428582 71.5377222018 0.0
482 1 7.37503428582 71.4665222018 0.0
483 1 12.8622942858 71.1630222018 0.0
484 1 17.9023942858 70.4099222018 0.0
485 1 23.2191942858 70.5222222018 0.0
486 1 28.3723942858 70.5532222018 0.0
487 1 33.3898942858 70.3632222018 0.0
488 1 38.5926942858 70.5054222018 0.0
489 1 46.0452942858 72.2617222018 0.0
490 1 50.3750942858 70.5149222018 0.0
491 1 55.5890942858 68.0316222018 0.0
492 1 59.9043942858 69.2380222018 0.0
493 1 64.8993942858 70.9551222018 0.0
494 1 69.4205942858 71.0531222018 0.0
495 1 74.4774942858 71.7837222018 0.0
496 1 77.1363942858 75.8135222018 0.0
497 1 4.89231428582 75.6636222018 0.0
498 1 10.4728942858 75.5735222018 0.0
499 1 15.9729942858 75.2706222018 0.0
500 1 20.8927942858 74.9468222018 0.0
501 1 25.8865942858 75.4337222018 0.0
502 1 30.8597942858 75.1307222018 0.0
503 1 35.9887942858 74.7937222018 0.0
504 1 41.4206942858 74.8323222018 0.0
505 1 47.7045942858 74.8040222018 0.0
506 1 53.2236942858 74.8216222018 0.0
507 1 57.8813942858 75.2538222018 0.0
508 1 63.0198942858 75.7111222018 0.0
509 1 68.3808942858 73.8676222018 0.0
510 1 71.8249942858 76.6224222018 0.0
511 1 5.09152428582 78.6610222018 0.0
512 1 10.4476942858 78.5829222018 0.0
513 1 17.7030942858 77.7475222018 0.0
514 1 20.7220942858 77.9548222018 0.0
515 1 25.8401942858 78.4773222018 0.0
516 1 30.7873942858 78.1559222018 0.0
517 1 36.2354942858 77.7872222018 0.0
518 1 41.5714942858 77.8777222018 0.0
519 1 46.8952942858 77.7527222018 0.0
520 1 54.6006942858 77.5272222018 0.0
521 1 57.5638942858 78.2304222018 0.0
522 1 63.0683942858 78.6887222018 0.0
523 1 66.8321942858 81.2017222018 0.0
524 1 72.3434942858 79.5723222018 0.0
525 1 77.6296942858 78.7804222018 0.0
526 1 2.49820428582 80.1829222018 0.0
527 1 7.78635428582 79.9998222018 0.0
528 1 12.9656942858 80.2321222018 0.0
529 1 15.9728942858 80.1890222018 0.0
530 1 23.1219942858 79.8279222018 0.0
531 1 28.4340942858 80.0683222018 0.0
532 1 33.5994942858 79.2514222018 0.0
533 1 38.8579942858 79.2863222018 0.0
534 1 44.2563942858 79.3270222018 0.0
535 1 49.3933942858 79.4820222018 0.0
536 1 52.4260942858 79.5979222018 0.0
537 1 60.2004942858 79.7763222018 0.0
538 1 66.1054942858 78.3107222018 0.0
539 1 69.8402942858 81.2419222018 0.0
540 1 75.1894942858 80.5290222018 0.0
541 2 1.43516428582 2.66123220184 0.0
542 2 3.87889428582 2.53770220184 0.0
543 2 2.54793428582 0.233672201836 0.0
544 2 7.66112428582 0.0476052018359 0.0
545 2 8.77074428582 2.39590220184 0.0
546 2 6.33195428582 2.43982220184 0.0
547 2 12.7067942858 0.259767201836 0.0
548 2 11.2912942858 2.49815220184 0.0
549 2 13.8621942858 2.53678220184 0.0
550 2 16.7859942858 0.00113420183591 0.0
551 2 18.8806942858 1.88017220184 0.0
552 2 16.3736942858 2.34905220184 0.0
553 2 23.0923942858 81.3495222018 0.0
554 2 23.8973942858 2.62747220184 0.0
555 2 21.5655942858 1.93502220184 0.0
556 2 28.7317942858 0.110390201836 0.0
557 2 30.6087942858 2.00479220184 0.0
558 2 28.3508942858 2.87074220184 0.0
559 2 33.9118942858 80.7210222018 0.0
560 2 35.8952942858 0.655612201836 0.0
561 2 33.2432942858 1.70248220184 0.0
562 2 38.0747942858 1.85503220184 0.0
563 2 40.2544942858 3.06485220184 0.0
564 2 37.9334942858 4.48956220184 0.0
565 2 44.1028942858 80.8572222018 0.0
566 2 45.1941942858 1.81323220184 0.0
567 2 42.7897942858 1.91493220184 0.0
568 2 49.0823942858 80.9622222018 0.0
569 2 50.2429942858 1.74207220184 0.0
570 2 47.6772942858 1.82045220184 0.0
571 2 53.2888942858 80.8419222018 0.0
572 2 55.4035942858 1.35167220184 0.0
573 2 52.8400942858 1.59771220184 0.0
574 2 59.8599942858 81.2571222018 0.0
575 2 60.7320942858 2.15738220184 0.0
576 2 58.0677942858 1.78081220184 0.0
577 2 65.7417942858 0.786902201836 0.0
578 2 66.0320942858 2.95681220184 0.0
579 2 63.4038942858 2.43389220184 0.0
580 2 70.0764942858 1.26333220184 0.0
581 2 68.7355942858 3.28387220184 0.0
582 2 71.5477942858 3.25115220184 0.0
583 2 75.3649942858 0.564412201836 0.0
584 2 76.7607942858 2.82680220184 0.0
585 2 74.2135942858 2.85901220184 0.0
586 2 0.277244285821 5.08938220184 0.0
587 2 1.51070428582 7.43109220184 0.0
588 2 76.8062942858 7.40821220184 0.0
589 2 5.11674428582 4.85489220184 0.0
590 2 6.37783428582 7.14987220184 0.0
591 2 3.93716428582 7.30298220184 0.0
592 2 10.0263942858 4.74821220184 0.0
593 2 11.4358942858 6.93078220184 0.0
594 2 8.87962428582 7.10923220184 0.0
595 2 15.3056942858 4.73924220184 0.0
596 2 16.7138942858 6.94250220184 0.0
597 2 14.0756942858 6.93454220184 0.0
598 2 20.1892942858 4.09719220184 0.0
599 2 21.6819942858 6.13208220184 0.0
600 2 19.1777942858 6.62869220184 0.0
601 2 26.1442942858 4.08130220184 0.0
602 2 23.9460942858 5.30739220184 0.0
603 2 32.0249942858 4.09950220184 0.0
604 2 33.2551942858 6.38476220184 0.0
605 2 30.6019942858 6.30228220184 0.0
606 2 38.4515942858 6.82933220184 0.0
607 2 35.8936942858 6.48463220184 0.0
608 2 42.1042942858 4.52962220184 0.0
609 2 43.5225942858 6.82172220184 0.0
610 2 40.9823942858 6.87515220184 0.0
611 2 46.7480942858 4.16124220184 0.0
612 2 48.4992942858 6.25670220184 0.0
613 2 45.9889942858 6.63657220184 0.0
614 2 51.9037942858 3.86917220184 0.0
615 2 51.1581942858 6.18161220184 0.0
616 2 53.8815942858 5.23490220184 0.0
617 2 58.2270942858 7.80193220184 0.0
618 2 56.0757942858 6.35075220184 0.0
619 2 56.0554942858 9.05210220184 0.0
620 2 61.9155942858 4.50572220184 0.0
621 2 63.1889942858 6.82979220184 0.0
622 2 60.7627942858 6.98490220184 0.0
623 2 67.2363942858 5.22882220184 0.0
624 2 68.6865942858 7.13087220184 0.0
625 2 65.8380942858 7.23687220184 0.0
626 2 73.0636942858 5.18824220184 0.0
627 2 74.2592942858 7.49426220184 0.0
628 2 71.5523942858 7.06839220184 0.0
629 2 2.79863428582 9.75172220184 0.0
630 2 4.08849428582 12.0568222018 0.0
631 2 1.54656428582 12.0621222018 0.0
632 2 7.67729428582 9.45284220184 0.0
633 2 9.09030428582 11.6200222018 0.0
634 2 6.56610428582 11.8704222018 0.0
635 2 12.8375942858 9.13137220184 0.0
636 2 14.2367942858 11.3612222018 0.0
637 2 11.6683942858 11.4230222018 0.0
638 2 18.0310942858 9.13020220184 0.0
639 2 19.4658942858 11.0982222018 0.0
640 2 16.7886942858 11.4994222018 0.0
641 2 23.2529942858 8.08871220184 0.0
642 2 24.5944942858 10.3355222018 0.0
643 2 22.0705942858 10.5437222018 0.0
644 2 28.8233942858 8.34154220184 0.0
645 2 29.9041942858 10.6392222018 0.0
646 2 27.2169942858 10.5850222018 0.0
647 2 34.2971942858 8.68393220184 0.0
648 2 35.3764942858 10.9394222018 0.0
649 2 32.6390942858 10.7739222018 0.0
650 2 39.6587942858 9.17456220184 0.0
651 2 40.9480942858 11.3618222018 0.0
652 2 38.1525942858 11.1750222018 0.0
653 2 44.9304942858 9.10069220184 0.0
654 2 46.4019942858 11.2542222018 0.0
655 2 43.6785942858 11.3281222018 0.0
656 2 50.0377942858 8.43178220184 0.0
657 2 51.5083942858 10.6999222018 0.0
658 2 48.9787942858 10.7833222018 0.0
659 2 56.5242942858 11.6057222018 0.0
660 2 54.1178942858 10.9469222018 0.0
661 2 60.0053942858 9.53847220184 0.0
662 2 61.3469942858 11.9332222018 0.0
663 2 58.8973942858 11.8716222018 0.0
664 2 64.4766942858 9.20655220184 0.0
665 2 66.1307942858 11.1827222018 0.0
666 2 63.6798942858 11.7620222018 0.0
667 2 70.1986942858 9.02387220184 0.0
668 2 71.5189942858 11.2529222018 0.0
669 2 68.8502942858 11.0966222018 0.0
670 2 75.5963942858 9.74152220184 0.0
671 2 74.1587942858 11.7627222018 0.0
672 2 76.8045942858 12.0946222018 0.0
673 2 1.89348428582 16.5263222018 0.0
674 2 0.398984285821 14.3812222018 0.0
675 2 77.0019942858 16.6097222018 0.0
676 2 5.66583428582 14.2838222018 0.0
677 2 7.31073428582 16.3695222018 0.0
678 2 4.59329428582 16.4857222018 0.0
679 2 10.7201942858 13.7457222018 0.0
680 2 12.6586942858 15.1699222018 0.0
681 2 9.96349428582 16.1318222018 0.0
682 2 15.1214942858 16.0971222018 0.0
683 2 17.5667942858 16.8856222018 0.0
684 2 15.2169942858 18.5062222018 0.0
685 2 20.9978942858 13.0307222018 0.0
686 2 22.7892942858 14.2811222018 0.0
687 2 20.1894942858 15.6319222018 0.0
688 2 25.0277942858 15.1850222018 0.0
689 2 27.2624942858 16.2813222018 0.0
690 2 24.9411942858 17.7901222018 0.0
691 2 31.2184942858 12.9149222018 0.0
692 2 32.5912942858 15.1557222018 0.0
693 2 29.9649942858 15.2633222018 0.0
694 2 36.7016942858 13.1768222018 0.0
695 2 38.0494942858 15.3998222018 0.0
696 2 35.3157942858 15.2783222018 0.0
697 2 42.2960942858 13.5232222018 0.0
698 2 43.4939942858 15.8452222018 0.0
699 2 40.7937942858 15.5776222018 0.0
700 2 48.5555942858 15.6241222018 0.0
701 2 48.5455942858 13.1036222018 0.0
702 2 50.8821942858 14.5539222018 0.0
703 2 52.6519942858 13.0620222018 0.0
704 2 53.5215942858 15.5832222018 0.0
705 2 57.6132942858 14.1452222018 0.0
706 2 58.9393942858 16.3706222018 0.0
707 2 56.1617942858 16.1133222018 0.0
708 2 62.8090942858 14.2740222018 0.0
709 2 64.4438942858 16.3036222018 0.0
710 2 61.6683942858 16.4557222018 0.0
711 2 69.6441942858 14.7593222018 0.0
712 2 67.7498942858 13.2314222018 0.0
713 2 67.0107942858 15.6522222018 0.0
714 2 71.9629942858 15.9481222018 0.0
715 2 74.2307942858 17.2271222018 0.0
716 2 71.6870942858 18.3135222018 0.0
717 2 3.38044428582 18.6800222018 0.0
718 2 4.90946428582 20.7757222018 0.0
719 2 2.20022428582 20.9090222018 0.0
720 2 8.83416428582 18.4716222018 0.0
721 2 10.3431942858 20.5648222018 0.0
722 2 7.62134428582 20.7166222018 0.0
723 2 15.6327942858 20.7581222018 0.0
724 2 13.0541942858 20.4583222018 0.0
725 2 19.3266942858 18.2302222018 0.0
726 2 20.6762942858 20.4385222018 0.0
727 2 18.1445942858 20.6639222018 0.0
728 2 25.5515942858 20.0572222018 0.0
729 2 23.1359942858 20.1336222018 0.0
730 2 29.1287942858 17.6849222018 0.0
731 2 30.5851942858 19.9397222018 0.0
732 2 28.0728942858 20.0391222018 0.0
733 2 34.0724942858 17.3948222018 0.0
734 2 35.4537942858 19.7954222018 0.0
735 2 33.0557942858 19.8119222018 0.0
736 2 39.2799942858 17.6416222018 0.0
737 2 40.3698942858 20.0746222018 0.0
738 2 37.9082942858 19.9422222018 0.0
739 2 44.4076942858 18.2226222018 0.0
740 2 45.5199942858 20.5066222018 0.0
741 2 42.8969942858 20.3662222018 0.0
742 2 48.5747942858 18.1438222018 0.0
743 2 50.6602942858 20.0923222018 0.0
744 2 48.0929942858 20.4334222018 0.0
745 2 54.6891942858 18.0523222018 0.0
746 2 56.0440942858 20.3422222018 0.0
747 2 53.3615942858 20.1909222018 0.0
748 2 58.7567942858 20.6077222018 0.0
749 2 61.4728942858 20.8773222018 0.0
750 2 60.2521942858 18.5801222018 0.0
751 2 66.6982942858 20.2687222018 0.0
752 2 66.7746942858 17.9242222018 0.0
753 2 69.1912942858 19.3128222018 0.0
754 2 71.7813942858 20.5225222018 0.0
755 2 75.8912942858 18.8990222018 0.0
756 2 77.2773942858 21.0059222018 0.0
757 2 74.4791942858 20.8896222018 0.0
758 2 0.754714285821 23.1051222018 0.0
759 2 1.98175428582 25.2554222018 0.0
760 2 77.0380942858 25.2099222018 0.0
761 2 6.13447428582 22.9227222018 0.0
762 2 7.32665428582 25.1175222018 0.0
763 2 4.66427428582 25.1629222018 0.0
764 2 11.4997942858 22.7144222018 0.0
765 2 12.5184942858 25.0471222018 0.0
766 2 9.95439428582 24.9993222018 0.0
767 2 16.7126942858 23.0415222018 0.0
768 2 17.7928942858 25.2846222018 0.0
769 2 15.1340942858 25.2176222018 0.0
770 2 21.7874942858 22.6619222018 0.0
771 2 22.8447942858 24.9459222018 0.0
772 2 20.3356942858 25.0795222018 0.0
773 2 26.7101942858 22.3447222018 0.0
774 2 27.9225942858 24.5764222018 0.0
775 2 25.3702942858 24.6580222018 0.0
776 2 31.8144942858 22.2235222018 0.0
777 2 32.9126942858 24.6332222018 0.0
778 2 30.4606942858 24.5335222018 0.0
779 2 36.5592942858 22.2477222018 0.0
780 2 37.7492942858 24.6198222018 0.0
781 2 35.3186942858 24.6738222018 0.0
782 2 41.5265942858 22.5170222018 0.0
783 2 42.8543942858 24.7808222018 0.0
784 2 40.2667942858 24.7915222018 0.0
785 2 46.8326942858 22.7393222018 0.0
786 2 48.1937942858 24.8720222018 0.0
787 2 45.4924942858 24.9176222018 0.0