ITEM: TIMESTEP
0
ITEM: NUMBER OF ATOMS
1350
ITEM: BOX BOUNDS xy xz yz pp pp pp
0.0 78.7426225239 0
0.0 80.8011035125 0
-10.0 10.0 0
ITEM: ATOMS id type x y z vx vy vz
1 1 1.83086903882 1.03825175627 0.0 0.0 0.0 0.0
2 1 7.00870903882 1.37608175627 0.0 0.0 0.0 0.0
3 1 12.2505490388 1.54042175627 0.0 0.0 0.0 0.0
4 1 17.5419490388 1.74332175627 0.0 0.0 0.0 0.0
5 1 22.8240490388 1.93337175627 0.0 0.0 0.0 0.0
6 1 28.9066490388 1.96560175627 0.0 0.0 0.0 0.0
7 1 34.2026490388 1.83944175627 0.0 0.0 0.0 0.0
8 1 39.3949490388 1.28768175627 0.0 0.0 0.0 0.0
9 1 44.6754490388 1.39764175627 0.0 0.0 0.0 0.0
10 1 49.8993490388 1.56014175627 0.0 0.0 0.0 0.0
11 1 54.9451490388 1.63585175627 0.0 0.0 0.0 0.0
12 1 59.9053490388 1.59112175627 0.0 0.0 0.0 0.0
13 1 65.0393490388 1.48047175627 0.0 0.0 0.0 0.0
14 1 70.2655490388 1.42818175627 0.0 0.0 0.0 0.0
15 1 75.2768490388 1.24509175627 0.0 0.0 0.0 0.0
16 1 78.4916490388 5.49897175627 0.0 0.0 0.0 0.0
17 1 4.16693903882 7.96860175627 0.0 0.0 0.0 0.0
18 1 9.57496903882 5.97279175627 0.0 0.0 0.0 0.0
19 1 15.0240490388 6.09295175627 0.0 0.0 0.0 0.0
20 1 20.1359490388 6.26371175627 0.0 0.0 0.0 0.0
21 1 24.2554490388 4.57758175627 0.0 0.0 0.0 0.0
22 1 31.4884490388 6.29980175627 0.0 0.0 0.0 0.0
23 1 36.7656490388 6.03405175627 0.0 0.0 0.0 0.0
24 1 42.1346490388 5.80149175627 0.0 0.0 0.0 0.0
25 1 47.4495490388 5.99905175627 0.0 0.0 0.0 0.0
26 1 52.5912490388 6.28242175627 0.0 0.0 0.0 0.0
27 1 57.5950490388 6.36973175627 0.0 0.0 0.0 0.0
28 1 62.6107490388 6.13080175627 0.0 0.0 0.0 0.0
29 1 68.0783490388 5.92377175627 0.0 0.0 0.0 0.0
30 1 73.4019490388 5.94632175627 0.0 0.0 0.0 0.0
31 1 2.69032903882 10.5958517563 0.0 0.0 0.0 0.0
32 1 7.61030903882 10.7675517563 0.0 0.0 0.0 0.0
33 1 12.5961490388 10.3048517563 0.0 0.0 0.0 0.0
34 1 17.9323490388 10.7469517563 0.0 0.0 0.0 0.0
35 1 24.0174490388 10.1200517563 0.0 0.0 0.0 0.0
36 1 28.6209490388 12.1718517563 0.0 0.0 0.0 0.0
37 1 34.0266490388 10.5819517563 0.0 0.0 0.0 0.0
38 1 39.3033490388 10.2533517563 0.0 0.0 0.0 0.0
39 1 44.7271490388 10.3198517563 0.0 0.0 0.0 0.0
40 1 49.9374490388 10.7445517563 0.0 0.0 0.0 0.0
41 1 55.1366490388 11.0692517563 0.0 0.0 0.0 0.0
42 1 60.5289490388 10.9619517563 0.0 0.0 0.0 0.0
43 1 65.7911490388 10.2698517563 0.0 0.0 0.0 0.0
44 1 71.1284490388 10.3416517563 0.0 0.0 0.0 0.0
45 1 76.1805490388 10.3548517563 0.0 0.0 0.0 0.0
46 1 78.6744490388 14.9788517563 0.0 0.0 0.0 0.0
47 1 5.13919903882 15.3889517563 0.0 0.0 0.0 0.0
48 1 10.3913490388 15.1595517563 0.0 0.0 0.0 0.0
49 1 15.5829490388 14.8355517563 0.0 0.0 0.0 0.0
50 1 19.8860490388 13.0431517563 0.0 0.0 0.0 0.0
51 1 27.2010490388 14.8184517563 0.0 0.0 0.0 0.0
52 1 31.9033490388 15.3448517563 0.0 0.0 0.0 0.0
53 1 36.6307490388 14.8316517563 0.0 0.0 0.0 0.0
54 1 41.6920490388 14.5536517563 0.0 0.0 0.0 0.0
55 1 46.5840490388 14.9851517563 0.0 0.0 0.0 0.0
56 1 51.7373490388 15.4123517563 0.0 0.0 0.0 0.0
57 1 58.0066490388 15.4532517563 0.0 0.0 0.0 0.0
58 1 65.2021490388 14.4975517563 0.0 0.0 0.0 0.0
59 1 68.2312490388 14.7039517563 0.0 0.0 0.0 0.0
60 1 73.4186490388 15.0302517563 0.0 0.0 0.0 0.0
61 1 2.81373903882 19.6698517563 0.0 0.0 0.0 0.0
62 1 8.22958903882 19.6937517563 0.0 0.0 0.0 0.0
63 1 13.5010490388 19.4439517563 0.0 0.0 0.0 0.0
64 1 18.9552490388 18.6685517563 0.0 0.0 0.0 0.0
65 1 24.1174490388 18.6534517563 0.0 0.0 0.0 0.0
66 1 29.1330490388 19.8880517563 0.0 0.0 0.0 0.0
67 1 34.4116490388 19.8941517563 0.0 0.0 0.0 0.0
68 1 39.4495490388 19.2644517563 0.0 0.0 0.0 0.0
69 1 43.6236490388 21.8293517563 0.0 0.0 0.0 0.0
70 1 48.8959490388 19.7255517563 0.0 0.0 0.0 0.0
71 1 53.1633490388 18.0677517563 0.0 0.0 0.0 0.0
72 1 59.8813490388 19.6901517563 0.0 0.0 0.0 0.0
73 1 64.8038490388 19.8858517563 0.0 0.0 0.0 0.0
74 1 71.1491490388 19.4609517563 0.0 0.0 0.0 0.0
75 1 76.3917490388 19.5096517563 0.0 0.0 0.0 0.0
76 1 0.640182038823 24.1226517563 0.0 0.0 0.0 0.0
77 1 6.08901903882 23.9534517563 0.0 0.0 0.0 0.0
78 1 11.3516490388 23.9975517563 0.0 0.0 0.0 0.0
79 1 16.4998490388 23.2589517563 0.0 0.0 0.0 0.0
80 1 21.6463490388 23.2450517563 0.0 0.0 0.0 0.0
81 1 26.4382490388 23.8154517563 0.0 0.0 0.0 0.0
82 1 31.5665490388 24.3353517563 0.0 0.0 0.0 0.0
83 1 36.8420490388 24.1868517563 0.0 0.0 0.0 0.0
84 1 42.1502490388 24.4501517563 0.0 0.0 0.0 0.0
85 1 47.1586490388 24.6399517563 0.0 0.0 0.0 0.0
86 1 52.1306490388 23.7295517563 0.0 0.0 0.0 0.0
87 1 57.0891490388 23.7366517563 0.0 0.0 0.0 0.0
88 1 62.1902490388 24.4465517563 0.0 0.0 0.0 0.0
89 1 66.4825490388 22.3769517563 0.0 0.0 0.0 0.0
90 1 73.5819490388 23.9828517563 0.0 0.0 0.0 0.0
91 1 3.33876903882 28.2886517563 0.0 0.0 0.0 0.0
92 1 8.63216903882 28.4382517563 0.0 0.0 0.0 0.0
93 1 15.6801490388 27.7146517563 0.0 0.0 0.0 0.0
94 1 18.6921490388 27.7838517563 0.0 0.0 0.0 0.0
95 1 23.5954490388 28.3448517563 0.0 0.0 0.0 0.0
96 1 28.6979490388 28.6584517563 0.0 0.0 0.0 0.0
97 1 33.9023490388 28.7183517563 0.0 0.0 0.0 0.0
98 1 39.1795490388 28.7353517563 0.0 0.0 0.0 0.0
99 1 44.5222490388 29.1836517563 0.0 0.0 0.0 0.0
100 1 49.8074490388 28.7846517563 0.0 0.0 0.0 0.0
101 1 54.8759490388 28.4349517563 0.0 0.0 0.0 0.0
102 1 60.0177490388 28.5721517563 0.0 0.0 0.0 0.0
103 1 65.2787490388 28.0768517563 0.0 0.0 0.0 0.0
104 1 70.3933490388 27.7005517563 0.0 0.0 0.0 0.0
105 1 74.8389490388 26.7113517563 0.0 0.0 0.0 0.0
106 1 78.7380490388 32.2982517563 0.0 0.0 0.0 0.0
107 1 5.15557903882 32.6810517563 0.0 0.0 0.0 0.0
108 1 10.3532490388 33.0157517563 0.0 0.0 0.0 0.0
109 1 15.5754490388 32.9124517563 0.0 0.0 0.0 0.0
110 1 20.7315490388 32.8329517563 0.0 0.0 0.0 0.0
111 1 25.9098490388 33.1438517563 0.0 0.0 0.0 0.0
112 1 31.0816490388 33.2419517563 0.0 0.0 0.0 0.0
113 1 36.4067490388 33.1965517563 0.0 0.0 0.0 0.0
114 1 41.8495490388 33.3220517563 0.0 0.0 0.0 0.0
115 1 47.2581490388 33.4035517563 0.0 0.0 0.0 0.0
116 1 52.5174490388 33.2172517563 0.0 0.0 0.0 0.0
117 1 57.7056490388 33.0543517563 0.0 0.0 0.0 0.0
118 1 62.9603490388 32.7806517563 0.0 0.0 0.0 0.0
119 1 68.2151490388 32.4520517563 0.0 0.0 0.0 0.0
120 1 73.4491490388 32.1212517563 0.0 0.0 0.0 0.0
121 1 2.52914903882 37.0402517563 0.0 0.0 0.0 0.0
122 1 7.46559903882 37.3118517563 0.0 0.0 0.0 0.0
123 1 12.7204490388 37.4030517563 0.0 0.0 0.0 0.0
124 1 17.8423490388 37.4741517563 0.0 0.0 0.0 0.0
125 1 23.1530490388 37.5893517563 0.0 0.0 0.0 0.0
126 1 28.4417490388 37.8018517563 0.0 0.0 0.0 0.0
127 1 33.7124490388 37.6634517563 0.0 0.0 0.0 0.0
128 1 39.2463490388 37.5489517563 0.0 0.0 0.0 0.0
129 1 44.7176490388 37.6888517563 0.0 0.0 0.0 0.0
130 1 50.0869490388 37.7739517563 0.0 0.0 0.0 0.0
131 1 55.2715490388 37.6639517563 0.0 0.0 0.0 0.0
132 1 60.5477490388 37.3949517563 0.0 0.0 0.0 0.0
133 1 65.8393490388 37.0893517563 0.0 0.0 0.0 0.0
134 1 71.0193490388 36.7931517563 0.0 0.0 0.0 0.0
135 1 76.1347490388 36.6755517563 0.0 0.0 0.0 0.0
136 1 0.0982640388226 41.4153517563 0.0 0.0 0.0 0.0
137 1 5.44203903882 41.8506517563 0.0 0.0 0.0 0.0
138 1 10.4787490388 41.7623517563 0.0 0.0 0.0 0.0
139 1 14.7296490388 44.2427517563 0.0 0.0 0.0 0.0
140 1 20.0801490388 41.9911517563 0.0 0.0 0.0 0.0
141 1 25.5474490388 42.2013517563 0.0 0.0 0.0 0.0
142 1 31.5715490388 42.2131517563 0.0 0.0 0.0 0.0
143 1 36.8987490388 41.7794517563 0.0 0.0 0.0 0.0
144 1 42.1160490388 41.8736517563 0.0 0.0 0.0 0.0
145 1 47.5528490388 42.1014517563 0.0 0.0 0.0 0.0
146 1 52.8372490388 42.2656517563 0.0 0.0 0.0 0.0
147 1 58.0814490388 41.9882517563 0.0 0.0 0.0 0.0
148 1 63.4926490388 41.6721517563 0.0 0.0 0.0 0.0
149 1 68.6862490388 41.4809517563 0.0 0.0 0.0 0.0
150 1 73.7085490388 41.3387517563 0.0 0.0 0.0 0.0
151 1 2.81477903882 46.0035517563 0.0 0.0 0.0 0.0
152 1 7.90126903882 46.5245517563 0.0 0.0 0.0 0.0
153 1 13.1215490388 46.8054517563 0.0 0.0 0.0 0.0
154 1 18.2264490388 46.8611517563 0.0 0.0 0.0 0.0
155 1 23.1821490388 46.3339517563 0.0 0.0 0.0 0.0
156 1 27.1924490388 44.7398517563 0.0 0.0 0.0 0.0
157 1 34.4736490388 46.3494517563 0.0 0.0 0.0 0.0
158 1 39.4518490388 46.3154517563 0.0 0.0 0.0 0.0
159 1 44.4875490388 46.2500517563 0.0 0.0 0.0 0.0
160 1 49.8607490388 46.6218517563 0.0 0.0 0.0 0.0
161 1 55.9708490388 46.5872517563 0.0 0.0 0.0 0.0
162 1 61.3112490388 46.1105517563 0.0 0.0 0.0 0.0
163 1 66.4076490388 46.0962517563 0.0 0.0 0.0 0.0
164 1 71.4651490388 46.0794517563 0.0 0.0 0.0 0.0
165 1 76.3683490388 45.9561517563 0.0 0.0 0.0 0.0
166 1 0.746251038823 50.4508517563 0.0 0.0 0.0 0.0
167 1 5.15457903882 53.2165517563 0.0 0.0 0.0 0.0
168 1 10.3591490388 51.2308517563 0.0 0.0 0.0 0.0
169 1 15.8377490388 51.3998517563 0.0 0.0 0.0 0.0
170 1 21.2997490388 51.2113517563 0.0 0.0 0.0 0.0
171 1 26.4819490388 50.4693517563 0.0 0.0 0.0 0.0
172 1 31.6106490388 50.5211517563 0.0 0.0 0.0 0.0
173 1 36.7735490388 50.9990517563 0.0 0.0 0.0 0.0
174 1 41.9168490388 50.9092517563 0.0 0.0 0.0 0.0
175 1 47.0835490388 50.7384517563 0.0 0.0 0.0 0.0
176 1 51.4735490388 49.1533517563 0.0 0.0 0.0 0.0
177 1 58.8211490388 50.6813517563 0.0 0.0 0.0 0.0
178 1 63.9289490388 50.7014517563 0.0 0.0 0.0 0.0
179 1 69.1064490388 50.7262517563 0.0 0.0 0.0 0.0
180 1 74.3709490388 50.7580517563 0.0 0.0 0.0 0.0
181 1 3.83839903882 55.9407517563 0.0 0.0 0.0 0.0
182 1 8.72280903882 56.3041517563 0.0 0.0 0.0 0.0
183 1 13.5903490388 55.5261517563 0.0 0.0 0.0 0.0
184 1 18.9297490388 55.5409517563 0.0 0.0 0.0 0.0
185 1 24.0960490388 55.3326517563 0.0 0.0 0.0 0.0
186 1 29.1945490388 55.1037517563 0.0 0.0 0.0 0.0
187 1 34.3176490388 55.3010517563 0.0 0.0 0.0 0.0
188 1 39.5638490388 55.5082517563 0.0 0.0 0.0 0.0
189 1 44.8084490388 55.3266517563 0.0 0.0 0.0 0.0
190 1 50.3265490388 54.6932517563 0.0 0.0 0.0 0.0
191 1 55.7146490388 54.7481517563 0.0 0.0 0.0 0.0
192 1 60.9672490388 55.2452517563 0.0 0.0 0.0 0.0
193 1 66.3020490388 55.2508517563 0.0 0.0 0.0 0.0
194 1 71.6888490388 55.2344517563 0.0 0.0 0.0 0.0
195 1 77.1229490388 55.2429517563 0.0 0.0 0.0 0.0
196 1 0.662249038823 59.8803517563 0.0 0.0 0.0 0.0
197 1 6.10786903882 60.9044517563 0.0 0.0 0.0 0.0
198 1 12.9454490388 60.2303517563 0.0 0.0 0.0 0.0
199 1 15.9427490388 59.8855517563 0.0 0.0 0.0 0.0
200 1 21.3513490388 59.9774517563 0.0 0.0 0.0 0.0
201 1 26.7032490388 59.8299517563 0.0 0.0 0.0 0.0
202 1 31.8366490388 59.8042517563 0.0 0.0 0.0 0.0
203 1 37.1612490388 59.8943517563 0.0 0.0 0.0 0.0
204 1 42.5599490388 59.8962517563 0.0 0.0 0.0 0.0
205 1 47.7883490388 59.1646517563 0.0 0.0 0.0 0.0
206 1 53.0575490388 59.0761517563 0.0 0.0 0.0 0.0
207 1 58.0225490388 59.4662517563 0.0 0.0 0.0 0.0
208 1 63.2496490388 59.6393517563 0.0 0.0 0.0 0.0
209 1 68.5826490388 59.5946517563 0.0 0.0 0.0 0.0
210 1 73.9604490388 59.5683517563 0.0 0.0 0.0 0.0
211 1 2.69238903882 64.5918517563 0.0 0.0 0.0 0.0
212 1 8.03070903882 65.7049517563 0.0 0.0 0.0 0.0
213 1 13.2594490388 65.4443517563 0.0 0.0 0.0 0.0
214 1 18.6562490388 64.2855517563 0.0 0.0 0.0 0.0
215 1 24.2005490388 64.3071517563 0.0 0.0 0.0 0.0
216 1 29.2560490388 64.4307517563 0.0 0.0 0.0 0.0
217 1 34.3605490388 64.2872517563 0.0 0.0 0.0 0.0
218 1 39.9487490388 64.2663517563 0.0 0.0 0.0 0.0
219 1 46.9788490388 63.5325517563 0.0 0.0 0.0 0.0
220 1 49.9939490388 63.5315517563 0.0 0.0 0.0 0.0
221 1 55.0108490388 63.9590517563 0.0 0.0 0.0 0.0
222 1 60.2247490388 64.0496517563 0.0 0.0 0.0 0.0
223 1 65.4708490388 64.0099517563 0.0 0.0 0.0 0.0
224 1 70.7276490388 63.9289517563 0.0 0.0 0.0 0.0
225 1 76.0144490388 63.9937517563 0.0 0.0 0.0 0.0
226 1 77.8293490388 68.4759517563 0.0 0.0 0.0 0.0
227 1 4.26380903882 69.3032517563 0.0 0.0 0.0 0.0
228 1 10.4506490388 70.0906517563 0.0 0.0 0.0 0.0
229 1 18.2952490388 68.3832517563 0.0 0.0 0.0 0.0
230 1 21.3304490388 68.5006517563 0.0 0.0 0.0 0.0
231 1 26.5508490388 69.0521517563 0.0 0.0 0.0 0.0
232 1 31.7754490388 69.0104517563 0.0 0.0 0.0 0.0
233 1 36.9231490388 68.4125517563 0.0 0.0 0.0 0.0
234 1 42.1249490388 68.9136517563 0.0 0.0 0.0 0.0
235 1 46.9179490388 68.7818517563 0.0 0.0 0.0 0.0
236 1 52.1555490388 68.4338517563 0.0 0.0 0.0 0.0
237 1 57.3422490388 68.5403517563 0.0 0.0 0.0 0.0
238 1 62.5297490388 68.5199517563 0.0 0.0 0.0 0.0
239 1 67.6835490388 68.4287517563 0.0 0.0 0.0 0.0
240 1 72.7832490388 68.3656517563 0.0 0.0 0.0 0.0
241 1 1.37108903882 73.3063517563 0.0 0.0 0.0 0.0
242 1 5.46506903882 72.0472517563 0.0 0.0 0.0 0.0
243 1 12.1278490388 72.5651517563 0.0 0.0 0.0 0.0
244 1 18.9450490388 73.9975517563 0.0 0.0 0.0 0.0
245 1 23.9074490388 73.3523517563 0.0 0.0 0.0 0.0
246 1 29.0319490388 73.6049517563 0.0 0.0 0.0 0.0
247 1 36.0374490388 72.8609517563 0.0 0.0 0.0 0.0
248 1 39.0467490388 73.0982517563 0.0 0.0 0.0 0.0
249 1 44.3681490388 73.6471517563 0.0 0.0 0.0 0.0
250 1 49.6504490388 73.1313517563 0.0 0.0 0.0 0.0
251 1 54.7430490388 73.0662517563 0.0 0.0 0.0 0.0
252 1 59.8248490388 73.0909517563 0.0 0.0 0.0 0.0
253 1 64.9171490388 73.0398517563 0.0 0.0 0.0 0.0
254 1 69.9859490388 72.9829517563 0.0 0.0 0.0 0.0
255 1 75.0313490388 73.0305517563 0.0 0.0 0.0 0.0
256 1 77.9767490388 2.54487175627 0.0 0.0 0.0 0.0
257 1 4.30588903882 2.73464175627 0.0 0.0 0.0 0.0
258 1 9.58149903882 2.95565175627 0.0 0.0 0.0 0.0
259 1 14.8450490388 3.08458175627 0.0 0.0 0.0 0.0
260 1 20.1280490388 3.25992175627 0.0 0.0 0.0 0.0
261 1 27.2420490388 4.45724175627 0.0 0.0 0.0 0.0
262 1 31.5909490388 3.30306175627 0.0 0.0 0.0 0.0
263 1 36.9489490388 3.03854175627 0.0 0.0 0.0 0.0
264 1 42.0083490388 2.79297175627 0.0 0.0 0.0 0.0
265 1 47.2453490388 2.98777175627 0.0 0.0 0.0 0.0
266 1 52.4017490388 3.25844175627 0.0 0.0 0.0 0.0
267 1 57.4432490388 3.33804175627 0.0 0.0 0.0 0.0
268 1 62.5064490388 3.11392175627 0.0 0.0 0.0 0.0
269 1 67.6736490388 2.94251175627 0.0 0.0 0.0 0.0
270 1 72.8391490388 2.98902175627 0.0 0.0 0.0 0.0
271 1 2.76014903882 5.32577175627 0.0 0.0 0.0 0.0
272 1 7.17430903882 7.80216175627 0.0 0.0 0.0 0.0
273 1 12.2751490388 7.31841175627 0.0 0.0 0.0 0.0
274 1 17.5393490388 7.76358175627 0.0 0.0 0.0 0.0
275 1 22.9501490388 7.29500175627 0.0 0.0 0.0 0.0
276 1 28.6080490388 7.12759175627 0.0 0.0 0.0 0.0
277 1 34.1923490388 7.59110175627 0.0 0.0 0.0 0.0
278 1 39.5035490388 7.26173175627 0.0 0.0 0.0 0.0
279 1 44.7413490388 7.31339175627 0.0 0.0 0.0 0.0
280 1 49.9364490388 7.71879175627 0.0 0.0 0.0 0.0
281 1 55.0658490388 8.03159175627 0.0 0.0 0.0 0.0
282 1 60.1879490388 7.94061175627 0.0 0.0 0.0 0.0
283 1 65.3962490388 7.29101175627 0.0 0.0 0.0 0.0
284 1 70.7406490388 7.35469175627 0.0 0.0 0.0 0.0
285 1 76.0898490388 7.33193175627 0.0 0.0 0.0 0.0
286 1 78.7398490388 11.9546517563 0.0 0.0 0.0 0.0
287 1 5.09064903882 12.3923517563 0.0 0.0 0.0 0.0
288 1 10.2526490388 12.1679517563 0.0 0.0 0.0 0.0
289 1 15.1553490388 11.8696517563 0.0 0.0 0.0 0.0
290 1 22.8931490388 12.9360517563 0.0 0.0 0.0 0.0
291 1 26.9914490388 9.66075175627 0.0 0.0 0.0 0.0
292 1 31.6124490388 12.3634517563 0.0 0.0 0.0 0.0
293 1 36.7483490388 11.8363517563 0.0 0.0 0.0 0.0
294 1 41.9959490388 11.5736517563 0.0 0.0 0.0 0.0
295 1 47.2033490388 12.0336517563 0.0 0.0 0.0 0.0
296 1 52.4341490388 12.4604517563 0.0 0.0 0.0 0.0
297 1 57.8585490388 12.4271517563 0.0 0.0 0.0 0.0
298 1 63.3770490388 12.0675517563 0.0 0.0 0.0 0.0
299 1 68.4486490388 11.7023517563 0.0 0.0 0.0 0.0
300 1 73.6478490388 12.0061517563 0.0 0.0 0.0 0.0
301 1 2.42776903882 16.6813517563 0.0 0.0 0.0 0.0
302 1 7.83165903882 16.7206517563 0.0 0.0 0.0 0.0
303 1 13.0814490388 16.4802517563 0.0 0.0 0.0 0.0
304 1 18.4608490388 15.6954517563 0.0 0.0 0.0 0.0
305 1 24.3060490388 15.6190517563 0.0 0.0 0.0 0.0
306 1 29.3491490388 16.9018517563 0.0 0.0 0.0 0.0
307 1 34.4583490388 16.8927517563 0.0 0.0 0.0 0.0
308 1 39.2411490388 16.2755517563 0.0 0.0 0.0 0.0
309 1 43.9756490388 16.4853517563 0.0 0.0 0.0 0.0
310 1 49.0275490388 16.7193517563 0.0 0.0 0.0 0.0
311 1 56.1530490388 17.8536517563 0.0 0.0 0.0 0.0
312 1 60.6922490388 16.8101517563 0.0 0.0 0.0 0.0
313 1 63.6926490388 17.0882517563 0.0 0.0 0.0 0.0
314 1 70.7313490388 16.4488517563 0.0 0.0 0.0 0.0
315 1 76.0671490388 16.5054517563 0.0 0.0 0.0 0.0
316 1 0.187760038823 21.1437517563 0.0 0.0 0.0 0.0
317 1 5.52457903882 21.0022517563 0.0 0.0 0.0 0.0
318 1 10.9383490388 21.0178517563 0.0 0.0 0.0 0.0
319 1 16.3961490388 20.2594517563 0.0 0.0 0.0 0.0
320 1 21.5414490388 20.2223517563 0.0 0.0 0.0 0.0
321 1 26.2666490388 20.7939517563 0.0 0.0 0.0 0.0
322 1 31.7674490388 21.3365517563 0.0 0.0 0.0 0.0
323 1 37.1260490388 21.1878517563 0.0 0.0 0.0 0.0
324 1 42.4496490388 19.0816517563 0.0 0.0 0.0 0.0
325 1 46.6232490388 21.6945517563 0.0 0.0 0.0 0.0
326 1 51.7299490388 20.7303517563 0.0 0.0 0.0 0.0
327 1 57.0824490388 20.7209517563 0.0 0.0 0.0 0.0
328 1 62.2687490388 21.4653517563 0.0 0.0 0.0 0.0
329 1 69.4477490388 21.9545517563 0.0 0.0 0.0 0.0
330 1 73.7645490388 20.9743517563 0.0 0.0 0.0 0.0
331 1 3.40596903882 25.2918517563 0.0 0.0 0.0 0.0
332 1 8.71057903882 25.4344517563 0.0 0.0 0.0 0.0
333 1 14.1480490388 25.1227517563 0.0 0.0 0.0 0.0
334 1 19.0772490388 24.8007517563 0.0 0.0 0.0 0.0
335 1 23.8334490388 25.3234517563 0.0 0.0 0.0 0.0
336 1 28.8477490388 25.6394517563 0.0 0.0 0.0 0.0
337 1 34.2387490388 25.7206517563 0.0 0.0 0.0 0.0
338 1 39.4236490388 25.7311517563 0.0 0.0 0.0 0.0
339 1 44.5919490388 26.1906517563 0.0 0.0 0.0 0.0
340 1 49.9262490388 25.7792517563 0.0 0.0 0.0 0.0
341 1 54.6119490388 25.4300517563 0.0 0.0 0.0 0.0
342 1 59.4386490388 25.6231517563 0.0 0.0 0.0 0.0
343 1 65.1190490388 25.0722517563 0.0 0.0 0.0 0.0
344 1 70.6737490388 24.7009517563 0.0 0.0 0.0 0.0
345 1 77.8299490388 26.6986517563 0.0 0.0 0.0 0.0
346 1 0.528414038823 29.3353517563 0.0 0.0 0.0 0.0
347 1 5.93769903882 29.7826517563 0.0 0.0 0.0 0.0
348 1 11.1210490388 30.1241517563 0.0 0.0 0.0 0.0
349 1 14.1290490388 30.2737517563 0.0 0.0 0.0 0.0
350 1 20.9425490388 29.8034517563 0.0 0.0 0.0 0.0
351 1 26.0497490388 30.1158517563 0.0 0.0 0.0 0.0
352 1 31.2798490388 30.2247517563 0.0 0.0 0.0 0.0
353 1 36.5332490388 30.1853517563 0.0 0.0 0.0 0.0
354 1 41.7417490388 30.3206517563 0.0 0.0 0.0 0.0
355 1 47.2686490388 30.4006517563 0.0 0.0 0.0 0.0
356 1 52.4494490388 30.2105517563 0.0 0.0 0.0 0.0
357 1 57.4118490388 30.0605517563 0.0 0.0 0.0 0.0
358 1 62.7836490388 29.7714517563 0.0 0.0 0.0 0.0
359 1 67.9506490388 29.4519517563 0.0 0.0 0.0 0.0
360 1 73.0460490388 29.1269517563 0.0 0.0 0.0 0.0
361 1 2.46517903882 34.0258517563 0.0 0.0 0.0 0.0
362 1 7.65788903882 34.3258517563 0.0 0.0 0.0 0.0
363 1 12.9924490388 34.4314517563 0.0 0.0 0.0 0.0
364 1 18.1702490388 34.4542517563 0.0 0.0 0.0 0.0
365 1 23.2272490388 34.5526517563 0.0 0.0 0.0 0.0
366 1 28.4665490388 34.7711517563 0.0 0.0 0.0 0.0
367 1 33.7549490388 34.6467517563 0.0 0.0 0.0 0.0
368 1 39.1024490388 34.5499517563 0.0 0.0 0.0 0.0
369 1 44.5371490388 34.6892517563 0.0 0.0 0.0 0.0
370 1 49.9395490388 34.7701517563 0.0 0.0 0.0 0.0
371 1 55.1597490388 34.6566517563 0.0 0.0 0.0 0.0
372 1 60.4089490388 34.3856517563 0.0 0.0 0.0 0.0
373 1 65.6791490388 34.0817517563 0.0 0.0 0.0 0.0
374 1 70.9254490388 33.7766517563 0.0 0.0 0.0 0.0
375 1 76.0493490388 33.6564517563 0.0 0.0 0.0 0.0
376 1 78.5995490388 38.4112517563 0.0 0.0 0.0 0.0
377 1 4.91466903882 38.8819517563 0.0 0.0 0.0 0.0
378 1 10.0637490388 38.7959517563 0.0 0.0 0.0 0.0
379 1 15.2334490388 39.0340517563 0.0 0.0 0.0 0.0
380 1 20.4588490388 38.9905517563 0.0 0.0 0.0 0.0
381 1 25.7422490388 39.1797517563 0.0 0.0 0.0 0.0
382 1 31.1178490388 39.2243517563 0.0 0.0 0.0 0.0
383 1 36.5089490388 38.8040517563 0.0 0.0 0.0 0.0
384 1 41.9529490388 38.8777517563 0.0 0.0 0.0 0.0
385 1 47.3844490388 39.0984517563 0.0 0.0 0.0 0.0
386 1 52.7128490388 39.2556517563 0.0 0.0 0.0 0.0
387 1 57.9821490388 38.9778517563 0.0 0.0 0.0 0.0
388 1 63.2774490388 38.6719517563 0.0 0.0 0.0 0.0
389 1 68.5170490388 38.4714517563 0.0 0.0 0.0 0.0
390 1 73.6138490388 38.3239517563 0.0 0.0 0.0 0.0
391 1 2.66292903882 43.0027517563 0.0 0.0 0.0 0.0
392 1 7.99118903882 43.4915517563 0.0 0.0 0.0 0.0
393 1 13.4947490388 41.5146517563 0.0 0.0 0.0 0.0
394 1 17.7331490388 43.9039517563 0.0 0.0 0.0 0.0
395 1 22.7684490388 43.3552517563 0.0 0.0 0.0 0.0
396 1 30.1866490388 44.8906517563 0.0 0.0 0.0 0.0
397 1 34.3493490388 43.3506517563 0.0 0.0 0.0 0.0
398 1 39.4808490388 43.3129517563 0.0 0.0 0.0 0.0
399 1 44.7786490388 43.2658517563 0.0 0.0 0.0 0.0
400 1 50.1527490388 43.6299517563 0.0 0.0 0.0 0.0
401 1 55.5361490388 43.6084517563 0.0 0.0 0.0 0.0
402 1 60.8670490388 43.1405517563 0.0 0.0 0.0 0.0
403 1 66.1477490388 43.0962517563 0.0 0.0 0.0 0.0
404 1 71.2458490388 43.0690517563 0.0 0.0 0.0 0.0
405 1 76.2524490388 42.9475517563 0.0 0.0 0.0 0.0
406 1 0.207900038823 47.4930517563 0.0 0.0 0.0 0.0
407 1 5.18239903882 47.8615517563 0.0 0.0 0.0 0.0
408 1 10.4255490388 48.1963517563 0.0 0.0 0.0 0.0
409 1 15.6567490388 48.4116517563 0.0 0.0 0.0 0.0
410 1 20.8813490388 48.2451517563 0.0 0.0 0.0 0.0
411 1 25.9534490388 47.4883517563 0.0 0.0 0.0 0.0
412 1 31.7049490388 47.5003517563 0.0 0.0 0.0 0.0
413 1 36.9733490388 48.0026517563 0.0 0.0 0.0 0.0
414 1 41.9898490388 47.9083517563 0.0 0.0 0.0 0.0
415 1 47.0815490388 47.7420517563 0.0 0.0 0.0 0.0
416 1 54.4638490388 49.1863517563 0.0 0.0 0.0 0.0
417 1 58.7621490388 47.6834517563 0.0 0.0 0.0 0.0
418 1 63.8642490388 47.6941517563 0.0 0.0 0.0 0.0
419 1 68.9431490388 47.7161517563 0.0 0.0 0.0 0.0
420 1 73.9660490388 47.7621517563 0.0 0.0 0.0 0.0
421 1 3.76885903882 50.5383517563 0.0 0.0 0.0 0.0
422 1 8.17376903882 53.3333517563 0.0 0.0 0.0 0.0
423 1 13.0664490388 52.5698517563 0.0 0.0 0.0 0.0
424 1 18.6148490388 52.5607517563 0.0 0.0 0.0 0.0
425 1 24.0972490388 52.3188517563 0.0 0.0 0.0 0.0
426 1 29.0343490388 52.0831517563 0.0 0.0 0.0 0.0
427 1 34.0583490388 52.2931517563 0.0 0.0 0.0 0.0
428 1 39.3736490388 52.5072517563 0.0 0.0 0.0 0.0
429 1 44.5514490388 52.3406517563 0.0 0.0 0.0 0.0
430 1 49.9157490388 51.7179517563 0.0 0.0 0.0 0.0
431 1 56.0225490388 51.7554517563 0.0 0.0 0.0 0.0
432 1 61.3639490388 52.2677517563 0.0 0.0 0.0 0.0
433 1 66.5069490388 52.2477517563 0.0 0.0 0.0 0.0
434 1 71.7280490388 52.2190517563 0.0 0.0 0.0 0.0
435 1 77.0301490388 52.2139517563 0.0 0.0 0.0 0.0
436 1 0.948429038823 56.8642517563 0.0 0.0 0.0 0.0
437 1 6.15562903882 57.8827517563 0.0 0.0 0.0 0.0
438 1 11.4383490388 57.6159517563 0.0 0.0 0.0 0.0
439 1 16.2588490388 56.9016517563 0.0 0.0 0.0 0.0
440 1 21.5692490388 56.9732517563 0.0 0.0 0.0 0.0
441 1 26.7138490388 56.8144517563 0.0 0.0 0.0 0.0
442 1 31.6993490388 56.7884517563 0.0 0.0 0.0 0.0
443 1 36.8884490388 56.8896517563 0.0 0.0 0.0 0.0
444 1 42.2408490388 56.9006517563 0.0 0.0 0.0 0.0
445 1 47.6983490388 56.1670517563 0.0 0.0 0.0 0.0
446 1 53.0083490388 56.0657517563 0.0 0.0 0.0 0.0
447 1 58.2032490388 56.4551517563 0.0 0.0 0.0 0.0
448 1 63.6270490388 56.6539517563 0.0 0.0 0.0 0.0
449 1 68.9928490388 56.6101517563 0.0 0.0 0.0 0.0
450 1 74.3970490388 56.5797517563 0.0 0.0 0.0 0.0
451 1 3.15738903882 61.6115517563 0.0 0.0 0.0 0.0
452 1 8.54009903882 62.7390517563 0.0 0.0 0.0 0.0
453 1 11.5752490388 62.9099517563 0.0 0.0 0.0 0.0
454 1 18.6207490388 61.2770517563 0.0 0.0 0.0 0.0
455 1 24.0676490388 61.2978517563 0.0 0.0 0.0 0.0
456 1 29.2774490388 61.4068517563 0.0 0.0 0.0 0.0
457 1 34.4739490388 61.2740517563 0.0 0.0 0.0 0.0
458 1 39.8651490388 61.2543517563 0.0 0.0 0.0 0.0
459 1 45.3871490388 60.9716517563 0.0 0.0 0.0 0.0
460 1 50.4476490388 60.5624517563 0.0 0.0 0.0 0.0
461 1 55.4043490388 60.9617517563 0.0 0.0 0.0 0.0
462 1 60.5817490388 61.0544517563 0.0 0.0 0.0 0.0
463 1 65.9195490388 61.0303517563 0.0 0.0 0.0 0.0
464 1 71.2680490388 60.9629517563 0.0 0.0 0.0 0.0
465 1 76.5985490388 61.0369517563 0.0 0.0 0.0 0.0
466 1 78.5780490388 65.5679517563 0.0 0.0 0.0 0.0
467 1 5.09866903882 66.4186517563 0.0 0.0 0.0 0.0
468 1 10.7184490388 67.0942517563 0.0 0.0 0.0 0.0
469 1 16.2563490388 66.1226517563 0.0 0.0 0.0 0.0
470 1 21.4314490388 65.4949517563 0.0 0.0 0.0 0.0
471 1 26.6876490388 66.0250517563 0.0 0.0 0.0 0.0
472 1 31.8507490388 65.9804517563 0.0 0.0 0.0 0.0
473 1 37.1566490388 65.4194517563 0.0 0.0 0.0 0.0
474 1 42.4707490388 65.9360517563 0.0 0.0 0.0 0.0
475 1 45.4803490388 66.1274517563 0.0 0.0 0.0 0.0
476 1 52.3559490388 65.4132517563 0.0 0.0 0.0 0.0
477 1 57.5887490388 65.5299517563 0.0 0.0 0.0 0.0
478 1 62.8538490388 65.5213517563 0.0 0.0 0.0 0.0
479 1 68.1142490388 65.4467517563 0.0 0.0 0.0 0.0
480 1 73.3451490388 65.4091517563 0.0 0.0 0.0 0.0
481 1 1.44837903882 70.3093517563 0.0 0.0 0.0 0.0
482 1 8.42927903882 72.2984517563 0.0 0.0 0.0 0.0
483 1 15.0874490388 72.8478517563 0.0 0.0 0.0 0.0
484 1 17.6378490388 71.3043517563 0.0 0.0 0.0 0.0
485 1 23.7844490388 70.3139517563 0.0 0.0 0.0 0.0
486 1 29.1762490388 70.5756517563 0.0 0.0 0.0 0.0
487 1 34.5391490388 70.2385517563 0.0 0.0 0.0 0.0
488 1 39.3905490388 70.1204517563 0.0 0.0 0.0 0.0
489 1 44.5702490388 70.6512517563 0.0 0.0 0.0 0.0
490 1 49.6333490388 70.1009517563 0.0 0.0 0.0 0.0
491 1 54.7169490388 70.0393517563 0.0 0.0 0.0 0.0
492 1 59.9401490388 70.0737517563 0.0 0.0 0.0 0.0
493 1 65.1309490388 70.0331517563 0.0 0.0 0.0 0.0
494 1 70.2495490388 69.9866517563 0.0 0.0 0.0 0.0
495 1 75.2684490388 70.0381517563 0.0 0.0 0.0 0.0
496 1 77.4916490388 74.7365517563 0.0 0.0 0.0 0.0
497 1 4.03272903882 74.6765517563 0.0 0.0 0.0 0.0
498 1 10.1079490388 74.7779517563 0.0 0.0 0.0 0.0
499 1 16.3756490388 75.5370517563 0.0 0.0 0.0 0.0
500 1 21.6231490388 75.3281517563 0.0 0.0 0.0 0.0
501 1 26.3854490388 75.0840517563 0.0 0.0 0.0 0.0
502 1 31.4744490388 75.3900517563 0.0 0.0 0.0 0.0
503 1 34.4953490388 75.4287517563 0.0 0.0 0.0 0.0
504 1 41.5668490388 74.7763517563 0.0 0.0 0.0 0.0
505 1 47.1451490388 74.8270517563 0.0 0.0 0.0 0.0
506 1 52.2201490388 74.7242517563 0.0 0.0 0.0 0.0
507 1 57.2777490388 74.7071517563 0.0 0.0 0.0 0.0
508 1 62.3863490388 74.6750517563 0.0 0.0 0.0 0.0
509 1 67.4693490388 74.6267517563 0.0 0.0 0.0 0.0
510 1 72.4934490388 74.6259517563 0.0 0.0 0.0 0.0
511 1 4.64358903882 77.6183517563 0.0 0.0 0.0 0.0
512 1 9.93554903882 77.7876517563 0.0 0.0 0.0 0.0
513 1 15.3941490388 78.3663517563 0.0 0.0 0.0 0.0
514 1 20.8622490388 78.2521517563 0.0 0.0 0.0 0.0
515 1 25.9604490388 78.0895517563 0.0 0.0 0.0 0.0
516 1 31.0802490388 78.3678517563 0.0 0.0 0.0 0.0
517 1 36.2144490388 77.9104517563 0.0 0.0 0.0 0.0
518 1 41.7233490388 77.7866517563 0.0 0.0 0.0 0.0
519 1 47.1084490388 77.8427517563 0.0 0.0 0.0 0.0
520 1 52.2919490388 77.7499517563 0.0 0.0 0.0 0.0
521 1 57.3199490388 77.7311517563 0.0 0.0 0.0 0.0
522 1 62.3545490388 77.6926517563 0.0 0.0 0.0 0.0
523 1 67.4464490388 77.6379517563 0.0 0.0 0.0 0.0
524 1 72.5305490388 77.6267517563 0.0 0.0 0.0 0.0
525 1 77.8546490388 77.7075517563 0.0 0.0 0.0 0.0
526 1 1.89516903882 78.8447517563 0.0 0.0 0.0 0.0
527 1 7.24000903882 79.1607517563 0.0 0.0 0.0 0.0
528 1 12.5307490388 79.3369517563 0.0 0.0 0.0 0.0
529 1 18.1452490388 79.5990517563 0.0 0.0 0.0 0.0
530 1 23.4539490388 79.7831517563 0.0 0.0 0.0 0.0
531 1 28.4395490388 79.7986517563 0.0 0.0 0.0 0.0
532 1 33.7877490388 79.6771517563 0.0 0.0 0.0 0.0
533 1 39.0033490388 79.0964517563 0.0 0.0 0.0 0.0
534 1 44.4062490388 79.1929517563 0.0 0.0 0.0 0.0
535 1 49.7293490388 79.3447517563 0.0 0.0 0.0 0.0
536 1 54.8153490388 79.4120517563 0.0 0.0 0.0 0.0
537 1 59.8508490388 79.3703517563 0.0 0.0 0.0 0.0
538 1 64.9191490388 79.2688517563 0.0 0.0 0.0 0.0
539 1 69.9951490388 79.2338517563 0.0 0.0 0.0 0.0
540 1 75.1722490388 79.0526517563 0.0 0.0 0.0 0.0
541 2 1.86600903882 80.3447517563 0.0 0.0 0.0 0.0
542 2 3.10514903882 1.82327175627 0.0 0.0 0.0 0.0
543 2 0.514907038823 1.76043175627 0.0 0.0 0.0 0.0
544 2 7.12137903882 80.6680517563 0.0 0.0 0.0 0.0
545 2 8.29102903882 2.17368175627 0.0 0.0 0.0 0.0
546 2 5.67724903882 2.10210175627 0.0 0.0 0.0 0.0
547 2 12.3749490388 0.0370497562734 0.0 0.0 0.0 0.0
548 2 13.5426490388 2.32502175627 0.0 0.0 0.0 0.0
549 2 10.9131490388 2.24116175627 0.0 0.0 0.0 0.0
550 2 17.8678490388 0.278461756273 0.0 0.0 0.0 0.0
551 2 18.8182490388 2.53426175627 0.0 0.0 0.0 0.0
552 2 16.1821490388 2.38473175627 0.0 0.0 0.0 0.0
553 2 23.2158490388 0.478831756273 0.0 0.0 0.0 0.0
554 2 21.4291490388 2.51147175627 0.0 0.0 0.0 0.0
555 2 23.6105490388 3.21945175627 0.0 0.0 0.0 0.0
556 2 28.6046490388 0.496651756273 0.0 0.0 0.0 0.0
557 2 30.2892490388 2.55960175627 0.0 0.0 0.0 0.0
558 2 27.9941490388 3.16021175627 0.0 0.0 0.0 0.0
559 2 33.9960490388 0.357661756273 0.0 0.0 0.0 0.0
560 2 35.5763490388 2.42726175627 0.0 0.0 0.0 0.0
561 2 32.9122490388 2.59949175627 0.0 0.0 0.0 0.0
562 2 39.1854490388 80.5980517563 0.0 0.0 0.0 0.0
563 2 40.7130490388 2.02194175627 0.0 0.0 0.0 0.0
564 2 38.1750490388 2.17509175627 0.0 0.0 0.0 0.0
565 2 44.5432490388 80.6967517563 0.0 0.0 0.0 0.0
566 2 45.9593490388 2.19311175627 0.0 0.0 0.0 0.0
567 2 43.3428490388 2.10095175627 0.0 0.0 0.0 0.0
568 2 49.8280490388 0.0507857562734 0.0 0.0 0.0 0.0
569 2 51.1436490388 2.41671175627 0.0 0.0 0.0 0.0
570 2 48.5675490388 2.26731175627 0.0 0.0 0.0 0.0
571 2 54.8846490388 0.122650756273 0.0 0.0 0.0 0.0
572 2 56.1911490388 2.48946175627 0.0 0.0 0.0 0.0
573 2 53.6705490388 2.44208175627 0.0 0.0 0.0 0.0
574 2 59.8725490388 0.0797987562734 0.0 0.0 0.0 0.0
575 2 61.2113490388 2.34528175627 0.0 0.0 0.0 0.0
576 2 58.6786490388 2.46658175627 0.0 0.0 0.0 0.0
577 2 64.9783490388 80.7745517563 0.0 0.0 0.0 0.0
578 2 66.3565490388 2.21470175627 0.0 0.0 0.0 0.0
579 2 63.7770490388 2.30113175627 0.0 0.0 0.0 0.0
580 2 70.1376490388 80.7298517563 0.0 0.0 0.0 0.0
581 2 71.5423490388 2.22412175627 0.0 0.0 0.0 0.0
582 2 68.9639490388 2.17422175627 0.0 0.0 0.0 0.0
583 2 75.2013490388 80.5513517563 0.0 0.0 0.0 0.0
584 2 76.6288490388 1.89366175627 0.0 0.0 0.0 0.0
585 2 74.0566490388 2.10817175627 0.0 0.0 0.0 0.0
586 2 78.1501490388 4.03172175627 0.0 0.0 0.0 0.0
587 2 1.25850903882 5.48216175627 0.0 0.0 0.0 0.0
588 2 77.3357490388 6.46959175627 0.0 0.0 0.0 0.0
589 2 3.45898903882 6.65046175627 0.0 0.0 0.0 0.0
590 2 5.66654903882 7.80718175627 0.0 0.0 0.0 0.0
591 2 3.34865903882 9.23615175627 0.0 0.0 0.0 0.0
592 2 9.55434903882 4.46613175627 0.0 0.0 0.0 0.0
593 2 10.9313490388 6.64087175627 0.0 0.0 0.0 0.0
594 2 8.33187903882 6.83580175627 0.0 0.0 0.0 0.0
595 2 14.9482490388 4.58773175627 0.0 0.0 0.0 0.0
596 2 16.2714490388 6.94443175627 0.0 0.0 0.0 0.0
597 2 13.6434490388 6.69324175627 0.0 0.0 0.0 0.0
598 2 20.1165490388 4.76192175627 0.0 0.0 0.0 0.0