ITEM: TIMESTEP
0
ITEM: NUMBER OF ATOMS
1350
ITEM: BOX BOUNDS xy xz yz pp pp pp
0.0 77.8925063162 0
0.0 81.3391041848 0
-10.0 10.0 0
ITEM: ATOMS id type x y z vx vy vz
1 1 3.06535093493 1.64224209242 0.0 0.0 0.0 0.0
2 1 8.29432093493 1.15548209242 0.0 0.0 0.0 0.0
3 1 13.2965909349 0.466211092418 0.0 0.0 0.0 0.0
4 1 18.2487909349 0.432103092418 0.0 0.0 0.0 0.0
5 1 22.4110909349 3.61639209242 0.0 0.0 0.0 0.0
6 1 27.8659909349 1.76616209242 0.0 0.0 0.0 0.0
7 1 33.3313909349 1.62708209242 0.0 0.0 0.0 0.0
8 1 38.6642909349 2.37673209242 0.0 0.0 0.0 0.0
9 1 43.8770909349 2.11777209242 0.0 0.0 0.0 0.0
10 1 49.3943909349 1.53706209242 0.0 0.0 0.0 0.0
11 1 54.6655909349 1.29802209242 0.0 0.0 0.0 0.0
12 1 59.8651909349 1.21438209242 0.0 0.0 0.0 0.0
13 1 65.5017909349 0.907512092418 0.0 0.0 0.0 0.0
14 1 70.2978909349 3.50594209242 0.0 0.0 0.0 0.0
15 1 75.7240909349 2.03612209242 0.0 0.0 0.0 0.0
16 1 0.404930934926 6.41941209242 0.0 0.0 0.0 0.0
17 1 5.90178093493 5.97518209242 0.0 0.0 0.0 0.0
18 1 12.6100909349 5.07713209242 0.0 0.0 0.0 0.0
19 1 15.6399909349 5.17599209242 0.0 0.0 0.0 0.0
20 1 20.7595909349 6.14107209242 0.0 0.0 0.0 0.0
21 1 25.9689909349 6.49896209242 0.0 0.0 0.0 0.0
22 1 31.2966909349 5.88242209242 0.0 0.0 0.0 0.0
23 1 36.0612909349 8.37361209242 0.0 0.0 0.0 0.0
24 1 41.5929909349 6.77668209242 0.0 0.0 0.0 0.0
25 1 46.9070909349 5.97672209242 0.0 0.0 0.0 0.0
26 1 52.3432909349 5.86428209242 0.0 0.0 0.0 0.0
27 1 57.3891909349 5.78955209242 0.0 0.0 0.0 0.0
28 1 62.8230909349 5.10924209242 0.0 0.0 0.0 0.0
29 1 68.5334909349 5.94462209242 0.0 0.0 0.0 0.0
30 1 73.3892909349 6.87714209242 0.0 0.0 0.0 0.0
31 1 3.04785093493 10.4705520924 0.0 0.0 0.0 0.0
32 1 8.08207093493 10.7674520924 0.0 0.0 0.0 0.0
33 1 12.8738909349 10.4891520924 0.0 0.0 0.0 0.0
34 1 17.9207909349 10.2523520924 0.0 0.0 0.0 0.0
35 1 23.0937909349 10.8150520924 0.0 0.0 0.0 0.0
36 1 28.6508909349 10.5480520924 0.0 0.0 0.0 0.0
37 1 34.3199909349 10.8318520924 0.0 0.0 0.0 0.0
38 1 39.2443909349 11.4433520924 0.0 0.0 0.0 0.0
39 1 46.2022909349 10.1853520924 0.0 0.0 0.0 0.0
40 1 49.2159909349 10.1630520924 0.0 0.0 0.0 0.0
41 1 54.5112909349 10.4606520924 0.0 0.0 0.0 0.0
42 1 61.2755909349 9.50205209242 0.0 0.0 0.0 0.0
43 1 64.2427909349 9.08256209242 0.0 0.0 0.0 0.0
44 1 69.3214909349 10.7977520924 0.0 0.0 0.0 0.0
45 1 75.5890909349 11.4420520924 0.0 0.0 0.0 0.0
46 1 0.757740934926 15.2256520924 0.0 0.0 0.0 0.0
47 1 5.57489093493 15.2581520924 0.0 0.0 0.0 0.0
48 1 10.7987909349 15.4475520924 0.0 0.0 0.0 0.0
49 1 15.7668909349 15.0936520924 0.0 0.0 0.0 0.0
50 1 20.5057909349 15.1041520924 0.0 0.0 0.0 0.0
51 1 25.6856909349 14.8453520924 0.0 0.0 0.0 0.0
52 1 30.9388909349 14.6715520924 0.0 0.0 0.0 0.0
53 1 35.9790909349 15.7636520924 0.0 0.0 0.0 0.0
54 1 41.1012909349 16.0037520924 0.0 0.0 0.0 0.0
55 1 46.2114909349 15.3966520924 0.0 0.0 0.0 0.0
56 1 51.5698909349 14.7554520924 0.0 0.0 0.0 0.0
57 1 56.6078909349 15.2105520924 0.0 0.0 0.0 0.0
58 1 61.4453909349 14.8070520924 0.0 0.0 0.0 0.0
59 1 66.3720909349 14.1763520924 0.0 0.0 0.0 0.0
60 1 71.5473909349 15.8030520924 0.0 0.0 0.0 0.0
61 1 2.63273093493 19.9942520924 0.0 0.0 0.0 0.0
62 1 7.67027093493 19.8098520924 0.0 0.0 0.0 0.0
63 1 13.1458909349 19.9891520924 0.0 0.0 0.0 0.0
64 1 18.5948909349 20.0080520924 0.0 0.0 0.0 0.0
65 1 23.7517909349 19.4713520924 0.0 0.0 0.0 0.0
66 1 28.5993909349 19.2008520924 0.0 0.0 0.0 0.0
67 1 33.0682909349 21.8809520924 0.0 0.0 0.0 0.0
68 1 38.6497909349 20.4211520924 0.0 0.0 0.0 0.0
69 1 43.9544909349 20.2058520924 0.0 0.0 0.0 0.0
70 1 49.3450909349 19.3726520924 0.0 0.0 0.0 0.0
71 1 54.4556909349 19.5529520924 0.0 0.0 0.0 0.0
72 1 59.5825909349 19.7338520924 0.0 0.0 0.0 0.0
73 1 64.8327909349 19.0972520924 0.0 0.0 0.0 0.0
74 1 70.2951909349 18.5772520924 0.0 0.0 0.0 0.0
75 1 75.5022909349 19.4460520924 0.0 0.0 0.0 0.0
76 1 77.4806909349 24.3474520924 0.0 0.0 0.0 0.0
77 1 5.27700093493 24.5477520924 0.0 0.0 0.0 0.0
78 1 10.5268909349 24.1179520924 0.0 0.0 0.0 0.0
79 1 14.4860909349 22.6990520924 0.0 0.0 0.0 0.0
80 1 21.3420909349 24.2647520924 0.0 0.0 0.0 0.0
81 1 26.1509909349 24.1329520924 0.0 0.0 0.0 0.0
82 1 31.5186909349 24.4486520924 0.0 0.0 0.0 0.0
83 1 36.6041909349 24.8804520924 0.0 0.0 0.0 0.0
84 1 41.9395909349 24.6628520924 0.0 0.0 0.0 0.0
85 1 47.0741909349 23.9981520924 0.0 0.0 0.0 0.0
86 1 52.2107909349 24.0135520924 0.0 0.0 0.0 0.0
87 1 57.0828909349 24.2214520924 0.0 0.0 0.0 0.0
88 1 62.1760909349 23.8564520924 0.0 0.0 0.0 0.0
89 1 67.2727909349 23.1423520924 0.0 0.0 0.0 0.0
90 1 72.3067909349 23.4251520924 0.0 0.0 0.0 0.0
91 1 0.902400934926 27.0581520924 0.0 0.0 0.0 0.0
92 1 8.09813093493 28.7285520924 0.0 0.0 0.0 0.0
93 1 13.3624909349 28.4574520924 0.0 0.0 0.0 0.0
94 1 18.4074909349 28.6758520924 0.0 0.0 0.0 0.0
95 1 23.0895909349 28.9592520924 0.0 0.0 0.0 0.0
96 1 28.4577909349 28.6222520924 0.0 0.0 0.0 0.0
97 1 33.8030909349 29.2092520924 0.0 0.0 0.0 0.0
98 1 38.9510909349 29.0787520924 0.0 0.0 0.0 0.0
99 1 46.2495909349 28.3965520924 0.0 0.0 0.0 0.0
100 1 49.2423909349 28.5028520924 0.0 0.0 0.0 0.0
101 1 54.1970909349 28.8600520924 0.0 0.0 0.0 0.0
102 1 59.4897909349 28.6342520924 0.0 0.0 0.0 0.0
103 1 64.6795909349 28.0637520924 0.0 0.0 0.0 0.0
104 1 69.8496909349 27.9219520924 0.0 0.0 0.0 0.0
105 1 74.7088909349 28.3110520924 0.0 0.0 0.0 0.0
106 1 77.7991909349 32.6960520924 0.0 0.0 0.0 0.0
107 1 4.88777093493 32.8388520924 0.0 0.0 0.0 0.0
108 1 9.90529093493 32.9136520924 0.0 0.0 0.0 0.0
109 1 15.1538909349 33.1863520924 0.0 0.0 0.0 0.0
110 1 20.5602909349 33.8207520924 0.0 0.0 0.0 0.0
111 1 25.8958909349 33.1376520924 0.0 0.0 0.0 0.0
112 1 31.2807909349 33.2190520924 0.0 0.0 0.0 0.0
113 1 36.5749909349 33.6635520924 0.0 0.0 0.0 0.0
114 1 41.3462909349 33.6964520924 0.0 0.0 0.0 0.0
115 1 46.0040909349 36.1843520924 0.0 0.0 0.0 0.0
116 1 50.9566909349 33.3251520924 0.0 0.0 0.0 0.0
117 1 56.3865909349 33.1443520924 0.0 0.0 0.0 0.0
118 1 62.6690909349 32.8192520924 0.0 0.0 0.0 0.0
119 1 67.9456909349 32.4489520924 0.0 0.0 0.0 0.0
120 1 72.8234909349 32.7916520924 0.0 0.0 0.0 0.0
121 1 2.38289093493 37.4804520924 0.0 0.0 0.0 0.0
122 1 7.23364093493 37.5566520924 0.0 0.0 0.0 0.0
123 1 12.0315909349 37.4677520924 0.0 0.0 0.0 0.0
124 1 16.3039909349 35.9729520924 0.0 0.0 0.0 0.0
125 1 23.6023909349 37.7959520924 0.0 0.0 0.0 0.0
126 1 28.9230909349 37.4594520924 0.0 0.0 0.0 0.0
127 1 34.1474909349 37.7975520924 0.0 0.0 0.0 0.0
128 1 39.4351909349 38.4395520924 0.0 0.0 0.0 0.0
129 1 44.5223909349 38.8038520924 0.0 0.0 0.0 0.0
130 1 49.2822909349 38.5640520924 0.0 0.0 0.0 0.0
131 1 53.9387909349 37.5039520924 0.0 0.0 0.0 0.0
132 1 58.2099909349 35.5235520924 0.0 0.0 0.0 0.0
133 1 65.6035909349 37.0193520924 0.0 0.0 0.0 0.0
134 1 70.4951909349 37.3492520924 0.0 0.0 0.0 0.0
135 1 75.3723909349 37.4551520924 0.0 0.0 0.0 0.0
136 1 77.7755909349 42.2331520924 0.0 0.0 0.0 0.0
137 1 4.94881093493 42.3206520924 0.0 0.0 0.0 0.0
138 1 9.89219093493 42.3242520924 0.0 0.0 0.0 0.0
139 1 14.9257909349 41.6072520924 0.0 0.0 0.0 0.0
140 1 19.0948909349 39.6520520924 0.0 0.0 0.0 0.0
141 1 26.1435909349 41.9520520924 0.0 0.0 0.0 0.0
142 1 31.3399909349 42.0603520924 0.0 0.0 0.0 0.0
143 1 36.3953909349 42.4617520924 0.0 0.0 0.0 0.0
144 1 41.4472909349 43.2041520924 0.0 0.0 0.0 0.0
145 1 46.8574909349 43.5034520924 0.0 0.0 0.0 0.0
146 1 52.2634909349 42.7805520924 0.0 0.0 0.0 0.0
147 1 57.3217909349 41.1477520924 0.0 0.0 0.0 0.0
148 1 62.6892909349 40.9823520924 0.0 0.0 0.0 0.0
149 1 67.7605909349 41.8999520924 0.0 0.0 0.0 0.0
150 1 72.6678909349 42.1648520924 0.0 0.0 0.0 0.0
151 1 2.47507093493 46.9302520924 0.0 0.0 0.0 0.0
152 1 7.66475093493 47.0671520924 0.0 0.0 0.0 0.0
153 1 12.8361909349 46.5915520924 0.0 0.0 0.0 0.0
154 1 18.0752909349 45.4950520924 0.0 0.0 0.0 0.0
155 1 23.0761909349 46.0068520924 0.0 0.0 0.0 0.0
156 1 28.5055909349 46.4554520924 0.0 0.0 0.0 0.0
157 1 33.7325909349 46.8448520924 0.0 0.0 0.0 0.0
158 1 38.1289909349 49.3929520924 0.0 0.0 0.0 0.0
159 1 43.6439909349 47.6491520924 0.0 0.0 0.0 0.0
160 1 50.3620909349 47.3329520924 0.0 0.0 0.0 0.0
161 1 56.9004909349 45.7828520924 0.0 0.0 0.0 0.0
162 1 59.8631909349 45.3765520924 0.0 0.0 0.0 0.0
163 1 64.6492909349 45.9474520924 0.0 0.0 0.0 0.0
164 1 69.6705909349 46.7513520924 0.0 0.0 0.0 0.0
165 1 74.8816909349 46.7928520924 0.0 0.0 0.0 0.0
166 1 77.3305909349 51.1157520924 0.0 0.0 0.0 0.0
167 1 4.84243093493 51.5746520924 0.0 0.0 0.0 0.0
168 1 10.7612909349 51.3960520924 0.0 0.0 0.0 0.0
169 1 16.0283909349 50.4597520924 0.0 0.0 0.0 0.0
170 1 21.1011909349 50.3988520924 0.0 0.0 0.0 0.0
171 1 26.1695909349 50.4675520924 0.0 0.0 0.0 0.0
172 1 30.7249909349 53.1144520924 0.0 0.0 0.0 0.0
173 1 36.5925909349 51.9754520924 0.0 0.0 0.0 0.0
174 1 41.9734909349 52.1580520924 0.0 0.0 0.0 0.0
175 1 45.6147909349 49.9151520924 0.0 0.0 0.0 0.0
176 1 52.6799909349 51.5914520924 0.0 0.0 0.0 0.0
177 1 57.3817909349 51.3359520924 0.0 0.0 0.0 0.0
178 1 62.2858909349 50.4321520924 0.0 0.0 0.0 0.0
179 1 66.5849909349 53.2030520924 0.0 0.0 0.0 0.0
180 1 71.9720909349 51.3015520924 0.0 0.0 0.0 0.0
181 1 2.26496093493 55.6329520924 0.0 0.0 0.0 0.0
182 1 6.36852093493 54.1867520924 0.0 0.0 0.0 0.0
183 1 13.4844909349 55.3117520924 0.0 0.0 0.0 0.0
184 1 18.6857909349 55.0929520924 0.0 0.0 0.0 0.0
185 1 23.9534909349 55.1133520924 0.0 0.0 0.0 0.0
186 1 29.0562909349 55.6306520924 0.0 0.0 0.0 0.0
187 1 33.9549909349 55.9678520924 0.0 0.0 0.0 0.0
188 1 39.7208909349 56.3492520924 0.0 0.0 0.0 0.0
189 1 46.5277909349 55.3755520924 0.0 0.0 0.0 0.0
190 1 49.5260909349 55.4723520924 0.0 0.0 0.0 0.0
191 1 54.5007909349 56.2431520924 0.0 0.0 0.0 0.0
192 1 59.7711909349 55.5465520924 0.0 0.0 0.0 0.0
193 1 65.2222909349 55.8961520924 0.0 0.0 0.0 0.0
194 1 69.7874909349 56.1687520924 0.0 0.0 0.0 0.0
195 1 75.0016909349 55.5748520924 0.0 0.0 0.0 0.0
196 1 0.0308469349261 60.1226520924 0.0 0.0 0.0 0.0
197 1 5.30124093493 59.9112520924 0.0 0.0 0.0 0.0
198 1 10.3465909349 59.7548520924 0.0 0.0 0.0 0.0
199 1 15.6556909349 59.7039520924 0.0 0.0 0.0 0.0
200 1 21.3077909349 59.6068520924 0.0 0.0 0.0 0.0
201 1 26.3475909349 60.0276520924 0.0 0.0 0.0 0.0
202 1 31.0030909349 60.4991520924 0.0 0.0 0.0 0.0
203 1 36.2969909349 59.8801520924 0.0 0.0 0.0 0.0
204 1 41.9403909349 60.7541520924 0.0 0.0 0.0 0.0
205 1 46.3492909349 60.9672520924 0.0 0.0 0.0 0.0
206 1 51.5353909349 60.5263520924 0.0 0.0 0.0 0.0
207 1 56.7987909349 60.2914520924 0.0 0.0 0.0 0.0
208 1 62.1316909349 59.9893520924 0.0 0.0 0.0 0.0
209 1 67.2812909349 61.0076520924 0.0 0.0 0.0 0.0
210 1 72.5574909349 60.3061520924 0.0 0.0 0.0 0.0
211 1 2.09083093493 64.4588520924 0.0 0.0 0.0 0.0
212 1 7.42850093493 64.5640520924 0.0 0.0 0.0 0.0
213 1 13.0699909349 64.2349520924 0.0 0.0 0.0 0.0
214 1 18.5681909349 63.7119520924 0.0 0.0 0.0 0.0
215 1 23.7649909349 64.5065520924 0.0 0.0 0.0 0.0
216 1 29.0482909349 65.1584520924 0.0 0.0 0.0 0.0
217 1 35.4269909349 64.0333520924 0.0 0.0 0.0 0.0
218 1 38.4241909349 64.0777520924 0.0 0.0 0.0 0.0
219 1 43.2085909349 65.7929520924 0.0 0.0 0.0 0.0
220 1 48.6690909349 65.2732520924 0.0 0.0 0.0 0.0
221 1 54.2077909349 64.9161520924 0.0 0.0 0.0 0.0
222 1 59.7145909349 64.5300520924 0.0 0.0 0.0 0.0
223 1 64.4298909349 66.9880520924 0.0 0.0 0.0 0.0
224 1 71.8534909349 64.5413520924 0.0 0.0 0.0 0.0
225 1 74.8766909349 64.5426520924 0.0 0.0 0.0 0.0
226 1 77.5356909349 69.1622520924 0.0 0.0 0.0 0.0
227 1 4.63297093493 68.9337520924 0.0 0.0 0.0 0.0
228 1 8.84214093493 67.2565520924 0.0 0.0 0.0 0.0
229 1 16.1926909349 68.1334520924 0.0 0.0 0.0 0.0
230 1 20.5034909349 70.7287520924 0.0 0.0 0.0 0.0
231 1 26.1451909349 69.2985520924 0.0 0.0 0.0 0.0
232 1 31.5799909349 69.9507520924 0.0 0.0 0.0 0.0
233 1 37.4851909349 67.7838520924 0.0 0.0 0.0 0.0
234 1 40.1466909349 71.7855520924 0.0 0.0 0.0 0.0
235 1 45.8123909349 69.8736520924 0.0 0.0 0.0 0.0
236 1 51.3920909349 69.3504520924 0.0 0.0 0.0 0.0
237 1 56.9086909349 69.0172520924 0.0 0.0 0.0 0.0
238 1 62.4631909349 69.2874520924 0.0 0.0 0.0 0.0
239 1 67.4832909349 70.4004520924 0.0 0.0 0.0 0.0
240 1 72.4052909349 69.5097520924 0.0 0.0 0.0 0.0
241 1 2.62427093493 73.7537520924 0.0 0.0 0.0 0.0
242 1 7.71890093493 73.0076520924 0.0 0.0 0.0 0.0
243 1 12.9709909349 72.5376520924 0.0 0.0 0.0 0.0
244 1 18.5064909349 72.9965520924 0.0 0.0 0.0 0.0
245 1 23.6939909349 73.8023520924 0.0 0.0 0.0 0.0
246 1 28.6626909349 73.9340520924 0.0 0.0 0.0 0.0
247 1 33.9022909349 74.3129520924 0.0 0.0 0.0 0.0
248 1 39.1794909349 74.6345520924 0.0 0.0 0.0 0.0
249 1 43.9372909349 74.3581520924 0.0 0.0 0.0 0.0
250 1 49.0209909349 73.7952520924 0.0 0.0 0.0 0.0
251 1 54.2260909349 73.4539520924 0.0 0.0 0.0 0.0
252 1 59.4336909349 73.3657520924 0.0 0.0 0.0 0.0
253 1 64.7287909349 74.3247520924 0.0 0.0 0.0 0.0
254 1 70.4797909349 74.5511520924 0.0 0.0 0.0 0.0
255 1 75.4936909349 73.9441520924 0.0 0.0 0.0 0.0
256 1 0.551130934926 3.37700209242 0.0 0.0 0.0 0.0
257 1 5.82045093493 2.93323209242 0.0 0.0 0.0 0.0
258 1 11.0421909349 2.46774209242 0.0 0.0 0.0 0.0
259 1 15.7983909349 2.16382209242 0.0 0.0 0.0 0.0
260 1 21.2237909349 0.868102092418 0.0 0.0 0.0 0.0
261 1 25.4275909349 3.54775209242 0.0 0.0 0.0 0.0
262 1 30.6322909349 2.95583209242 0.0 0.0 0.0 0.0
263 1 35.8038909349 3.33662209242 0.0 0.0 0.0 0.0
264 1 41.3450909349 3.76967209242 0.0 0.0 0.0 0.0
265 1 46.7552909349 2.98813209242 0.0 0.0 0.0 0.0
266 1 52.0972909349 2.86781209242 0.0 0.0 0.0 0.0
267 1 57.2907909349 2.78106209242 0.0 0.0 0.0 0.0
268 1 62.7424909349 2.11951209242 0.0 0.0 0.0 0.0
269 1 68.5225909349 1.08549209242 0.0 0.0 0.0 0.0
270 1 73.2982909349 3.85993209242 0.0 0.0 0.0 0.0
271 1 3.24902093493 7.45833209242 0.0 0.0 0.0 0.0
272 1 8.36003093493 7.76857209242 0.0 0.0 0.0 0.0
273 1 11.3898909349 7.83482209242 0.0 0.0 0.0 0.0
274 1 17.9170909349 7.20415209242 0.0 0.0 0.0 0.0
275 1 23.2586909349 7.82035209242 0.0 0.0 0.0 0.0
276 1 28.7886909349 7.55033209242 0.0 0.0 0.0 0.0
277 1 34.3098909349 5.94426209242 0.0 0.0 0.0 0.0
278 1 39.0764909349 8.44857209242 0.0 0.0 0.0 0.0
279 1 44.4645909349 7.72662209242 0.0 0.0 0.0 0.0
280 1 49.6519909349 7.19868209242 0.0 0.0 0.0 0.0
281 1 54.8884909349 7.47070209242 0.0 0.0 0.0 0.0
282 1 60.2584909349 6.68764209242 0.0 0.0 0.0 0.0
283 1 65.5447909349 6.38044209242 0.0 0.0 0.0 0.0
284 1 70.6326909349 8.09773209242 0.0 0.0 0.0 0.0
285 1 75.9811909349 8.41622209242 0.0 0.0 0.0 0.0
286 1 0.601920934926 12.2271520924 0.0 0.0 0.0 0.0
287 1 5.47193093493 12.2502520924 0.0 0.0 0.0 0.0
288 1 10.5861909349 12.4394520924 0.0 0.0 0.0 0.0
289 1 15.4809909349 12.0494520924 0.0 0.0 0.0 0.0
290 1 20.3482909349 12.0752520924 0.0 0.0 0.0 0.0
291 1 25.9244909349 11.8527520924 0.0 0.0 0.0 0.0
292 1 31.4304909349 11.7091520924 0.0 0.0 0.0 0.0
293 1 36.5686909349 12.8206520924 0.0 0.0 0.0 0.0
294 1 41.7505909349 13.0819520924 0.0 0.0 0.0 0.0
295 1 44.7362909349 12.7896520924 0.0 0.0 0.0 0.0
296 1 51.7784909349 11.7518520924 0.0 0.0 0.0 0.0
297 1 56.9485909349 12.2329520924 0.0 0.0 0.0 0.0
298 1 59.9561909349 12.1901520924 0.0 0.0 0.0 0.0
299 1 66.3517909349 11.1901520924 0.0 0.0 0.0 0.0
300 1 74.0608909349 14.0918520924 0.0 0.0 0.0 0.0
301 1 3.14816093493 17.0304520924 0.0 0.0 0.0 0.0
302 1 8.12843093493 16.8363520924 0.0 0.0 0.0 0.0
303 1 13.3994909349 16.9730520924 0.0 0.0 0.0 0.0
304 1 18.1415909349 16.9875520924 0.0 0.0 0.0 0.0
305 1 23.1802909349 16.5080520924 0.0 0.0 0.0 0.0
306 1 28.3544909349 16.2076520924 0.0 0.0 0.0 0.0
307 1 33.1322909349 16.7105520924 0.0 0.0 0.0 0.0
308 1 38.4667909349 17.4318520924 0.0 0.0 0.0 0.0
309 1 43.8357909349 17.2221520924 0.0 0.0 0.0 0.0
310 1 49.0471909349 16.3817520924 0.0 0.0 0.0 0.0
311 1 53.9519909349 16.5897520924 0.0 0.0 0.0 0.0
312 1 59.1743909349 16.7628520924 0.0 0.0 0.0 0.0
313 1 64.1322909349 16.1668520924 0.0 0.0 0.0 0.0
314 1 69.3380909349 13.7909520924 0.0 0.0 0.0 0.0
315 1 75.9209909349 16.4598520924 0.0 0.0 0.0 0.0
316 1 77.8398909349 21.3533520924 0.0 0.0 0.0 0.0
317 1 5.20513093493 21.5410520924 0.0 0.0 0.0 0.0
318 1 10.3672909349 21.1222520924 0.0 0.0 0.0 0.0
319 1 17.4739909349 22.8321520924 0.0 0.0 0.0 0.0
320 1 21.3327909349 21.2487520924 0.0 0.0 0.0 0.0
321 1 26.2753909349 21.1145520924 0.0 0.0 0.0 0.0
322 1 31.5963909349 19.2856520924 0.0 0.0 0.0 0.0
323 1 36.0668909349 21.9419520924 0.0 0.0 0.0 0.0
324 1 41.3635909349 21.7176520924 0.0 0.0 0.0 0.0
325 1 46.8378909349 21.0185520924 0.0 0.0 0.0 0.0
326 1 51.8511909349 21.0335520924 0.0 0.0 0.0 0.0
327 1 56.9668909349 21.2143520924 0.0 0.0 0.0 0.0
328 1 62.3750909349 20.8523520924 0.0 0.0 0.0 0.0
329 1 67.6734909349 20.1331520924 0.0 0.0 0.0 0.0
330 1 72.6602909349 20.4403520924 0.0 0.0 0.0 0.0
331 1 3.88533093493 27.2112520924 0.0 0.0 0.0 0.0
332 1 8.01908093493 25.7368520924 0.0 0.0 0.0 0.0
333 1 13.2154909349 25.4356520924 0.0 0.0 0.0 0.0
334 1 18.6652909349 25.6296520924 0.0 0.0 0.0 0.0
335 1 23.7807909349 26.0088520924 0.0 0.0 0.0 0.0
336 1 28.7549909349 25.6287520924 0.0 0.0 0.0 0.0
337 1 33.9297909349 26.2254520924 0.0 0.0 0.0 0.0
338 1 39.3257909349 26.1173520924 0.0 0.0 0.0 0.0
339 1 44.7065909349 25.8249520924 0.0 0.0 0.0 0.0
340 1 49.6403909349 25.5388520924 0.0 0.0 0.0 0.0
341 1 54.5688909349 25.8691520924 0.0 0.0 0.0 0.0
342 1 59.7368909349 25.6305520924 0.0 0.0 0.0 0.0
343 1 64.9286909349 25.0547520924 0.0 0.0 0.0 0.0
344 1 69.7032909349 24.9150520924 0.0 0.0 0.0 0.0
345 1 74.6424909349 25.3082520924 0.0 0.0 0.0 0.0
346 1 77.3652909349 29.7061520924 0.0 0.0 0.0 0.0
347 1 5.32000093493 29.8571520924 0.0 0.0 0.0 0.0
348 1 10.7905909349 30.0380520924 0.0 0.0 0.0 0.0
349 1 15.8078909349 30.2246520924 0.0 0.0 0.0 0.0
350 1 20.6290909349 30.7506520924 0.0 0.0 0.0 0.0
351 1 25.8554909349 30.1365520924 0.0 0.0 0.0 0.0
352 1 30.9925909349 30.2382520924 0.0 0.0 0.0 0.0
353 1 36.4177909349 30.6720520924 0.0 0.0 0.0 0.0
354 1 41.4446909349 30.7139520924 0.0 0.0 0.0 0.0
355 1 44.4274909349 30.7510520924 0.0 0.0 0.0 0.0
356 1 51.5832909349 30.3779520924 0.0 0.0 0.0 0.0
357 1 56.9010909349 30.1826520924 0.0 0.0 0.0 0.0
358 1 62.2429909349 29.8417520924 0.0 0.0 0.0 0.0
359 1 67.3124909349 29.5132520924 0.0 0.0 0.0 0.0
360 1 72.1519909349 29.8591520924 0.0 0.0 0.0 0.0
361 1 2.35156093493 34.4563520924 0.0 0.0 0.0 0.0
362 1 7.36909093493 34.5399520924 0.0 0.0 0.0 0.0
363 1 12.4439909349 34.4908520924 0.0 0.0 0.0 0.0
364 1 19.2288909349 36.5829520924 0.0 0.0 0.0 0.0
365 1 23.3947909349 34.8005520924 0.0 0.0 0.0 0.0
366 1 28.5726909349 34.4904520924 0.0 0.0 0.0 0.0
367 1 33.8176909349 34.8221520924 0.0 0.0 0.0 0.0
368 1 38.9585909349 35.4831520924 0.0 0.0 0.0 0.0
369 1 44.3258909349 33.7268520924 0.0 0.0 0.0 0.0
370 1 48.9463909349 35.5790520924 0.0 0.0 0.0 0.0
371 1 53.7101909349 34.5122520924 0.0 0.0 0.0 0.0
372 1 61.1937909349 35.4313520924 0.0 0.0 0.0 0.0
373 1 65.4102909349 34.0289520924 0.0 0.0 0.0 0.0
374 1 70.2702909349 34.3522520924 0.0 0.0 0.0 0.0
375 1 75.3434909349 34.4355520924 0.0 0.0 0.0 0.0
376 1 77.8142909349 39.2111520924 0.0 0.0 0.0 0.0
377 1 4.78405093493 39.3002520924 0.0 0.0 0.0 0.0
378 1 9.66839093493 39.3179520924 0.0 0.0 0.0 0.0
379 1 14.8009909349 38.5910520924 0.0 0.0 0.0 0.0
380 1 22.0013909349 40.3355520924 0.0 0.0 0.0 0.0
381 1 26.3470909349 38.9688520924 0.0 0.0 0.0 0.0
382 1 31.4435909349 39.0724520924 0.0 0.0 0.0 0.0
383 1 36.6287909349 39.4794520924 0.0 0.0 0.0 0.0
384 1 41.8595909349 40.2120520924 0.0 0.0 0.0 0.0
385 1 46.9843909349 40.5039520924 0.0 0.0 0.0 0.0
386 1 52.0051909349 39.7922520924 0.0 0.0 0.0 0.0
387 1 56.8485909349 38.1902520924 0.0 0.0 0.0 0.0
388 1 62.7721909349 37.9841520924 0.0 0.0 0.0 0.0
389 1 67.9351909349 38.9026520924 0.0 0.0 0.0 0.0
390 1 72.8926909349 39.1568520924 0.0 0.0 0.0 0.0
391 1 2.39075093493 43.9096520924 0.0 0.0 0.0 0.0
392 1 7.42418093493 44.0515520924 0.0 0.0 0.0 0.0
393 1 12.6329909349 43.5744520924 0.0 0.0 0.0 0.0
394 1 17.8154909349 42.4364520924 0.0 0.0 0.0 0.0
395 1 23.3469909349 43.0163520924 0.0 0.0 0.0 0.0
396 1 28.7100909349 43.4766520924 0.0 0.0 0.0 0.0
397 1 33.7354909349 43.8476520924 0.0 0.0 0.0 0.0
398 1 38.6706909349 44.4083520924 0.0 0.0 0.0 0.0
399 1 44.0789909349 44.6775520924 0.0 0.0 0.0 0.0
400 1 49.7287909349 44.4053520924 0.0 0.0 0.0 0.0
401 1 55.2236909349 43.2970520924 0.0 0.0 0.0 0.0
402 1 60.0499909349 42.3886520924 0.0 0.0 0.0 0.0
403 1 64.9527909349 42.9570520924 0.0 0.0 0.0 0.0
404 1 70.1146909349 43.7669520924 0.0 0.0 0.0 0.0
405 1 75.1946909349 43.7932520924 0.0 0.0 0.0 0.0
406 1 77.5900909349 48.1207520924 0.0 0.0 0.0 0.0
407 1 5.03316093493 48.5557520924 0.0 0.0 0.0 0.0
408 1 10.3901909349 48.3886520924 0.0 0.0 0.0 0.0
409 1 15.7402909349 47.4417520924 0.0 0.0 0.0 0.0
410 1 20.4275909349 47.4298520924 0.0 0.0 0.0 0.0
411 1 25.6869909349 47.5062520924 0.0 0.0 0.0 0.0
412 1 30.9948909349 48.1366520924 0.0 0.0 0.0 0.0
413 1 36.7512909349 46.7430520924 0.0 0.0 0.0 0.0
414 1 41.1328909349 49.2814520924 0.0 0.0 0.0 0.0
415 1 48.5942909349 49.7553520924 0.0 0.0 0.0 0.0
416 1 53.0569909349 48.6279520924 0.0 0.0 0.0 0.0
417 1 56.0479909349 48.6443520924 0.0 0.0 0.0 0.0
418 1 62.0391909349 47.4368520924 0.0 0.0 0.0 0.0
419 1 66.8956909349 47.9391520924 0.0 0.0 0.0 0.0
420 1 72.2554909349 48.2971520924 0.0 0.0 0.0 0.0
421 1 2.03298093493 52.6359520924 0.0 0.0 0.0 0.0
422 1 9.37019093493 54.0867520924 0.0 0.0 0.0 0.0
423 1 13.6298909349 52.2962520924 0.0 0.0 0.0 0.0
424 1 18.5860909349 52.0668520924 0.0 0.0 0.0 0.0
425 1 23.6288909349 52.0949520924 0.0 0.0 0.0 0.0
426 1 29.1880909349 50.5484520924 0.0 0.0 0.0 0.0
427 1 33.7404909349 52.9820520924 0.0 0.0 0.0 0.0
428 1 39.2458909349 53.4013520924 0.0 0.0 0.0 0.0
429 1 44.8953909349 52.8362520924 0.0 0.0 0.0 0.0
430 1 49.8384909349 52.4873520924 0.0 0.0 0.0 0.0
431 1 55.1218909349 53.3086520924 0.0 0.0 0.0 0.0
432 1 60.1284909349 52.5434520924 0.0 0.0 0.0 0.0
433 1 65.2960909349 50.4955520924 0.0 0.0 0.0 0.0
434 1 69.5931909349 53.1682520924 0.0 0.0 0.0 0.0
435 1 74.7005909349 52.5816520924 0.0 0.0 0.0 0.0
436 1 77.5674909349 57.1400520924 0.0 0.0 0.0 0.0
437 1 4.99970093493 56.8855520924 0.0 0.0 0.0 0.0
438 1 10.8236909349 56.7423520924 0.0 0.0 0.0 0.0
439 1 16.1366909349 56.7233520924 0.0 0.0 0.0 0.0
440 1 21.3183909349 56.5844520924 0.0 0.0 0.0 0.0
441 1 26.3496909349 56.9787520924 0.0 0.0 0.0 0.0
442 1 31.3801909349 57.5242520924 0.0 0.0 0.0 0.0
443 1 36.7829909349 56.9473520924 0.0 0.0 0.0 0.0
444 1 42.3562909349 57.7972520924 0.0 0.0 0.0 0.0
445 1 45.3356909349 58.1236520924 0.0 0.0 0.0 0.0
446 1 51.7566909349 57.5088520924 0.0 0.0 0.0 0.0
447 1 57.3080909349 57.3186520924 0.0 0.0 0.0 0.0
448 1 62.4139909349 56.9906520924 0.0 0.0 0.0 0.0
449 1 67.3874909349 57.9874520924 0.0 0.0 0.0 0.0
450 1 72.5542909349 57.3104520924 0.0 0.0 0.0 0.0
451 1 2.71280093493 61.4961520924 0.0 0.0 0.0 0.0
452 1 7.86740093493 61.5345520924 0.0 0.0 0.0 0.0
453 1 13.0086909349 61.2040520924 0.0 0.0 0.0 0.0
454 1 18.5010909349 60.7165520924 0.0 0.0 0.0 0.0
455 1 23.6960909349 61.4731520924 0.0 0.0 0.0 0.0
456 1 28.5082909349 62.1645520924 0.0 0.0 0.0 0.0
457 1 33.8079909349 61.5285520924 0.0 0.0 0.0 0.0
458 1 38.9924909349 61.1620520924 0.0 0.0 0.0 0.0
459 1 44.0343909349 62.8913520924 0.0 0.0 0.0 0.0
460 1 49.0596909349 62.2677520924 0.0 0.0 0.0 0.0
461 1 54.2283909349 61.8919520924 0.0 0.0 0.0 0.0
462 1 59.5365909349 61.5287520924 0.0 0.0 0.0 0.0
463 1 64.4042909349 61.9644520924 0.0 0.0 0.0 0.0
464 1 70.1200909349 62.0698520924 0.0 0.0 0.0 0.0
465 1 75.2874909349 61.5707520924 0.0 0.0 0.0 0.0
466 1 77.4516909349 66.1309520924 0.0 0.0 0.0 0.0
467 1 4.72574093493 65.9149520924 0.0 0.0 0.0 0.0
468 1 11.8444909349 67.0085520924 0.0 0.0 0.0 0.0
469 1 15.9267909349 65.1435520924 0.0 0.0 0.0 0.0
470 1 20.9313909349 65.5628520924 0.0 0.0 0.0 0.0
471 1 26.2328909349 66.2760520924 0.0 0.0 0.0 0.0
472 1 31.5408909349 66.9381520924 0.0 0.0 0.0 0.0
473 1 34.5766909349 66.8804520924 0.0 0.0 0.0 0.0
474 1 40.2291909349 66.4634520924 0.0 0.0 0.0 0.0
475 1 46.0494909349 66.8573520924 0.0 0.0 0.0 0.0
476 1 51.5116909349 66.3344520924 0.0 0.0 0.0 0.0
477 1 57.0470909349 65.9997520924 0.0 0.0 0.0 0.0
478 1 62.7482909349 64.4969520924 0.0 0.0 0.0 0.0
479 1 67.4333909349 67.4092520924 0.0 0.0 0.0 0.0
480 1 70.4544909349 67.1919520924 0.0 0.0 0.0 0.0
481 1 2.21899093493 70.7475520924 0.0 0.0 0.0 0.0
482 1 7.46078093493 69.9693520924 0.0 0.0 0.0 0.0
483 1 13.5171909349 69.5399520924 0.0 0.0 0.0 0.0
484 1 19.2055909349 68.0357520924 0.0 0.0 0.0 0.0
485 1 23.5250909349 70.8095520924 0.0 0.0 0.0 0.0
486 1 28.7112909349 70.9190520924 0.0 0.0 0.0 0.0
487 1 34.2971909349 71.3312520924 0.0 0.0 0.0 0.0
488 1 37.2880909349 70.7653520924 0.0 0.0 0.0 0.0
489 1 43.1834909349 71.4400520924 0.0 0.0 0.0 0.0
490 1 48.7120909349 70.7930520924 0.0 0.0 0.0 0.0
491 1 54.2233909349 70.4358520924 0.0 0.0 0.0 0.0
492 1 59.6260909349 70.3507520924 0.0 0.0 0.0 0.0
493 1 64.6434909349 71.3429520924 0.0 0.0 0.0 0.0
494 1 70.2405909349 71.5745520924 0.0 0.0 0.0 0.0
495 1 75.0834909349 70.9286520924 0.0 0.0 0.0 0.0
496 1 0.178329934926 75.5420520924 0.0 0.0 0.0 0.0
497 1 5.39592093493 74.9886520924 0.0 0.0 0.0 0.0
498 1 10.4679909349 74.2919520924 0.0 0.0 0.0 0.0
499 1 15.6354909349 73.9858520924 0.0 0.0 0.0 0.0
500 1 20.8751909349 74.8398520924 0.0 0.0 0.0 0.0
501 1 26.1281909349 75.5569520924 0.0 0.0 0.0 0.0
502 1 31.1746909349 75.5894520924 0.0 0.0 0.0 0.0
503 1 36.4532909349 75.9081520924 0.0 0.0 0.0 0.0
504 1 41.6554909349 76.3100520924 0.0 0.0 0.0 0.0
505 1 46.6478909349 75.6516520924 0.0 0.0 0.0 0.0
506 1 51.7199909349 75.1327520924 0.0 0.0 0.0 0.0
507 1 56.8535909349 74.9280520924 0.0 0.0 0.0 0.0
508 1 61.8487909349 75.1690520924 0.0 0.0 0.0 0.0
509 1 67.5725909349 75.3030520924 0.0 0.0 0.0 0.0
510 1 73.1755909349 75.8865520924 0.0 0.0 0.0 0.0
511 1 5.38276093493 78.0422520924 0.0 0.0 0.0 0.0
512 1 10.2735909349 77.3388520924 0.0 0.0 0.0 0.0
513 1 15.3351909349 76.9968520924 0.0 0.0 0.0 0.0
514 1 20.5551909349 77.8093520924 0.0 0.0 0.0 0.0
515 1 25.6542909349 78.5294520924 0.0 0.0 0.0 0.0
516 1 30.8068909349 78.5794520924 0.0 0.0 0.0 0.0
517 1 36.2866909349 78.9124520924 0.0 0.0 0.0 0.0
518 1 41.3712909349 79.2944520924 0.0 0.0 0.0 0.0
519 1 46.5601909349 78.6654520924 0.0 0.0 0.0 0.0
520 1 51.7869909349 78.1492520924 0.0 0.0 0.0 0.0
521 1 56.8941909349 77.9442520924 0.0 0.0 0.0 0.0
522 1 62.0565909349 78.1590520924 0.0 0.0 0.0 0.0
523 1 67.6418909349 78.2840520924 0.0 0.0 0.0 0.0
524 1 73.0279909349 78.9026520924 0.0 0.0 0.0 0.0
525 1 0.272770934926 78.5827520924 0.0 0.0 0.0 0.0
526 1 2.99246093493 79.9317520924 0.0 0.0 0.0 0.0
527 1 8.07306093493 79.4441520924 0.0 0.0 0.0 0.0
528 1 12.9172909349 78.7997520924 0.0 0.0 0.0 0.0
529 1 17.7320909349 78.8150520924 0.0 0.0 0.0 0.0
530 1 22.8800909349 79.7020520924 0.0 0.0 0.0 0.0
531 1 28.2075909349 80.1134520924 0.0 0.0 0.0 0.0
532 1 33.4723909349 79.9729520924 0.0 0.0 0.0 0.0
533 1 38.7116909349 80.7024520924 0.0 0.0 0.0 0.0
534 1 44.1341909349 80.4608520924 0.0 0.0 0.0 0.0
535 1 49.3154909349 79.8698520924 0.0 0.0 0.0 0.0
536 1 54.4058909349 79.6356520924 0.0 0.0 0.0 0.0
537 1 59.4175909349 79.5840520924 0.0 0.0 0.0 0.0
538 1 64.8292909349 79.3278520924 0.0 0.0 0.0 0.0
539 1 70.1708909349 79.9038520924 0.0 0.0 0.0 0.0
540 1 75.6884909349 80.3429520924 0.0 0.0 0.0 0.0
541 2 3.03210093493 0.116598092418 0.0 0.0 0.0 0.0
542 2 4.44203093493 2.29222209242 0.0 0.0 0.0 0.0
543 2 1.81419093493 2.51853209242 0.0 0.0 0.0 0.0
544 2 8.19693093493 80.9682520924 0.0 0.0 0.0 0.0
545 2 7.05871093493 2.04806209242 0.0 0.0 0.0 0.0
546 2 9.64439093493 1.86883209242 0.0 0.0 0.0 0.0
547 2 13.1138909349 80.3026520924 0.0 0.0 0.0 0.0
548 2 14.5664909349 1.28854209242 0.0 0.0 0.0 0.0
549 2 12.1250909349 1.41380209242 0.0 0.0 0.0 0.0
550 2 17.8982909349 80.3083520924 0.0 0.0 0.0 0.0
551 2 19.7279909349 0.703052092418 0.0 0.0 0.0 0.0
552 2 17.0735909349 1.36245209242 0.0 0.0 0.0 0.0
553 2 21.7954909349 2.24844209242 0.0 0.0 0.0 0.0
554 2 23.9193909349 3.52039209242 0.0 0.0 0.0 0.0
555 2 21.4980909349 4.81482209242 0.0 0.0 0.0 0.0
556 2 28.0133909349 0.266717092418 0.0 0.0 0.0 0.0
557 2 29.2438909349 2.38321209242 0.0 0.0 0.0 0.0
558 2 26.6010909349 2.59218209242 0.0 0.0 0.0 0.0
559 2 33.4019909349 0.131938092418 0.0 0.0 0.0 0.0
560 2 34.6104909349 2.41341209242 0.0 0.0 0.0 0.0
561 2 31.9608909349 2.24572209242 0.0 0.0 0.0 0.0
562 2 38.6882909349 0.867352092418 0.0 0.0 0.0 0.0
563 2 39.9867909349 3.10340209242 0.0 0.0 0.0 0.0
564 2 37.2539909349 2.92602209242 0.0 0.0 0.0 0.0
565 2 42.6125909349 2.94112209242 0.0 0.0 0.0 0.0
566 2 45.3144909349 2.56839209242 0.0 0.0 0.0 0.0
567 2 43.9969909349 0.616972092418 0.0 0.0 0.0 0.0
568 2 49.3734909349 0.0331340924176 0.0 0.0 0.0 0.0
569 2 50.7388909349 2.21689209242 0.0 0.0 0.0 0.0
570 2 48.0634909349 2.24414209242 0.0 0.0 0.0 0.0
571 2 54.5427909349 81.1355520924 0.0 0.0 0.0 0.0
572 2 55.9813909349 2.03274209242 0.0 0.0 0.0 0.0
573 2 53.3768909349 2.07739209242 0.0 0.0 0.0 0.0
574 2 59.6010909349 81.0722520924 0.0 0.0 0.0 0.0
575 2 61.3133909349 1.63260209242 0.0 0.0 0.0 0.0
576 2 58.6001909349 2.03363209242 0.0 0.0 0.0 0.0
577 2 65.1148909349 80.7962520924 0.0 0.0 0.0 0.0
578 2 67.0060909349 1.08758209242 0.0 0.0 0.0 0.0
579 2 64.1447909349 1.56952209242 0.0 0.0 0.0 0.0
580 2 69.4128909349 2.29317209242 0.0 0.0 0.0 0.0
581 2 71.8048909349 3.58126209242 0.0 0.0 0.0 0.0
582 2 69.3805909349 4.70230209242 0.0 0.0 0.0 0.0
583 2 75.6938909349 0.519812092418 0.0 0.0 0.0 0.0
584 2 77.0855909349 2.69587209242 0.0 0.0 0.0 0.0
585 2 74.4813909349 2.91679209242 0.0 0.0 0.0 0.0
586 2 0.450710934926 4.89546209242 0.0 0.0 0.0 0.0
587 2 1.83686093493 6.91983209242 0.0 0.0 0.0 0.0
588 2 77.1595909349 7.43880209242 0.0 0.0 0.0 0.0
589 2 5.89161093493 4.45646209242 0.0 0.0 0.0 0.0
590 2 7.17185093493 6.82153209242 0.0 0.0 0.0 0.0
591 2 4.56626093493 6.70868209242 0.0 0.0 0.0 0.0
592 2 12.0028909349 6.45775209242 0.0 0.0 0.0 0.0
593 2 11.7523909349 3.81922209242 0.0 0.0 0.0 0.0
594 2 14.1227909349 5.19833209242 0.0 0.0 0.0 0.0
595 2 15.8237909349 3.66811209242 0.0 0.0 0.0 0.0
596 2 16.7459909349 6.22345209242 0.0 0.0 0.0 0.0
597 2 21.9725909349 7.04443209242 0.0 0.0 0.0 0.0
598 2 19.3279909349 6.62517209242 0.0 0.0 0.0 0.0