ITEM: TIMESTEP
0
ITEM: NUMBER OF ATOMS
1350
ITEM: BOX BOUNDS xy xz yz pp pp pp
0.0 78.1331234874 0
0.0 81.0223889859 0
-10.0 10.0 0
ITEM: ATOMS id type x y z vx vy vz
1 1 2.87277952057 1.69051449297 0.0 0.0 0.0 0.0
2 1 7.88693952057 1.11471449297 0.0 0.0 0.0 0.0
3 1 13.0623995206 1.66120449297 0.0 0.0 0.0 0.0
4 1 17.7341995206 1.50730449297 0.0 0.0 0.0 0.0
5 1 22.6936995206 0.676884492968 0.0 0.0 0.0 0.0
6 1 28.2936995206 0.705384492968 0.0 0.0 0.0 0.0
7 1 34.4728995206 1.05535449297 0.0 0.0 0.0 0.0
8 1 39.8932995206 1.84198449297 0.0 0.0 0.0 0.0
9 1 45.0046995206 2.68407449297 0.0 0.0 0.0 0.0
10 1 50.0983995206 2.43081449297 0.0 0.0 0.0 0.0
11 1 54.8932995206 1.49700449297 0.0 0.0 0.0 0.0
12 1 60.0876995206 2.74797449297 0.0 0.0 0.0 0.0
13 1 65.5496995206 0.617854492968 0.0 0.0 0.0 0.0
14 1 70.7392995206 1.35139449297 0.0 0.0 0.0 0.0
15 1 75.8680995206 1.69391449297 0.0 0.0 0.0 0.0
16 1 0.419547520567 6.28725449297 0.0 0.0 0.0 0.0
17 1 7.07327952057 5.63629449297 0.0 0.0 0.0 0.0
18 1 10.0741995206 5.83729449297 0.0 0.0 0.0 0.0
19 1 15.3831995206 6.47088449297 0.0 0.0 0.0 0.0
20 1 20.3456995206 5.80322449297 0.0 0.0 0.0 0.0
21 1 25.4143995206 4.78690449297 0.0 0.0 0.0 0.0
22 1 29.8084995206 3.32023449297 0.0 0.0 0.0 0.0
23 1 36.6735995206 5.66755449297 0.0 0.0 0.0 0.0
24 1 41.6062995206 6.68632449297 0.0 0.0 0.0 0.0
25 1 47.0004995206 7.10297449297 0.0 0.0 0.0 0.0
26 1 53.0947995206 6.74099449297 0.0 0.0 0.0 0.0
27 1 60.7519995206 5.65565449297 0.0 0.0 0.0 0.0
28 1 63.6783995206 5.10362449297 0.0 0.0 0.0 0.0
29 1 67.8594995206 7.86264449297 0.0 0.0 0.0 0.0
30 1 73.2817995206 6.10309449297 0.0 0.0 0.0 0.0
31 1 2.64084952057 11.243194493 0.0 0.0 0.0 0.0
32 1 7.19590952057 10.925094493 0.0 0.0 0.0 0.0
33 1 12.4613995206 10.549694493 0.0 0.0 0.0 0.0
34 1 17.6360995206 10.850594493 0.0 0.0 0.0 0.0
35 1 24.9433995206 9.26326449297 0.0 0.0 0.0 0.0
36 1 27.9641995206 8.89138449297 0.0 0.0 0.0 0.0
37 1 33.3002995206 9.47659449297 0.0 0.0 0.0 0.0
38 1 38.4183995206 10.757994493 0.0 0.0 0.0 0.0
39 1 43.7213995206 11.142894493 0.0 0.0 0.0 0.0
40 1 48.5046995206 9.70409449297 0.0 0.0 0.0 0.0
41 1 55.6409995206 11.098294493 0.0 0.0 0.0 0.0
42 1 60.5472995206 10.278194493 0.0 0.0 0.0 0.0
43 1 66.0586995206 10.265194493 0.0 0.0 0.0 0.0
44 1 70.8576995206 10.880794493 0.0 0.0 0.0 0.0
45 1 75.9141995206 10.669494493 0.0 0.0 0.0 0.0
46 1 0.363906520567 15.661194493 0.0 0.0 0.0 0.0
47 1 5.41806952057 16.013394493 0.0 0.0 0.0 0.0
48 1 10.4003995206 15.151294493 0.0 0.0 0.0 0.0
49 1 14.6475995206 17.658594493 0.0 0.0 0.0 0.0
50 1 19.8764995206 15.496494493 0.0 0.0 0.0 0.0
51 1 24.8952995206 14.065194493 0.0 0.0 0.0 0.0
52 1 30.5142995206 13.628394493 0.0 0.0 0.0 0.0
53 1 35.6107995206 14.609494493 0.0 0.0 0.0 0.0
54 1 40.9469995206 15.384794493 0.0 0.0 0.0 0.0
55 1 46.5591995206 15.054094493 0.0 0.0 0.0 0.0
56 1 52.3560995206 15.009294493 0.0 0.0 0.0 0.0
57 1 59.8615995206 14.916694493 0.0 0.0 0.0 0.0
58 1 62.8231995206 14.431794493 0.0 0.0 0.0 0.0
59 1 67.7341995206 15.278994493 0.0 0.0 0.0 0.0
60 1 73.0569995206 15.340294493 0.0 0.0 0.0 0.0
61 1 2.62230952057 20.483394493 0.0 0.0 0.0 0.0
62 1 7.80587952057 20.246394493 0.0 0.0 0.0 0.0
63 1 13.1229995206 20.279794493 0.0 0.0 0.0 0.0
64 1 18.1961995206 20.538794493 0.0 0.0 0.0 0.0
65 1 24.7115995206 18.525094493 0.0 0.0 0.0 0.0
66 1 27.6570995206 17.927694493 0.0 0.0 0.0 0.0
67 1 32.5196995206 18.684394493 0.0 0.0 0.0 0.0
68 1 37.6970995206 19.392894493 0.0 0.0 0.0 0.0
69 1 43.8800995206 19.398194493 0.0 0.0 0.0 0.0
70 1 49.4111995206 18.921594493 0.0 0.0 0.0 0.0
71 1 54.5801995206 19.729394493 0.0 0.0 0.0 0.0
72 1 59.4783995206 19.670194493 0.0 0.0 0.0 0.0
73 1 64.8800995206 19.511494493 0.0 0.0 0.0 0.0
74 1 70.0443995206 19.676394493 0.0 0.0 0.0 0.0
75 1 75.4646995206 19.727694493 0.0 0.0 0.0 0.0
76 1 77.4892995206 26.517794493 0.0 0.0 0.0 0.0
77 1 4.94209952057 24.955294493 0.0 0.0 0.0 0.0
78 1 9.95459952057 24.712094493 0.0 0.0 0.0 0.0
79 1 15.0235995206 24.976294493 0.0 0.0 0.0 0.0
80 1 21.4584995206 24.919894493 0.0 0.0 0.0 0.0
81 1 25.9123995206 23.451794493 0.0 0.0 0.0 0.0
82 1 30.1505995206 25.626394493 0.0 0.0 0.0 0.0
83 1 35.3165995206 23.525794493 0.0 0.0 0.0 0.0
84 1 39.3777995206 21.904094493 0.0 0.0 0.0 0.0
85 1 46.4822995206 23.265394493 0.0 0.0 0.0 0.0
86 1 51.6349995206 23.755194493 0.0 0.0 0.0 0.0
87 1 57.8136995206 24.322894493 0.0 0.0 0.0 0.0
88 1 62.8568995206 23.867494493 0.0 0.0 0.0 0.0
89 1 67.8695995206 24.111494493 0.0 0.0 0.0 0.0
90 1 73.0792995206 23.964194493 0.0 0.0 0.0 0.0
91 1 2.05277952057 29.556794493 0.0 0.0 0.0 0.0
92 1 7.89474952057 29.534394493 0.0 0.0 0.0 0.0
93 1 13.0229995206 29.406894493 0.0 0.0 0.0 0.0
94 1 17.0149995206 27.214194493 0.0 0.0 0.0 0.0
95 1 24.0714995206 28.959694493 0.0 0.0 0.0 0.0
96 1 29.1840995206 28.489294493 0.0 0.0 0.0 0.0
97 1 34.0646995206 28.473794493 0.0 0.0 0.0 0.0
98 1 39.1071995206 27.523494493 0.0 0.0 0.0 0.0
99 1 44.1967995206 27.672894493 0.0 0.0 0.0 0.0
100 1 48.8704995206 27.972794493 0.0 0.0 0.0 0.0
101 1 53.1625995206 26.323894493 0.0 0.0 0.0 0.0
102 1 60.2398995206 28.679594493 0.0 0.0 0.0 0.0
103 1 65.1479995206 28.653494493 0.0 0.0 0.0 0.0
104 1 70.2212995206 28.548194493 0.0 0.0 0.0 0.0
105 1 75.3830995206 28.679394493 0.0 0.0 0.0 0.0
106 1 77.2868995206 33.796194493 0.0 0.0 0.0 0.0
107 1 3.17798952057 32.323294493 0.0 0.0 0.0 0.0
108 1 9.67119952057 31.965294493 0.0 0.0 0.0 0.0
109 1 16.6455995206 32.931794493 0.0 0.0 0.0 0.0
110 1 20.7383995206 35.490294493 0.0 0.0 0.0 0.0
111 1 26.3310995206 33.272394493 0.0 0.0 0.0 0.0
112 1 31.7516995206 33.227894493 0.0 0.0 0.0 0.0
113 1 37.0972995206 32.542794493 0.0 0.0 0.0 0.0
114 1 42.4767995206 32.121694493 0.0 0.0 0.0 0.0
115 1 47.6409995206 32.498294493 0.0 0.0 0.0 0.0
116 1 52.5813995206 31.792494493 0.0 0.0 0.0 0.0
117 1 56.8121995206 34.639894493 0.0 0.0 0.0 0.0
118 1 62.2851995206 33.374094493 0.0 0.0 0.0 0.0
119 1 67.4017995206 33.212194493 0.0 0.0 0.0 0.0
120 1 72.3759995206 33.148594493 0.0 0.0 0.0 0.0
121 1 2.50870952057 37.943494493 0.0 0.0 0.0 0.0
122 1 7.92216952057 37.372494493 0.0 0.0 0.0 0.0
123 1 13.4224995206 37.769394493 0.0 0.0 0.0 0.0
124 1 19.3346995206 38.192194493 0.0 0.0 0.0 0.0
125 1 24.1488995206 37.698794493 0.0 0.0 0.0 0.0
126 1 29.3054995206 37.573594493 0.0 0.0 0.0 0.0
127 1 35.0122995206 37.204494493 0.0 0.0 0.0 0.0
128 1 40.2903995206 36.643494493 0.0 0.0 0.0 0.0
129 1 45.5108995206 36.843594493 0.0 0.0 0.0 0.0
130 1 52.0406995206 36.393394493 0.0 0.0 0.0 0.0
131 1 54.9995995206 37.040794493 0.0 0.0 0.0 0.0
132 1 59.6283995206 38.044394493 0.0 0.0 0.0 0.0
133 1 64.8238995206 37.885194493 0.0 0.0 0.0 0.0
134 1 69.8784995206 37.885394493 0.0 0.0 0.0 0.0
135 1 75.1531995206 38.096294493 0.0 0.0 0.0 0.0
136 1 0.0225395205666 42.257094493 0.0 0.0 0.0 0.0
137 1 5.40177952057 41.953594493 0.0 0.0 0.0 0.0
138 1 10.5998995206 41.808894493 0.0 0.0 0.0 0.0
139 1 14.7020995206 40.516394493 0.0 0.0 0.0 0.0
140 1 21.5346995206 42.642194493 0.0 0.0 0.0 0.0
141 1 26.6137995206 42.098894493 0.0 0.0 0.0 0.0
142 1 30.6431995206 40.260094493 0.0 0.0 0.0 0.0
143 1 37.4858995206 41.295294493 0.0 0.0 0.0 0.0
144 1 42.5219995206 41.215594493 0.0 0.0 0.0 0.0
145 1 47.3279995206 41.716394493 0.0 0.0 0.0 0.0
146 1 52.1344995206 41.899394493 0.0 0.0 0.0 0.0
147 1 57.0967995206 42.394594493 0.0 0.0 0.0 0.0
148 1 61.9453995206 42.462094493 0.0 0.0 0.0 0.0
149 1 67.1998995206 42.536694493 0.0 0.0 0.0 0.0
150 1 72.6478995206 42.428594493 0.0 0.0 0.0 0.0
151 1 2.98580952057 46.457494493 0.0 0.0 0.0 0.0
152 1 8.30716952057 46.401294493 0.0 0.0 0.0 0.0
153 1 13.7118995206 46.208794493 0.0 0.0 0.0 0.0
154 1 18.8876995206 46.669394493 0.0 0.0 0.0 0.0
155 1 24.1313995206 46.878894493 0.0 0.0 0.0 0.0
156 1 29.2210995206 46.025694493 0.0 0.0 0.0 0.0
157 1 33.9892995206 45.502394493 0.0 0.0 0.0 0.0
158 1 39.5373995206 45.819594493 0.0 0.0 0.0 0.0
159 1 44.6526995206 46.217294493 0.0 0.0 0.0 0.0
160 1 49.3129995206 46.575394493 0.0 0.0 0.0 0.0
161 1 54.5821995206 46.876294493 0.0 0.0 0.0 0.0
162 1 60.2447995206 47.168994493 0.0 0.0 0.0 0.0
163 1 65.1467995206 48.958994493 0.0 0.0 0.0 0.0
164 1 70.3361995206 46.745294493 0.0 0.0 0.0 0.0
165 1 75.7638995206 46.549094493 0.0 0.0 0.0 0.0
166 1 0.337502520567 50.886094493 0.0 0.0 0.0 0.0
167 1 5.49923952057 50.860294493 0.0 0.0 0.0 0.0
168 1 10.8344995206 50.680494493 0.0 0.0 0.0 0.0
169 1 16.3490995206 51.051694493 0.0 0.0 0.0 0.0
170 1 23.1979995206 50.797794493 0.0 0.0 0.0 0.0
171 1 26.2419995206 50.903094493 0.0 0.0 0.0 0.0
172 1 31.1479995206 50.523394493 0.0 0.0 0.0 0.0
173 1 36.4201995206 49.754294493 0.0 0.0 0.0 0.0
174 1 42.0083995206 50.550794493 0.0 0.0 0.0 0.0
175 1 46.5453995206 51.275794493 0.0 0.0 0.0 0.0
176 1 51.5102995206 51.126594493 0.0 0.0 0.0 0.0
177 1 56.1118995206 49.495394493 0.0 0.0 0.0 0.0
178 1 65.1374995206 51.956494493 0.0 0.0 0.0 0.0
179 1 68.1376995206 51.780294493 0.0 0.0 0.0 0.0
180 1 73.2345995206 50.924194493 0.0 0.0 0.0 0.0
181 1 2.36947952057 55.389494493 0.0 0.0 0.0 0.0
182 1 7.59825952057 55.143794493 0.0 0.0 0.0 0.0
183 1 12.6963995206 55.012594493 0.0 0.0 0.0 0.0
184 1 17.9118995206 55.900994493 0.0 0.0 0.0 0.0
185 1 23.6536995206 55.786694493 0.0 0.0 0.0 0.0
186 1 29.3429995206 55.473794493 0.0 0.0 0.0 0.0
187 1 35.5437995206 54.052494493 0.0 0.0 0.0 0.0
188 1 38.5475995206 54.067494493 0.0 0.0 0.0 0.0
189 1 43.3936995206 55.803994493 0.0 0.0 0.0 0.0
190 1 49.0539995206 55.902794493 0.0 0.0 0.0 0.0
191 1 54.5941995206 54.996994493 0.0 0.0 0.0 0.0
192 1 58.7414995206 57.732594493 0.0 0.0 0.0 0.0
193 1 64.3115995206 56.613294493 0.0 0.0 0.0 0.0
194 1 72.2099995206 55.572594493 0.0 0.0 0.0 0.0
195 1 75.2205995206 55.313994493 0.0 0.0 0.0 0.0
196 1 77.6769995206 59.827094493 0.0 0.0 0.0 0.0
197 1 4.78506952057 59.767294493 0.0 0.0 0.0 0.0
198 1 9.87749952057 59.672794493 0.0 0.0 0.0 0.0
199 1 14.9390995206 59.840494493 0.0 0.0 0.0 0.0
200 1 19.4077995206 58.511294493 0.0 0.0 0.0 0.0
201 1 26.7762995206 59.688694493 0.0 0.0 0.0 0.0
202 1 31.9473995206 60.298194493 0.0 0.0 0.0 0.0
203 1 37.7176995206 57.909594493 0.0 0.0 0.0 0.0
204 1 40.3918995206 61.753794493 0.0 0.0 0.0 0.0
205 1 46.1090995206 60.036594493 0.0 0.0 0.0 0.0
206 1 51.5456995206 59.695094493 0.0 0.0 0.0 0.0
207 1 56.7849995206 60.041394493 0.0 0.0 0.0 0.0
208 1 61.7279995206 61.203194493 0.0 0.0 0.0 0.0
209 1 67.4062995206 60.901994493 0.0 0.0 0.0 0.0
210 1 72.2777995206 59.989694493 0.0 0.0 0.0 0.0
211 1 2.39350952057 64.301994493 0.0 0.0 0.0 0.0
212 1 7.49786952057 64.336094493 0.0 0.0 0.0 0.0
213 1 12.6431995206 64.352394493 0.0 0.0 0.0 0.0
214 1 18.0316995206 63.974694493 0.0 0.0 0.0 0.0
215 1 23.6064995206 64.007394493 0.0 0.0 0.0 0.0
216 1 28.5647995206 64.465194493 0.0 0.0 0.0 0.0
217 1 33.5119995206 64.690794493 0.0 0.0 0.0 0.0
218 1 39.7308995206 64.679694493 0.0 0.0 0.0 0.0
219 1 44.6549995206 64.265594493 0.0 0.0 0.0 0.0
220 1 49.2078995206 64.254094493 0.0 0.0 0.0 0.0
221 1 53.9585995206 64.399094493 0.0 0.0 0.0 0.0
222 1 58.9198995206 65.161194493 0.0 0.0 0.0 0.0
223 1 63.2402995206 63.787694493 0.0 0.0 0.0 0.0
224 1 70.5194995206 65.069194493 0.0 0.0 0.0 0.0
225 1 75.4833995206 64.266894493 0.0 0.0 0.0 0.0
226 1 78.1312995206 68.949494493 0.0 0.0 0.0 0.0
227 1 5.12626952057 68.929694493 0.0 0.0 0.0 0.0
228 1 10.2706995206 68.915294493 0.0 0.0 0.0 0.0
229 1 15.2605995206 68.503494493 0.0 0.0 0.0 0.0
230 1 20.5936995206 68.132694493 0.0 0.0 0.0 0.0
231 1 25.9034995206 68.963994493 0.0 0.0 0.0 0.0
232 1 31.1605995206 69.305794493 0.0 0.0 0.0 0.0
233 1 35.0519995206 67.265594493 0.0 0.0 0.0 0.0
234 1 42.0242995206 69.089094493 0.0 0.0 0.0 0.0
235 1 46.7436995206 69.251294493 0.0 0.0 0.0 0.0
236 1 51.3332995206 69.211394493 0.0 0.0 0.0 0.0
237 1 56.5906995206 69.386894493 0.0 0.0 0.0 0.0
238 1 62.0941995206 69.308194493 0.0 0.0 0.0 0.0
239 1 67.5527995206 69.231794493 0.0 0.0 0.0 0.0
240 1 72.9933995206 69.279694493 0.0 0.0 0.0 0.0
241 1 2.66733952057 73.533294493 0.0 0.0 0.0 0.0
242 1 7.94878952057 73.494594493 0.0 0.0 0.0 0.0
243 1 13.2064995206 73.386594493 0.0 0.0 0.0 0.0
244 1 18.0644995206 72.680094493 0.0 0.0 0.0 0.0
245 1 23.2283995206 72.862194493 0.0 0.0 0.0 0.0
246 1 27.1421995206 71.731494493 0.0 0.0 0.0 0.0
247 1 34.3383995206 73.092794493 0.0 0.0 0.0 0.0
248 1 39.3648995206 72.891594493 0.0 0.0 0.0 0.0
249 1 43.0028995206 76.208994493 0.0 0.0 0.0 0.0
250 1 48.4582995206 74.177994493 0.0 0.0 0.0 0.0
251 1 53.8329995206 73.765994493 0.0 0.0 0.0 0.0
252 1 59.4561995206 73.586394493 0.0 0.0 0.0 0.0
253 1 64.8853995206 73.551694493 0.0 0.0 0.0 0.0
254 1 70.3998995206 73.562994493 0.0 0.0 0.0 0.0
255 1 75.6601995206 73.680894493 0.0 0.0 0.0 0.0
256 1 0.309539520567 3.27217449297 0.0 0.0 0.0 0.0
257 1 5.57424952057 3.02206449297 0.0 0.0 0.0 0.0
258 1 10.3275995206 2.85442449297 0.0 0.0 0.0 0.0
259 1 15.4621995206 3.46507449297 0.0 0.0 0.0 0.0
260 1 20.4780995206 2.75670449297 0.0 0.0 0.0 0.0
261 1 25.4832995206 1.78816449297 0.0 0.0 0.0 0.0
262 1 32.8014995206 3.59094449297 0.0 0.0 0.0 0.0
263 1 37.0098995206 2.67357449297 0.0 0.0 0.0 0.0
264 1 42.1999995206 3.75642449297 0.0 0.0 0.0 0.0
265 1 47.6267995206 4.15741449297 0.0 0.0 0.0 0.0
266 1 52.8331995206 3.71843449297 0.0 0.0 0.0 0.0
267 1 57.8276995206 0.809094492968 0.0 0.0 0.0 0.0
268 1 63.0115995206 2.18670449297 0.0 0.0 0.0 0.0
269 1 67.9408995206 2.42572449297 0.0 0.0 0.0 0.0
270 1 73.2000995206 3.09092449297 0.0 0.0 0.0 0.0
271 1 2.71974952057 8.24155449297 0.0 0.0 0.0 0.0
272 1 5.72148952057 8.30182449297 0.0 0.0 0.0 0.0
273 1 12.5622995206 7.54406449297 0.0 0.0 0.0 0.0
274 1 18.0746995206 7.83862449297 0.0 0.0 0.0 0.0
275 1 23.1956995206 6.80432449297 0.0 0.0 0.0 0.0
276 1 28.2092995206 5.88069449297 0.0 0.0 0.0 0.0
277 1 33.7789995206 6.46843449297 0.0 0.0 0.0 0.0
278 1 38.8140995206 7.77787449297 0.0 0.0 0.0 0.0
279 1 44.1965995206 8.18154449297 0.0 0.0 0.0 0.0
280 1 51.4873995206 9.31126449297 0.0 0.0 0.0 0.0
281 1 55.7761995206 8.09919449297 0.0 0.0 0.0 0.0
282 1 58.7643995206 7.87297449297 0.0 0.0 0.0 0.0
283 1 66.6639995206 5.13430449297 0.0 0.0 0.0 0.0
284 1 70.8577995206 7.88625449297 0.0 0.0 0.0 0.0
285 1 75.8688995206 7.65496449297 0.0 0.0 0.0 0.0
286 1 0.0204035205666 12.673694493 0.0 0.0 0.0 0.0
287 1 5.05845952057 13.025594493 0.0 0.0 0.0 0.0
288 1 9.92739952057 12.174194493 0.0 0.0 0.0 0.0
289 1 14.9345995206 12.268794493 0.0 0.0 0.0 0.0
290 1 20.1819995206 12.487394493 0.0 0.0 0.0 0.0
291 1 23.1022995206 11.655694493 0.0 0.0 0.0 0.0
292 1 30.4821995206 10.597994493 0.0 0.0 0.0 0.0
293 1 35.5126995206 11.576194493 0.0 0.0 0.0 0.0
294 1 40.9677995206 12.375694493 0.0 0.0 0.0 0.0
295 1 46.5897995206 12.042594493 0.0 0.0 0.0 0.0
296 1 52.7984995206 12.028194493 0.0 0.0 0.0 0.0
297 1 58.3707995206 12.329494493 0.0 0.0 0.0 0.0
298 1 63.3037995206 11.460194493 0.0 0.0 0.0 0.0
299 1 68.2280995206 12.324894493 0.0 0.0 0.0 0.0
300 1 73.4449995206 12.368594493 0.0 0.0 0.0 0.0
301 1 2.77944952057 17.469294493 0.0 0.0 0.0 0.0
302 1 8.17836952057 17.232794493 0.0 0.0 0.0 0.0
303 1 13.4227995206 14.907794493 0.0 0.0 0.0 0.0
304 1 17.6719995206 17.576194493 0.0 0.0 0.0 0.0
305 1 22.8004995206 16.220294493 0.0 0.0 0.0 0.0
306 1 27.7886995206 14.921094493 0.0 0.0 0.0 0.0
307 1 32.7723995206 15.661294493 0.0 0.0 0.0 0.0
308 1 38.0839995206 16.389794493 0.0 0.0 0.0 0.0
309 1 43.8127995206 16.383294493 0.0 0.0 0.0 0.0
310 1 49.4654995206 15.921794493 0.0 0.0 0.0 0.0
311 1 54.8553995206 16.739294493 0.0 0.0 0.0 0.0
312 1 57.8545995206 17.129994493 0.0 0.0 0.0 0.0
313 1 64.9953995206 16.508094493 0.0 0.0 0.0 0.0
314 1 70.3747995206 16.697994493 0.0 0.0 0.0 0.0
315 1 75.7024995206 16.749894493 0.0 0.0 0.0 0.0
316 1 77.9011995206 21.477494493 0.0 0.0 0.0 0.0
317 1 5.27431952057 21.937794493 0.0 0.0 0.0 0.0
318 1 10.4439995206 21.718494493 0.0 0.0 0.0 0.0
319 1 15.5752995206 22.022794493 0.0 0.0 0.0 0.0
320 1 20.8262995206 21.994794493 0.0 0.0 0.0 0.0
321 1 23.7573995206 21.356594493 0.0 0.0 0.0 0.0
322 1 29.8172995206 20.029794493 0.0 0.0 0.0 0.0
323 1 34.9113995206 20.532394493 0.0 0.0 0.0 0.0
324 1 42.3757995206 22.018994493 0.0 0.0 0.0 0.0
325 1 46.7404995206 20.283994493 0.0 0.0 0.0 0.0
326 1 51.7767995206 20.766194493 0.0 0.0 0.0 0.0
327 1 57.0559995206 21.428494493 0.0 0.0 0.0 0.0
328 1 62.2267995206 20.920594493 0.0 0.0 0.0 0.0
329 1 67.4182995206 21.135294493 0.0 0.0 0.0 0.0
330 1 72.7384995206 20.990094493 0.0 0.0 0.0 0.0
331 1 2.37866952057 26.575694493 0.0 0.0 0.0 0.0
332 1 7.53044952057 26.521194493 0.0 0.0 0.0 0.0
333 1 12.4064995206 26.457094493 0.0 0.0 0.0 0.0
334 1 19.9780995206 27.513394493 0.0 0.0 0.0 0.0
335 1 24.2699995206 25.957994493 0.0 0.0 0.0 0.0
336 1 28.8675995206 22.899094493 0.0 0.0 0.0 0.0
337 1 33.1567995206 25.613494493 0.0 0.0 0.0 0.0
338 1 38.1208995206 24.646994493 0.0 0.0 0.0 0.0
339 1 43.8359995206 24.663894493 0.0 0.0 0.0 0.0
340 1 48.9146995206 24.986694493 0.0 0.0 0.0 0.0
341 1 56.1065995206 26.771494493 0.0 0.0 0.0 0.0
342 1 60.4776995206 25.685994493 0.0 0.0 0.0 0.0
343 1 65.2845995206 25.643794493 0.0 0.0 0.0 0.0
344 1 70.5160995206 25.551294493 0.0 0.0 0.0 0.0
345 1 76.0912995206 23.881694493 0.0 0.0 0.0 0.0
346 1 77.4672995206 30.808594493 0.0 0.0 0.0 0.0
347 1 6.11890952057 31.949994493 0.0 0.0 0.0 0.0
348 1 12.6126995206 32.386994493 0.0 0.0 0.0 0.0
349 1 15.9455995206 30.005294493 0.0 0.0 0.0 0.0
350 1 21.3243995206 30.193694493 0.0 0.0 0.0 0.0
351 1 26.7590995206 30.285894493 0.0 0.0 0.0 0.0
352 1 31.6329995206 30.229494493 0.0 0.0 0.0 0.0
353 1 36.8705995206 29.539094493 0.0 0.0 0.0 0.0
354 1 41.6247995206 29.211994493 0.0 0.0 0.0 0.0
355 1 46.4449995206 29.709494493 0.0 0.0 0.0 0.0
356 1 51.6949995206 28.933094493 0.0 0.0 0.0 0.0
357 1 57.3562995206 29.491194493 0.0 0.0 0.0 0.0
358 1 62.6948995206 30.394794493 0.0 0.0 0.0 0.0
359 1 67.7141995206 30.214794493 0.0 0.0 0.0 0.0
360 1 72.7578995206 30.152994493 0.0 0.0 0.0 0.0
361 1 1.87992952057 35.016294493 0.0 0.0 0.0 0.0
362 1 7.88085952057 34.362894493 0.0 0.0 0.0 0.0
363 1 14.3299995206 34.866294493 0.0 0.0 0.0 0.0
364 1 19.6400995206 32.702594493 0.0 0.0 0.0 0.0
365 1 23.6825995206 34.754294493 0.0 0.0 0.0 0.0
366 1 29.0591995206 34.578794493 0.0 0.0 0.0 0.0
367 1 34.5924995206 34.229394493 0.0 0.0 0.0 0.0
368 1 39.8952995206 33.666094493 0.0 0.0 0.0 0.0
369 1 44.9649995206 33.871694493 0.0 0.0 0.0 0.0
370 1 50.3802995206 33.844694493 0.0 0.0 0.0 0.0
371 1 55.5814995206 31.911394493 0.0 0.0 0.0 0.0
372 1 59.7822995206 35.045994493 0.0 0.0 0.0 0.0
373 1 64.8897995206 34.872794493 0.0 0.0 0.0 0.0
374 1 69.9068995206 34.868694493 0.0 0.0 0.0 0.0
375 1 74.6225995206 35.141894493 0.0 0.0 0.0 0.0
376 1 77.9349995206 39.262694493 0.0 0.0 0.0 0.0
377 1 5.34878952057 38.944494493 0.0 0.0 0.0 0.0
378 1 10.5844995206 38.788294493 0.0 0.0 0.0 0.0
379 1 17.6962995206 40.755794493 0.0 0.0 0.0 0.0
380 1 21.9184995206 39.681594493 0.0 0.0 0.0 0.0
381 1 26.7556995206 39.116094493 0.0 0.0 0.0 0.0
382 1 33.5913995206 39.848394493 0.0 0.0 0.0 0.0
383 1 37.7946995206 38.307894493 0.0 0.0 0.0 0.0
384 1 42.8426995206 38.228794493 0.0 0.0 0.0 0.0
385 1 47.8492995206 38.763794493 0.0 0.0 0.0 0.0
386 1 50.8437995206 39.152594493 0.0 0.0 0.0 0.0
387 1 56.9250995206 39.373694493 0.0 0.0 0.0 0.0
388 1 62.2650995206 39.473194493 0.0 0.0 0.0 0.0
389 1 67.3472995206 39.523294493 0.0 0.0 0.0 0.0
390 1 72.4625995206 39.431794493 0.0 0.0 0.0 0.0
391 1 2.78901952057 43.455894493 0.0 0.0 0.0 0.0
392 1 8.04503952057 43.399694493 0.0 0.0 0.0 0.0
393 1 13.2797995206 43.190894493 0.0 0.0 0.0 0.0
394 1 18.7121995206 43.628594493 0.0 0.0 0.0 0.0
395 1 24.2344995206 43.901194493 0.0 0.0 0.0 0.0
396 1 29.4497995206 43.025694493 0.0 0.0 0.0 0.0
397 1 34.7860995206 42.597194493 0.0 0.0 0.0 0.0
398 1 40.0245995206 42.864794493 0.0 0.0 0.0 0.0
399 1 44.7465995206 43.219494493 0.0 0.0 0.0 0.0
400 1 49.6604995206 43.594694493 0.0 0.0 0.0 0.0
401 1 54.4617995206 43.841394493 0.0 0.0 0.0 0.0
402 1 59.4989995206 44.229594493 0.0 0.0 0.0 0.0
403 1 64.5399995206 43.969094493 0.0 0.0 0.0 0.0
404 1 69.9503995206 43.769594493 0.0 0.0 0.0 0.0
405 1 75.4434995206 43.564194493 0.0 0.0 0.0 0.0
406 1 0.330937520567 47.880194493 0.0 0.0 0.0 0.0
407 1 5.65846952057 47.852594493 0.0 0.0 0.0 0.0
408 1 11.0518995206 47.667294493 0.0 0.0 0.0 0.0
409 1 16.1739995206 48.011194493 0.0 0.0 0.0 0.0
410 1 21.4815995206 48.289094493 0.0 0.0 0.0 0.0
411 1 26.9220995206 47.974294493 0.0 0.0 0.0 0.0
412 1 31.7850995206 47.567794493 0.0 0.0 0.0 0.0
413 1 36.6973995206 46.780194493 0.0 0.0 0.0 0.0
414 1 41.9804995206 47.556694493 0.0 0.0 0.0 0.0
415 1 46.8370995206 48.273494493 0.0 0.0 0.0 0.0
416 1 51.8581995206 48.145794493 0.0 0.0 0.0 0.0
417 1 59.0945995206 49.986494493 0.0 0.0 0.0 0.0
418 1 63.2171995206 46.672994493 0.0 0.0 0.0 0.0
419 1 68.1311995206 48.780494493 0.0 0.0 0.0 0.0
420 1 73.0961995206 47.929694493 0.0 0.0 0.0 0.0
421 1 2.91786952057 52.425994493 0.0 0.0 0.0 0.0
422 1 8.20231952057 52.187194493 0.0 0.0 0.0 0.0
423 1 13.4989995206 52.105794493 0.0 0.0 0.0 0.0
424 1 18.7127995206 52.996394493 0.0 0.0 0.0 0.0
425 1 21.7291995206 53.423694493 0.0 0.0 0.0 0.0
426 1 28.8347995206 52.477394493 0.0 0.0 0.0 0.0
427 1 33.9837995206 51.499994493 0.0 0.0 0.0 0.0
428 1 39.0783995206 51.134794493 0.0 0.0 0.0 0.0
429 1 43.9651995206 52.831094493 0.0 0.0 0.0 0.0
430 1 49.0758995206 52.891594493 0.0 0.0 0.0 0.0
431 1 54.3817995206 51.982794493 0.0 0.0 0.0 0.0
432 1 59.9611995206 52.918494493 0.0 0.0 0.0 0.0
433 1 62.8583995206 53.931494493 0.0 0.0 0.0 0.0
434 1 70.9385995206 52.855494493 0.0 0.0 0.0 0.0
435 1 75.8599995206 52.376594493 0.0 0.0 0.0 0.0
436 1 77.8353995206 56.817194493 0.0 0.0 0.0 0.0
437 1 5.04824952057 56.764194493 0.0 0.0 0.0 0.0
438 1 10.1820995206 56.674794493 0.0 0.0 0.0 0.0
439 1 15.0675995206 56.844694493 0.0 0.0 0.0 0.0
440 1 22.4035995206 58.528594493 0.0 0.0 0.0 0.0
441 1 26.5588995206 56.673594493 0.0 0.0 0.0 0.0
442 1 31.8142995206 57.279794493 0.0 0.0 0.0 0.0
443 1 34.8300995206 56.945394493 0.0 0.0 0.0 0.0
444 1 40.3921995206 56.436994493 0.0 0.0 0.0 0.0
445 1 46.2005995206 57.016494493 0.0 0.0 0.0 0.0
446 1 52.0071995206 56.689494493 0.0 0.0 0.0 0.0
447 1 57.6514995206 54.924694493 0.0 0.0 0.0 0.0
448 1 61.7368995206 58.207294493 0.0 0.0 0.0 0.0
449 1 67.1118995206 57.898094493 0.0 0.0 0.0 0.0
450 1 70.1768995206 57.792494493 0.0 0.0 0.0 0.0
451 1 2.18233952057 61.291794493 0.0 0.0 0.0 0.0
452 1 7.36050952057 61.324494493 0.0 0.0 0.0 0.0
453 1 12.3585995206 61.364494493 0.0 0.0 0.0 0.0
454 1 17.7084995206 60.987794493 0.0 0.0 0.0 0.0
455 1 24.0816995206 61.025194493 0.0 0.0 0.0 0.0
456 1 29.1804995206 61.511194493 0.0 0.0 0.0 0.0
457 1 34.5635995206 61.847994493 0.0 0.0 0.0 0.0
458 1 37.4716995206 60.901294493 0.0 0.0 0.0 0.0
459 1 43.4440995206 61.505194493 0.0 0.0 0.0 0.0
460 1 48.9132995206 61.230794493 0.0 0.0 0.0 0.0
461 1 54.0656995206 61.367494493 0.0 0.0 0.0 0.0
462 1 58.8934995206 62.167994493 0.0 0.0 0.0 0.0
463 1 66.2191995206 63.659294493 0.0 0.0 0.0 0.0
464 1 70.1621995206 62.094994493 0.0 0.0 0.0 0.0
465 1 75.0257995206 61.271994493 0.0 0.0 0.0 0.0
466 1 77.9982995206 65.932094493 0.0 0.0 0.0 0.0
467 1 4.93761952057 65.918594493 0.0 0.0 0.0 0.0
468 1 10.0687995206 65.909394493 0.0 0.0 0.0 0.0
469 1 15.4261995206 65.499594493 0.0 0.0 0.0 0.0
470 1 20.8101995206 65.134594493 0.0 0.0 0.0 0.0
471 1 25.9374995206 65.935794493 0.0 0.0 0.0 0.0
472 1 30.9522995206 66.286994493 0.0 0.0 0.0 0.0
473 1 38.0231995206 67.136594493 0.0 0.0 0.0 0.0
474 1 42.3338995206 66.128494493 0.0 0.0 0.0 0.0
475 1 46.9336995206 66.225094493 0.0 0.0 0.0 0.0
476 1 51.5231995206 66.179194493 0.0 0.0 0.0 0.0
477 1 56.2027995206 66.405494493 0.0 0.0 0.0 0.0
478 1 61.6728995206 66.338994493 0.0 0.0 0.0 0.0
479 1 67.7643995206 66.235594493 0.0 0.0 0.0 0.0
480 1 73.2540995206 66.286794493 0.0 0.0 0.0 0.0
481 1 2.57021952057 70.520394493 0.0 0.0 0.0 0.0
482 1 7.70726952057 70.489194493 0.0 0.0 0.0 0.0
483 1 12.9050995206 70.381394493 0.0 0.0 0.0 0.0
484 1 18.0192995206 69.681494493 0.0 0.0 0.0 0.0
485 1 23.0463995206 69.865594493 0.0 0.0 0.0 0.0
486 1 30.1082995206 72.130494493 0.0 0.0 0.0 0.0
487 1 34.0480995206 70.093094493 0.0 0.0 0.0 0.0
488 1 39.1529995206 69.910394493 0.0 0.0 0.0 0.0
489 1 44.3024995206 71.010394493 0.0 0.0 0.0 0.0
490 1 49.0389995206 71.190794493 0.0 0.0 0.0 0.0
491 1 53.9138995206 70.760294493 0.0 0.0 0.0 0.0
492 1 59.3630995206 70.582794493 0.0 0.0 0.0 0.0
493 1 64.8415995206 70.544194493 0.0 0.0 0.0 0.0
494 1 70.2639995206 70.557894493 0.0 0.0 0.0 0.0
495 1 75.6590995206 70.671494493 0.0 0.0 0.0 0.0
496 1 0.141282520567 75.178094493 0.0 0.0 0.0 0.0
497 1 5.31754952057 74.965494493 0.0 0.0 0.0 0.0
498 1 10.6129995206 74.913694493 0.0 0.0 0.0 0.0
499 1 15.8979995206 74.749194493 0.0 0.0 0.0 0.0
500 1 20.6017995206 74.270894493 0.0 0.0 0.0 0.0
501 1 25.7852995206 74.428594493 0.0 0.0 0.0 0.0
502 1 31.7653995206 74.660394493 0.0 0.0 0.0 0.0
503 1 36.9162995206 74.631794493 0.0 0.0 0.0 0.0
504 1 42.3497995206 73.291394493 0.0 0.0 0.0 0.0
505 1 46.0573995206 76.075494493 0.0 0.0 0.0 0.0
506 1 51.2523995206 75.347394493 0.0 0.0 0.0 0.0
507 1 56.6795995206 74.767594493 0.0 0.0 0.0 0.0
508 1 62.1769995206 74.892794493 0.0 0.0 0.0 0.0
509 1 67.6458995206 74.775994493 0.0 0.0 0.0 0.0
510 1 73.0003995206 75.094994493 0.0 0.0 0.0 0.0
511 1 5.28759952057 77.975494493 0.0 0.0 0.0 0.0
512 1 10.8171995206 77.918894493 0.0 0.0 0.0 0.0
513 1 17.6199995206 77.231294493 0.0 0.0 0.0 0.0
514 1 20.6344995206 77.262594493 0.0 0.0 0.0 0.0
515 1 26.0572995206 77.451994493 0.0 0.0 0.0 0.0
516 1 31.6991995206 77.698894493 0.0 0.0 0.0 0.0
517 1 37.2042995206 77.624794493 0.0 0.0 0.0 0.0
518 1 41.4828995206 80.329194493 0.0 0.0 0.0 0.0
519 1 46.8733995206 78.976494493 0.0 0.0 0.0 0.0
520 1 51.5935995206 78.343694493 0.0 0.0 0.0 0.0
521 1 56.7527995206 77.765294493 0.0 0.0 0.0 0.0
522 1 62.0890995206 77.902794493 0.0 0.0 0.0 0.0
523 1 67.8593995206 77.770594493 0.0 0.0 0.0 0.0
524 1 73.1496995206 78.103794493 0.0 0.0 0.0 0.0
525 1 0.189041520567 78.193094493 0.0 0.0 0.0 0.0
526 1 2.80599952057 79.693994493 0.0 0.0 0.0 0.0
527 1 8.06287952057 79.142194493 0.0 0.0 0.0 0.0
528 1 13.2621995206 79.692494493 0.0 0.0 0.0 0.0
529 1 16.2633995206 79.896894493 0.0 0.0 0.0 0.0
530 1 23.2813995206 78.729894493 0.0 0.0 0.0 0.0
531 1 28.8244995206 78.747094493 0.0 0.0 0.0 0.0
532 1 34.4677995206 79.029494493 0.0 0.0 0.0 0.0
533 1 40.2711995206 77.595094493 0.0 0.0 0.0 0.0
534 1 44.4572995206 80.758294493 0.0 0.0 0.0 0.0
535 1 49.4824995206 80.489194493 0.0 0.0 0.0 0.0
536 1 54.3361995206 79.563094493 0.0 0.0 0.0 0.0
537 1 59.3675995206 79.233994493 0.0 0.0 0.0 0.0
538 1 64.9988995206 78.704694493 0.0 0.0 0.0 0.0
539 1 70.4214995206 79.377994493 0.0 0.0 0.0 0.0
540 1 75.7125995206 79.702094493 0.0 0.0 0.0 0.0
541 2 2.84244952057 0.180606492968 0.0 0.0 0.0 0.0
542 2 4.19408952057 2.42289449297 0.0 0.0 0.0 0.0
543 2 1.59551952057 2.48624449297 0.0 0.0 0.0 0.0
544 2 7.97383952057 80.644894493 0.0 0.0 0.0 0.0
545 2 9.12734952057 1.96206449297 0.0 0.0 0.0 0.0
546 2 6.67651952057 1.99677449297 0.0 0.0 0.0 0.0
547 2 13.0928995206 0.166578492968 0.0 0.0 0.0 0.0
548 2 14.2368995206 2.59077449297 0.0 0.0 0.0 0.0
549 2 11.6936995206 2.25661449297 0.0 0.0 0.0 0.0
550 2 17.0614995206 0.154328492968 0.0 0.0 0.0 0.0
551 2 19.1255995206 2.07222449297 0.0 0.0 0.0 0.0
552 2 16.6538995206 2.55533449297 0.0 0.0 0.0 0.0
553 2 22.9322995206 80.204394493 0.0 0.0 0.0 0.0
554 2 21.5832995206 1.70974449297 0.0 0.0 0.0 0.0
555 2 24.0992995206 1.21921449297 0.0 0.0 0.0 0.0
556 2 28.6187995206 80.255394493 0.0 0.0 0.0 0.0
557 2 26.8491995206 1.16103449297 0.0 0.0 0.0 0.0
558 2 29.1256995206 1.97078449297 0.0 0.0 0.0 0.0
559 2 34.4289995206 80.561694493 0.0 0.0 0.0 0.0
560 2 35.8052995206 1.78155449297 0.0 0.0 0.0 0.0
561 2 33.5648995206 2.27831449297 0.0 0.0 0.0 0.0
562 2 40.6054995206 0.522194492968 0.0 0.0 0.0 0.0
563 2 41.0144995206 2.84137449297 0.0 0.0 0.0 0.0
564 2 38.4390995206 2.19765449297 0.0 0.0 0.0 0.0
565 2 44.8009995206 1.19739449297 0.0 0.0 0.0 0.0
566 2 46.3181995206 3.40534449297 0.0 0.0 0.0 0.0
567 2 43.6228995206 3.28263449297 0.0 0.0 0.0 0.0
568 2 49.7987995206 0.945434492968 0.0 0.0 0.0 0.0
569 2 51.4603995206 3.08067449297 0.0 0.0 0.0 0.0
570 2 48.8881995206 3.33966449297 0.0 0.0 0.0 0.0
571 2 54.5132995206 0.0326454929676 0.0 0.0 0.0 0.0
572 2 56.3914995206 1.25446449297 0.0 0.0 0.0 0.0
573 2 53.9284995206 2.66072449297 0.0 0.0 0.0 0.0
574 2 58.9006995206 1.86016449297 0.0 0.0 0.0 0.0
575 2 61.5122995206 2.24428449297 0.0 0.0 0.0 0.0
576 2 60.2627995206 4.23509449297 0.0 0.0 0.0 0.0
577 2 65.2818995206 80.178694493 0.0 0.0 0.0 0.0
578 2 66.7943995206 1.44947449297 0.0 0.0 0.0 0.0
579 2 64.2295995206 1.33275449297 0.0 0.0 0.0 0.0
580 2 70.5853995206 80.876794493 0.0 0.0 0.0 0.0
581 2 71.9640995206 2.22489449297 0.0 0.0 0.0 0.0
582 2 69.3602995206 1.95982449297 0.0 0.0 0.0 0.0
583 2 75.7930995206 0.186492492968 0.0 0.0 0.0 0.0
584 2 77.1503995206 2.49090449297 0.0 0.0 0.0 0.0
585 2 74.5383995206 2.40324449297 0.0 0.0 0.0 0.0
586 2 0.389702520567 4.78004449297 0.0 0.0 0.0 0.0
587 2 1.61158952057 7.22146449297 0.0 0.0 0.0 0.0
588 2 77.2051995206 6.96278449297 0.0 0.0 0.0 0.0
589 2 6.39238952057 6.96784449297 0.0 0.0 0.0 0.0
590 2 6.25190952057 4.37108449297 0.0 0.0 0.0 0.0
591 2 8.56608952057 5.83227449297 0.0 0.0 0.0 0.0
592 2 10.2686995206 4.34573449297 0.0 0.0 0.0 0.0
593 2 11.2875995206 6.73005449297 0.0 0.0 0.0 0.0
594 2 15.4391995206 4.96240449297 0.0 0.0 0.0 0.0
595 2 16.7137995206 7.17178449297 0.0 0.0 0.0 0.0
596 2 13.9751995206 7.01395449297 0.0 0.0 0.0 0.0
597 2 20.4026995206 4.27753449297 0.0 0.0 0.0 0.0
598 2 21.7529995206 6.37554449297 0.0 0.0 0.0 0.0
599 2 19.2265995206 6.83812449297 0.0 0.0 0.0 0.0
600 2 25.4171995206 3.29033449297 0.0 0.0 0.0 0.0
601 2 26.7955995206 5.36738449297 0.0 0.0 0.0 0.0
602 2 24.2445995206 5.72029449297 0.0 0.0 0.0 0.0
603 2 31.3048995206 3.42568449297 0.0 0.0 0.0 0.0
604 2 29.0856995206 4.65020449297 0.0 0.0 0.0 0.0
605 2 36.8650995206 4.17410449297 0.0 0.0 0.0 0.0
606 2 37.7447995206 6.72223449297 0.0 0.0 0.0 0.0
607 2 35.2506995206 6.13580449297 0.0 0.0 0.0 0.0