ITEM: TIMESTEP
0
ITEM: NUMBER OF ATOMS
1350
ITEM: BOX BOUNDS xy xz yz pp pp pp
0.0 77.1989285218 0
0.0 81.9982013871 0
-10.0 10.0 0
ITEM: ATOMS id type x y z vx vy vz
1 1 2.65680203775 0.698227693565 0.0 0.0 0.0 0.0
2 1 7.55669203775 1.29391069357 0.0 0.0 0.0 0.0
3 1 12.6036020377 1.27704069357 0.0 0.0 0.0 0.0
4 1 17.7651020377 1.15992069357 0.0 0.0 0.0 0.0
5 1 23.0605020377 2.02796069357 0.0 0.0 0.0 0.0
6 1 28.1983020377 2.13372069357 0.0 0.0 0.0 0.0
7 1 33.1557020377 1.82724069357 0.0 0.0 0.0 0.0
8 1 38.3866020377 1.58264069357 0.0 0.0 0.0 0.0
9 1 43.6097020377 2.27015069357 0.0 0.0 0.0 0.0
10 1 49.4305020377 1.83279069357 0.0 0.0 0.0 0.0
11 1 55.0457020377 1.61842069357 0.0 0.0 0.0 0.0
12 1 60.3527020377 2.98560069357 0.0 0.0 0.0 0.0
13 1 65.0595020377 1.89879069357 0.0 0.0 0.0 0.0
14 1 69.9382020377 0.0719796935655 0.0 0.0 0.0 0.0
15 1 75.0156020377 0.316585693565 0.0 0.0 0.0 0.0
16 1 0.599442037749 5.23868069357 0.0 0.0 0.0 0.0
17 1 4.89110203775 5.68033069357 0.0 0.0 0.0 0.0
18 1 9.83030203775 5.87121069357 0.0 0.0 0.0 0.0
19 1 14.6211020377 5.78423069357 0.0 0.0 0.0 0.0
20 1 19.6317020377 5.93016069357 0.0 0.0 0.0 0.0
21 1 25.0190020377 6.64692069357 0.0 0.0 0.0 0.0
22 1 30.7576020377 6.72055069357 0.0 0.0 0.0 0.0
23 1 35.9284020377 6.19131069357 0.0 0.0 0.0 0.0
24 1 40.8586020377 6.34084069357 0.0 0.0 0.0 0.0
25 1 45.0290020377 4.91457069357 0.0 0.0 0.0 0.0
26 1 51.8131020377 5.75743069357 0.0 0.0 0.0 0.0
27 1 55.4819020377 4.60458069357 0.0 0.0 0.0 0.0
28 1 61.7518020377 5.63934069357 0.0 0.0 0.0 0.0
29 1 68.4675020377 5.27894069357 0.0 0.0 0.0 0.0
30 1 72.9824020377 4.71040069357 0.0 0.0 0.0 0.0
31 1 2.56935203775 10.5538006936 0.0 0.0 0.0 0.0
32 1 7.47697203775 10.4411006936 0.0 0.0 0.0 0.0
33 1 11.4991020377 12.9415006936 0.0 0.0 0.0 0.0
34 1 16.7199020377 10.5251006936 0.0 0.0 0.0 0.0
35 1 22.0969020377 10.5673006936 0.0 0.0 0.0 0.0
36 1 26.2933020377 9.38558069357 0.0 0.0 0.0 0.0
37 1 33.4568020377 10.9484006936 0.0 0.0 0.0 0.0
38 1 38.5775020377 10.9628006936 0.0 0.0 0.0 0.0
39 1 43.8304020377 10.5631006936 0.0 0.0 0.0 0.0
40 1 49.0445020377 10.2598006936 0.0 0.0 0.0 0.0
41 1 54.2966020377 10.3991006936 0.0 0.0 0.0 0.0
42 1 59.6233020377 10.8731006936 0.0 0.0 0.0 0.0
43 1 66.7862020377 10.2206006936 0.0 0.0 0.0 0.0
44 1 69.7110020377 9.61371069357 0.0 0.0 0.0 0.0
45 1 74.6205020377 9.64040069357 0.0 0.0 0.0 0.0
46 1 76.4652020377 16.4635006936 0.0 0.0 0.0 0.0
47 1 4.88393203775 15.2885006936 0.0 0.0 0.0 0.0
48 1 10.0777020377 15.6070006936 0.0 0.0 0.0 0.0
49 1 14.7626020377 15.5430006936 0.0 0.0 0.0 0.0
50 1 19.8420020377 14.8560006936 0.0 0.0 0.0 0.0
51 1 25.0367020377 15.0054006936 0.0 0.0 0.0 0.0
52 1 30.3433020377 15.0661006936 0.0 0.0 0.0 0.0
53 1 35.7449020377 15.5162006936 0.0 0.0 0.0 0.0
54 1 41.0403020377 15.2229006936 0.0 0.0 0.0 0.0
55 1 46.3426020377 14.9381006936 0.0 0.0 0.0 0.0
56 1 51.4933020377 14.8534006936 0.0 0.0 0.0 0.0
57 1 56.5101020377 15.0332006936 0.0 0.0 0.0 0.0
58 1 61.7143020377 15.5353006936 0.0 0.0 0.0 0.0
59 1 66.8995020377 15.1439006936 0.0 0.0 0.0 0.0
60 1 72.0529020377 14.3161006936 0.0 0.0 0.0 0.0
61 1 2.18028203775 22.2291006936 0.0 0.0 0.0 0.0
62 1 7.56511203775 20.0051006936 0.0 0.0 0.0 0.0
63 1 12.6767020377 20.4568006936 0.0 0.0 0.0 0.0
64 1 17.8862020377 19.7014006936 0.0 0.0 0.0 0.0
65 1 22.2478020377 21.7101006936 0.0 0.0 0.0 0.0
66 1 27.7486020377 19.5281006936 0.0 0.0 0.0 0.0
67 1 33.2013020377 19.6465006936 0.0 0.0 0.0 0.0
68 1 38.4390020377 19.8273006936 0.0 0.0 0.0 0.0
69 1 43.4969020377 19.5143006936 0.0 0.0 0.0 0.0
70 1 48.9703020377 19.4884006936 0.0 0.0 0.0 0.0
71 1 53.8878020377 19.6365006936 0.0 0.0 0.0 0.0
72 1 59.0103020377 19.7673006936 0.0 0.0 0.0 0.0
73 1 64.6939020377 19.8159006936 0.0 0.0 0.0 0.0
74 1 70.1454020377 19.2217006936 0.0 0.0 0.0 0.0
75 1 75.2251020377 19.1937006936 0.0 0.0 0.0 0.0
76 1 0.237842037749 24.5193006936 0.0 0.0 0.0 0.0
77 1 5.20272203775 24.8056006936 0.0 0.0 0.0 0.0
78 1 9.99770203775 24.8599006936 0.0 0.0 0.0 0.0
79 1 15.3214020377 24.5834006936 0.0 0.0 0.0 0.0
80 1 20.4897020377 24.1872006936 0.0 0.0 0.0 0.0
81 1 25.8442020377 24.1758006936 0.0 0.0 0.0 0.0
82 1 31.1007020377 23.8572006936 0.0 0.0 0.0 0.0
83 1 36.2256020377 24.2481006936 0.0 0.0 0.0 0.0
84 1 41.0819020377 24.3372006936 0.0 0.0 0.0 0.0
85 1 45.9027020377 23.7356006936 0.0 0.0 0.0 0.0
86 1 51.2023020377 24.3357006936 0.0 0.0 0.0 0.0
87 1 56.5100020377 24.3025006936 0.0 0.0 0.0 0.0
88 1 62.0180020377 23.7768006936 0.0 0.0 0.0 0.0
89 1 67.5601020377 23.7737006936 0.0 0.0 0.0 0.0
90 1 72.4933020377 23.8878006936 0.0 0.0 0.0 0.0
91 1 2.63438203775 29.3184006936 0.0 0.0 0.0 0.0
92 1 7.03491203775 31.6146006936 0.0 0.0 0.0 0.0
93 1 12.3683020377 29.1467006936 0.0 0.0 0.0 0.0
94 1 17.5065020377 28.9733006936 0.0 0.0 0.0 0.0
95 1 22.9503020377 28.5006006936 0.0 0.0 0.0 0.0
96 1 28.4742020377 28.4422006936 0.0 0.0 0.0 0.0
97 1 33.7146020377 28.6382006936 0.0 0.0 0.0 0.0
98 1 38.9627020377 29.1091006936 0.0 0.0 0.0 0.0
99 1 45.0999020377 28.4704006936 0.0 0.0 0.0 0.0
100 1 48.0990020377 28.3627006936 0.0 0.0 0.0 0.0
101 1 52.1740020377 27.2019006936 0.0 0.0 0.0 0.0
102 1 59.1940020377 28.1764006936 0.0 0.0 0.0 0.0
103 1 64.5122020377 27.9144006936 0.0 0.0 0.0 0.0
104 1 69.4774020377 28.5560006936 0.0 0.0 0.0 0.0
105 1 74.7261020377 28.9187006936 0.0 0.0 0.0 0.0
106 1 76.8995020377 33.7560006936 0.0 0.0 0.0 0.0
107 1 5.45107203775 34.1821006936 0.0 0.0 0.0 0.0
108 1 10.6574020377 33.9484006936 0.0 0.0 0.0 0.0
109 1 14.6886020377 36.2260006936 0.0 0.0 0.0 0.0
110 1 22.0778020377 32.4474006936 0.0 0.0 0.0 0.0
111 1 25.0866020377 32.5641006936 0.0 0.0 0.0 0.0
112 1 30.4335020377 32.9553006936 0.0 0.0 0.0 0.0
113 1 35.9704020377 33.3518006936 0.0 0.0 0.0 0.0
114 1 41.0462020377 34.2261006936 0.0 0.0 0.0 0.0
115 1 45.8397020377 33.8595006936 0.0 0.0 0.0 0.0
116 1 51.0723020377 32.8810006936 0.0 0.0 0.0 0.0
117 1 56.3823020377 32.6686006936 0.0 0.0 0.0 0.0
118 1 61.8523020377 32.4019006936 0.0 0.0 0.0 0.0
119 1 66.0593020377 35.0088006936 0.0 0.0 0.0 0.0
120 1 71.5865020377 33.2120006936 0.0 0.0 0.0 0.0
121 1 2.18269203775 37.9592006936 0.0 0.0 0.0 0.0
122 1 7.61112203775 38.5942006936 0.0 0.0 0.0 0.0
123 1 13.0036020377 38.7415006936 0.0 0.0 0.0 0.0
124 1 19.4033020377 38.5340006936 0.0 0.0 0.0 0.0
125 1 22.1697020377 37.4406006936 0.0 0.0 0.0 0.0
126 1 27.1937020377 37.0984006936 0.0 0.0 0.0 0.0
127 1 32.7141020377 37.2897006936 0.0 0.0 0.0 0.0
128 1 38.1111020377 38.3366006936 0.0 0.0 0.0 0.0
129 1 44.1731020377 38.8314006936 0.0 0.0 0.0 0.0
130 1 49.2148020377 37.8245006936 0.0 0.0 0.0 0.0
131 1 54.0004020377 37.2800006936 0.0 0.0 0.0 0.0
132 1 59.1217020377 36.8569006936 0.0 0.0 0.0 0.0
133 1 64.4283020377 37.5458006936 0.0 0.0 0.0 0.0
134 1 69.4728020377 37.8766006936 0.0 0.0 0.0 0.0
135 1 73.9240020377 40.1302006936 0.0 0.0 0.0 0.0
136 1 0.404672037749 42.6145006936 0.0 0.0 0.0 0.0
137 1 4.52669203775 45.0190006936 0.0 0.0 0.0 0.0
138 1 9.84960203775 43.0299006936 0.0 0.0 0.0 0.0
139 1 14.8516020377 43.8720006936 0.0 0.0 0.0 0.0
140 1 19.9188020377 43.5444006936 0.0 0.0 0.0 0.0
141 1 24.9207020377 41.9171006936 0.0 0.0 0.0 0.0
142 1 29.7210020377 41.3457006936 0.0 0.0 0.0 0.0
143 1 35.0546020377 41.9823006936 0.0 0.0 0.0 0.0
144 1 39.6728020377 40.9169006936 0.0 0.0 0.0 0.0
145 1 47.0025020377 42.9042006936 0.0 0.0 0.0 0.0
146 1 52.1358020377 42.4213006936 0.0 0.0 0.0 0.0
147 1 57.1910020377 41.6397006936 0.0 0.0 0.0 0.0
148 1 62.5321020377 43.2338006936 0.0 0.0 0.0 0.0
149 1 67.1441020377 44.3432006936 0.0 0.0 0.0 0.0
150 1 72.6917020377 42.8910006936 0.0 0.0 0.0 0.0
151 1 2.95350203775 47.5831006936 0.0 0.0 0.0 0.0
152 1 7.81369203775 47.9231006936 0.0 0.0 0.0 0.0
153 1 12.7626020377 47.9476006936 0.0 0.0 0.0 0.0
154 1 18.1020020377 48.2056006936 0.0 0.0 0.0 0.0
155 1 23.4602020377 47.0453006936 0.0 0.0 0.0 0.0
156 1 28.6681020377 46.1896006936 0.0 0.0 0.0 0.0
157 1 34.5869020377 46.7373006936 0.0 0.0 0.0 0.0
158 1 37.5821020377 46.2399006936 0.0 0.0 0.0 0.0
159 1 43.1488020377 46.8759006936 0.0 0.0 0.0 0.0
160 1 49.6444020377 47.3093006936 0.0 0.0 0.0 0.0
161 1 54.8758020377 46.7453006936 0.0 0.0 0.0 0.0
162 1 62.2619020377 46.2494006936 0.0 0.0 0.0 0.0
163 1 65.2471020377 46.6892006936 0.0 0.0 0.0 0.0
164 1 69.8442020377 47.5414006936 0.0 0.0 0.0 0.0
165 1 74.9235020377 47.4850006936 0.0 0.0 0.0 0.0
166 1 77.0737020377 51.9924006936 0.0 0.0 0.0 0.0
167 1 5.06767203775 52.4797006936 0.0 0.0 0.0 0.0
168 1 10.3381020377 52.5971006936 0.0 0.0 0.0 0.0
169 1 15.6624020377 52.4079006936 0.0 0.0 0.0 0.0
170 1 20.9966020377 51.8320006936 0.0 0.0 0.0 0.0
171 1 26.0342020377 51.0588006936 0.0 0.0 0.0 0.0
172 1 31.1858020377 51.2579006936 0.0 0.0 0.0 0.0
173 1 35.6721020377 51.7688006936 0.0 0.0 0.0 0.0
174 1 40.4768020377 50.7141006936 0.0 0.0 0.0 0.0
175 1 44.7613020377 49.4496006936 0.0 0.0 0.0 0.0
176 1 51.7462020377 51.4910006936 0.0 0.0 0.0 0.0
177 1 56.3446020377 51.7157006936 0.0 0.0 0.0 0.0
178 1 61.0197020377 51.3255006936 0.0 0.0 0.0 0.0
179 1 66.4410020377 51.8985006936 0.0 0.0 0.0 0.0
180 1 71.7821020377 52.0695006936 0.0 0.0 0.0 0.0
181 1 2.42909203775 56.7142006936 0.0 0.0 0.0 0.0
182 1 7.71177203775 56.9544006936 0.0 0.0 0.0 0.0
183 1 13.0710020377 56.8610006936 0.0 0.0 0.0 0.0
184 1 18.3920020377 56.4558006936 0.0 0.0 0.0 0.0
185 1 23.4877020377 56.0089006936 0.0 0.0 0.0 0.0
186 1 28.2629020377 55.6768006936 0.0 0.0 0.0 0.0
187 1 33.1993020377 56.4158006936 0.0 0.0 0.0 0.0
188 1 38.2534020377 55.9188006936 0.0 0.0 0.0 0.0
189 1 43.1737020377 55.0765006936 0.0 0.0 0.0 0.0
190 1 48.1576020377 55.5118006936 0.0 0.0 0.0 0.0
191 1 53.3354020377 56.5449006936 0.0 0.0 0.0 0.0
192 1 59.3499020377 56.3814006936 0.0 0.0 0.0 0.0
193 1 63.7747020377 58.2057006936 0.0 0.0 0.0 0.0
194 1 69.1439020377 56.3997006936 0.0 0.0 0.0 0.0
195 1 74.4210020377 56.4705006936 0.0 0.0 0.0 0.0
196 1 0.00959203774947 61.0733006936 0.0 0.0 0.0 0.0
197 1 5.15872203775 61.2456006936 0.0 0.0 0.0 0.0
198 1 10.4365020377 61.2435006936 0.0 0.0 0.0 0.0
199 1 15.8047020377 61.0158006936 0.0 0.0 0.0 0.0
200 1 21.1956020377 60.7907006936 0.0 0.0 0.0 0.0
201 1 26.3056020377 60.6302006936 0.0 0.0 0.0 0.0
202 1 31.3004020377 60.5508006936 0.0 0.0 0.0 0.0
203 1 36.0232020377 62.7448006936 0.0 0.0 0.0 0.0
204 1 41.1119020377 60.1901006936 0.0 0.0 0.0 0.0
205 1 45.3114020377 62.5106006936 0.0 0.0 0.0 0.0
206 1 50.5724020377 60.5251006936 0.0 0.0 0.0 0.0
207 1 54.9121020377 59.1428006936 0.0 0.0 0.0 0.0
208 1 62.1517020377 60.7426006936 0.0 0.0 0.0 0.0
209 1 66.9946020377 61.2450006936 0.0 0.0 0.0 0.0
210 1 72.0938020377 60.8704006936 0.0 0.0 0.0 0.0
211 1 2.70861203775 65.6946006936 0.0 0.0 0.0 0.0
212 1 7.86947203775 65.6676006936 0.0 0.0 0.0 0.0
213 1 13.1222020377 65.4579006936 0.0 0.0 0.0 0.0
214 1 18.5670020377 65.2097006936 0.0 0.0 0.0 0.0
215 1 23.9918020377 65.2874006936 0.0 0.0 0.0 0.0
216 1 28.7836020377 65.2592006936 0.0 0.0 0.0 0.0
217 1 34.1484020377 65.1130006936 0.0 0.0 0.0 0.0
218 1 38.8247020377 65.4942006936 0.0 0.0 0.0 0.0
219 1 44.0520020377 65.2697006936 0.0 0.0 0.0 0.0
220 1 48.8223020377 65.5185006936 0.0 0.0 0.0 0.0
221 1 53.8988020377 64.7577006936 0.0 0.0 0.0 0.0
222 1 59.0163020377 64.8388006936 0.0 0.0 0.0 0.0
223 1 63.8974020377 65.6883006936 0.0 0.0 0.0 0.0
224 1 69.4035020377 65.5983006936 0.0 0.0 0.0 0.0
225 1 74.7127020377 65.5383006936 0.0 0.0 0.0 0.0
226 1 0.183792037749 70.1205006936 0.0 0.0 0.0 0.0
227 1 5.53615203775 70.2110006936 0.0 0.0 0.0 0.0
228 1 10.6040020377 70.0082006936 0.0 0.0 0.0 0.0
229 1 15.9240020377 69.5742006936 0.0 0.0 0.0 0.0
230 1 21.3082020377 69.5191006936 0.0 0.0 0.0 0.0
231 1 26.4275020377 70.1172006936 0.0 0.0 0.0 0.0
232 1 31.2971020377 69.5709006936 0.0 0.0 0.0 0.0
233 1 35.4501020377 72.2526006936 0.0 0.0 0.0 0.0
234 1 40.7986020377 69.8216006936 0.0 0.0 0.0 0.0
235 1 46.0070020377 70.2227006936 0.0 0.0 0.0 0.0
236 1 51.2155020377 69.7225006936 0.0 0.0 0.0 0.0
237 1 56.5963020377 69.4821006936 0.0 0.0 0.0 0.0
238 1 61.4671020377 70.0105006936 0.0 0.0 0.0 0.0
239 1 66.5851020377 69.8338006936 0.0 0.0 0.0 0.0
240 1 72.0105020377 69.9637006936 0.0 0.0 0.0 0.0
241 1 2.90634203775 74.5282006936 0.0 0.0 0.0 0.0
242 1 8.50433203775 74.7108006936 0.0 0.0 0.0 0.0
243 1 13.8284020377 74.1082006936 0.0 0.0 0.0 0.0
244 1 19.0946020377 73.8169006936 0.0 0.0 0.0 0.0
245 1 23.2076020377 76.7117006936 0.0 0.0 0.0 0.0
246 1 28.6421020377 74.6609006936 0.0 0.0 0.0 0.0
247 1 34.0149020377 74.9090006936 0.0 0.0 0.0 0.0
248 1 39.0599020377 74.6162006936 0.0 0.0 0.0 0.0
249 1 43.4046020377 76.9423006936 0.0 0.0 0.0 0.0
250 1 48.4731020377 74.5056006936 0.0 0.0 0.0 0.0
251 1 53.6974020377 73.9691006936 0.0 0.0 0.0 0.0
252 1 58.8135020377 74.5724006936 0.0 0.0 0.0 0.0
253 1 65.5678020377 74.1703006936 0.0 0.0 0.0 0.0
254 1 68.6141020377 74.1056006936 0.0 0.0 0.0 0.0
255 1 74.3620020377 74.3607006936 0.0 0.0 0.0 0.0
256 1 0.109432037749 2.26347069357 0.0 0.0 0.0 0.0
257 1 4.90423203775 2.67962069357 0.0 0.0 0.0 0.0
258 1 10.0855020377 2.89500069357 0.0 0.0 0.0 0.0
259 1 15.2058020377 2.79791069357 0.0 0.0 0.0 0.0
260 1 20.1840020377 2.96393069357 0.0 0.0 0.0 0.0
261 1 25.5915020377 3.67638069357 0.0 0.0 0.0 0.0
262 1 30.7731020377 3.69429069357 0.0 0.0 0.0 0.0
263 1 35.8391020377 3.18385069357 0.0 0.0 0.0 0.0
264 1 40.8123020377 3.33981069357 0.0 0.0 0.0 0.0
265 1 47.9845020377 4.48657069357 0.0 0.0 0.0 0.0
266 1 52.2693020377 2.76961069357 0.0 0.0 0.0 0.0
267 1 58.3710020377 5.22235069357 0.0 0.0 0.0 0.0
268 1 64.5880020377 4.84392069357 0.0 0.0 0.0 0.0
269 1 68.0008020377 2.33118069357 0.0 0.0 0.0 0.0
270 1 72.4095020377 1.76733069357 0.0 0.0 0.0 0.0
271 1 2.54325203775 7.53248069357 0.0 0.0 0.0 0.0
272 1 7.29004203775 7.45324069357 0.0 0.0 0.0 0.0
273 1 12.2296020377 7.65033069357 0.0 0.0 0.0 0.0
274 1 17.0713020377 7.52553069357 0.0 0.0 0.0 0.0
275 1 22.1572020377 7.56063069357 0.0 0.0 0.0 0.0
276 1 29.2913020377 9.36288069357 0.0 0.0 0.0 0.0
277 1 33.4952020377 7.94294069357 0.0 0.0 0.0 0.0
278 1 38.3462020377 7.96863069357 0.0 0.0 0.0 0.0
279 1 43.5979020377 7.55830069357 0.0 0.0 0.0 0.0
280 1 49.2089020377 7.23707069357 0.0 0.0 0.0 0.0
281 1 54.3143020377 7.38001069357 0.0 0.0 0.0 0.0
282 1 59.7762020377 7.86855069357 0.0 0.0 0.0 0.0
283 1 66.2653020377 7.29156069357 0.0 0.0 0.0 0.0
284 1 70.9530020377 6.89367069357 0.0 0.0 0.0 0.0
285 1 75.2003020377 6.69952069357 0.0 0.0 0.0 0.0
286 1 76.9246020377 11.5445006936 0.0 0.0 0.0 0.0
287 1 5.06209203775 12.2645006936 0.0 0.0 0.0 0.0
288 1 10.4814020377 10.1275006936 0.0 0.0 0.0 0.0
289 1 14.4834020377 12.5584006936 0.0 0.0 0.0 0.0
290 1 19.4026020377 11.8886006936 0.0 0.0 0.0 0.0
291 1 24.7520020377 11.9846006936 0.0 0.0 0.0 0.0
292 1 30.6638020377 12.0548006936 0.0 0.0 0.0 0.0
293 1 36.0103020377 12.5247006936 0.0 0.0 0.0 0.0
294 1 41.3083020377 12.2222006936 0.0 0.0 0.0 0.0
295 1 46.5193020377 11.9215006936 0.0 0.0 0.0 0.0
296 1 51.6298020377 11.8303006936 0.0 0.0 0.0 0.0
297 1 56.8350020377 12.0339006936 0.0 0.0 0.0 0.0
298 1 62.1226020377 12.5644006936 0.0 0.0 0.0 0.0
299 1 65.1333020377 12.7047006936 0.0 0.0 0.0 0.0
300 1 72.1329020377 11.3299006936 0.0 0.0 0.0 0.0
301 1 2.24987203775 16.7760006936 0.0 0.0 0.0 0.0
302 1 7.38993203775 16.9802006936 0.0 0.0 0.0 0.0
303 1 12.4445020377 17.4548006936 0.0 0.0 0.0 0.0
304 1 17.4989020377 16.7326006936 0.0 0.0 0.0 0.0
305 1 22.3775020377 16.4604006936 0.0 0.0 0.0 0.0
306 1 27.6736020377 16.4986006936 0.0 0.0 0.0 0.0
307 1 32.9403020377 16.6367006936 0.0 0.0 0.0 0.0
308 1 38.4693020377 16.8134006936 0.0 0.0 0.0 0.0
309 1 43.7604020377 16.5117006936 0.0 0.0 0.0 0.0
310 1 48.9448020377 16.4661006936 0.0 0.0 0.0 0.0
311 1 53.9425020377 16.6133006936 0.0 0.0 0.0 0.0
312 1 58.9721020377 16.7616006936 0.0 0.0 0.0 0.0
313 1 64.4246020377 16.8373006936 0.0 0.0 0.0 0.0
314 1 69.7222020377 16.2297006936 0.0 0.0 0.0 0.0
315 1 75.0226020377 13.8715006936 0.0 0.0 0.0 0.0
316 1 1.00823203775 19.5044006936 0.0 0.0 0.0 0.0
317 1 5.15657203775 21.8189006936 0.0 0.0 0.0 0.0
318 1 9.98380203775 21.8308006936 0.0 0.0 0.0 0.0
319 1 15.4898020377 21.5652006936 0.0 0.0 0.0 0.0
320 1 20.8443020377 19.0721006936 0.0 0.0 0.0 0.0
321 1 25.2466020377 21.2432006936 0.0 0.0 0.0 0.0
322 1 30.4583020377 20.9061006936 0.0 0.0 0.0 0.0
323 1 35.7793020377 21.2522006936 0.0 0.0 0.0 0.0
324 1 41.0658020377 21.3126006936 0.0 0.0 0.0 0.0
325 1 46.2350020377 20.7531006936 0.0 0.0 0.0 0.0
326 1 51.3809020377 21.3129006936 0.0 0.0 0.0 0.0
327 1 56.4060020377 21.2906006936 0.0 0.0 0.0 0.0
328 1 61.8448020377 20.7906006936 0.0 0.0 0.0 0.0
329 1 67.5551020377 20.7689006936 0.0 0.0 0.0 0.0
330 1 72.6936020377 20.8554006936 0.0 0.0 0.0 0.0
331 1 2.60884203775 26.3288006936 0.0 0.0 0.0 0.0
332 1 7.55409203775 26.6418006936 0.0 0.0 0.0 0.0
333 1 12.7251020377 26.1466006936 0.0 0.0 0.0 0.0
334 1 18.0050020377 25.9658006936 0.0 0.0 0.0 0.0
335 1 23.1658020377 25.5317006936 0.0 0.0 0.0 0.0
336 1 28.5572020377 25.4485006936 0.0 0.0 0.0 0.0
337 1 33.5518020377 25.6229006936 0.0 0.0 0.0 0.0
338 1 38.6328020377 26.0899006936 0.0 0.0 0.0 0.0
339 1 43.7158020377 25.7904006936 0.0 0.0 0.0 0.0
340 1 48.4021020377 25.3772006936 0.0 0.0 0.0 0.0
341 1 55.1592020377 27.0030006936 0.0 0.0 0.0 0.0
342 1 59.3714020377 25.1868006936 0.0 0.0 0.0 0.0
343 1 64.7872020377 24.9320006936 0.0 0.0 0.0 0.0
344 1 69.9770020377 25.5663006936 0.0 0.0 0.0 0.0
345 1 74.7571020377 25.8853006936 0.0 0.0 0.0 0.0
346 1 77.1559020377 30.7364006936 0.0 0.0 0.0 0.0
347 1 5.63711203775 28.9826006936 0.0 0.0 0.0 0.0
348 1 9.98890203775 31.0241006936 0.0 0.0 0.0 0.0
349 1 14.9683020377 30.6767006936 0.0 0.0 0.0 0.0
350 1 20.3492020377 29.9931006936 0.0 0.0 0.0 0.0
351 1 25.7239020377 29.6448006936 0.0 0.0 0.0 0.0
352 1 31.0325020377 30.0100006936 0.0 0.0 0.0 0.0
353 1 36.2095020377 30.3433006936 0.0 0.0 0.0 0.0
354 1 41.1593020377 31.2134006936 0.0 0.0 0.0 0.0
355 1 44.1751020377 31.3247006936 0.0 0.0 0.0 0.0
356 1 50.7077020377 29.8587006936 0.0 0.0 0.0 0.0
357 1 56.5868020377 29.6535006936 0.0 0.0 0.0 0.0
358 1 61.9097020377 29.4078006936 0.0 0.0 0.0 0.0
359 1 66.7583020377 29.8957006936 0.0 0.0 0.0 0.0
360 1 71.9934020377 30.2205006936 0.0 0.0 0.0 0.0
361 1 2.49763203775 34.9596006936 0.0 0.0 0.0 0.0
362 1 8.11329203775 35.6220006936 0.0 0.0 0.0 0.0
363 1 13.6347020377 33.4128006936 0.0 0.0 0.0 0.0
364 1 17.6981020377 36.0792006936 0.0 0.0 0.0 0.0
365 1 20.4790020377 34.9635006936 0.0 0.0 0.0 0.0
366 1 27.6499020377 34.1316006936 0.0 0.0 0.0 0.0
367 1 33.1166020377 34.3197006936 0.0 0.0 0.0 0.0
368 1 38.2549020377 35.3302006936 0.0 0.0 0.0 0.0
369 1 43.5864020377 35.8651006936 0.0 0.0 0.0 0.0
370 1 48.7262020377 34.8162006936 0.0 0.0 0.0 0.0
371 1 53.7865020377 34.2474006936 0.0 0.0 0.0 0.0
372 1 59.1801020377 33.8400006936 0.0 0.0 0.0 0.0
373 1 64.8716020377 32.2660006936 0.0 0.0 0.0 0.0
374 1 69.0678020377 34.8979006936 0.0 0.0 0.0 0.0
375 1 74.0751020377 34.9247006936 0.0 0.0 0.0 0.0
376 1 76.9046020377 39.6971006936 0.0 0.0 0.0 0.0
377 1 4.73875203775 39.5643006936 0.0 0.0 0.0 0.0
378 1 10.2615020377 40.0373006936 0.0 0.0 0.0 0.0
379 1 15.1003020377 40.8961006936 0.0 0.0 0.0 0.0
380 1 18.0820020377 41.1878006936 0.0 0.0 0.0 0.0
381 1 24.7899020377 38.9058006936 0.0 0.0 0.0 0.0
382 1 29.9098020377 38.3609006936 0.0 0.0 0.0 0.0
383 1 35.1839020377 38.9938006936 0.0 0.0 0.0 0.0
384 1 42.6365020377 41.4249006936 0.0 0.0 0.0 0.0
385 1 46.9957020377 39.8768006936 0.0 0.0 0.0 0.0
386 1 51.8161020377 39.3812006936 0.0 0.0 0.0 0.0
387 1 56.6909020377 38.6518006936 0.0 0.0 0.0 0.0
388 1 61.5762020377 38.5959006936 0.0 0.0 0.0 0.0
389 1 66.8226020377 39.3716006936 0.0 0.0 0.0 0.0
390 1 72.4754020377 37.5061006936 0.0 0.0 0.0 0.0
391 1 3.38664203775 42.2568006936 0.0 0.0 0.0 0.0
392 1 7.52653203775 44.9405006936 0.0 0.0 0.0 0.0
393 1 12.0978020377 45.0239006936 0.0 0.0 0.0 0.0
394 1 17.4947020377 45.2870006936 0.0 0.0 0.0 0.0
395 1 22.8624020377 44.1000006936 0.0 0.0 0.0 0.0
396 1 27.5367020377 43.3942006936 0.0 0.0 0.0 0.0
397 1 32.2299020377 42.9606006936 0.0 0.0 0.0 0.0
398 1 37.7725020377 43.2439006936 0.0 0.0 0.0 0.0
399 1 44.1884020377 44.0207006936 0.0 0.0 0.0 0.0
400 1 49.7050020377 44.2681006936 0.0 0.0 0.0 0.0
401 1 54.9123020377 43.6850006936 0.0 0.0 0.0 0.0
402 1 60.2149020377 41.3062006936 0.0 0.0 0.0 0.0
403 1 65.2998020377 41.9844006936 0.0 0.0 0.0 0.0
404 1 70.1482020377 44.5411006936 0.0 0.0 0.0 0.0
405 1 75.2413020377 44.4912006936 0.0 0.0 0.0 0.0
406 1 0.306432037749 49.0128006936 0.0 0.0 0.0 0.0
407 1 5.26026203775 49.4913006936 0.0 0.0 0.0 0.0
408 1 10.2807020377 49.6085006936 0.0 0.0 0.0 0.0
409 1 15.3714020377 49.4316006936 0.0 0.0 0.0 0.0
410 1 21.0356020377 48.8357006936 0.0 0.0 0.0 0.0
411 1 26.2964020377 48.0609006936 0.0 0.0 0.0 0.0
412 1 31.6801020377 45.8962006936 0.0 0.0 0.0 0.0
413 1 33.6559020377 49.5703006936 0.0 0.0 0.0 0.0
414 1 40.2359020377 47.7056006936 0.0 0.0 0.0 0.0
415 1 47.7701020377 49.7078006936 0.0 0.0 0.0 0.0
416 1 52.4054020377 48.5234006936 0.0 0.0 0.0 0.0
417 1 57.1283020377 48.7779006936 0.0 0.0 0.0 0.0
418 1 60.1447020377 48.4320006936 0.0 0.0 0.0 0.0
419 1 67.1858020377 48.9771006936 0.0 0.0 0.0 0.0
420 1 72.3928020377 49.1215006936 0.0 0.0 0.0 0.0
421 1 2.33617203775 53.7162006936 0.0 0.0 0.0 0.0
422 1 7.67214203775 53.9626006936 0.0 0.0 0.0 0.0
423 1 13.0495020377 53.8710006936 0.0 0.0 0.0 0.0
424 1 18.4713020377 53.4587006936 0.0 0.0 0.0 0.0
425 1 23.7475020377 53.0139006936 0.0 0.0 0.0 0.0
426 1 28.5496020377 52.6807006936 0.0 0.0 0.0 0.0
427 1 33.2141020377 53.4473006936 0.0 0.0 0.0 0.0
428 1 38.4303020377 52.9126006936 0.0 0.0 0.0 0.0
429 1 43.1798020377 52.0319006936 0.0 0.0 0.0 0.0
430 1 48.9015020377 52.5322006936 0.0 0.0 0.0 0.0
431 1 53.9403020377 53.5586006936 0.0 0.0 0.0 0.0
432 1 58.8282020377 53.4063006936 0.0 0.0 0.0 0.0
433 1 63.5842020377 52.8988006936 0.0 0.0 0.0 0.0
434 1 69.0639020377 53.3892006936 0.0 0.0 0.0 0.0
435 1 74.4467020377 53.4657006936 0.0 0.0 0.0 0.0
436 1 76.9591020377 58.0819006936 0.0 0.0 0.0 0.0
437 1 5.00914203775 58.2521006936 0.0 0.0 0.0 0.0
438 1 10.4146020377 58.2508006936 0.0 0.0 0.0 0.0
439 1 15.8326020377 58.0208006936 0.0 0.0 0.0 0.0
440 1 21.0737020377 57.7904006936 0.0 0.0 0.0 0.0
441 1 25.9972020377 57.6391006936 0.0 0.0 0.0 0.0
442 1 30.4941020377 57.6723006936 0.0 0.0 0.0 0.0
443 1 35.8670020377 57.7522006936 0.0 0.0 0.0 0.0
444 1 40.9766020377 57.1664006936 0.0 0.0 0.0 0.0
445 1 45.4940020377 57.0030006936 0.0 0.0 0.0 0.0
446 1 50.4617020377 57.4912006936 0.0 0.0 0.0 0.0
447 1 57.9366020377 59.0868006936 0.0 0.0 0.0 0.0
448 1 62.2736020377 55.6207006936 0.0 0.0 0.0 0.0
449 1 66.7760020377 58.2554006936 0.0 0.0 0.0 0.0
450 1 71.7664020377 57.8797006936 0.0 0.0 0.0 0.0
451 1 2.53624203775 62.6970006936 0.0 0.0 0.0 0.0
452 1 7.79880203775 62.6711006936 0.0 0.0 0.0 0.0
453 1 13.1743020377 62.4633006936 0.0 0.0 0.0 0.0
454 1 18.5528020377 62.2151006936 0.0 0.0 0.0 0.0
455 1 23.8023020377 62.2873006936 0.0 0.0 0.0 0.0
456 1 28.8333020377 62.2564006936 0.0 0.0 0.0 0.0
457 1 34.3015020377 60.3111006936 0.0 0.0 0.0 0.0
458 1 39.0369020377 62.4667006936 0.0 0.0 0.0 0.0
459 1 44.1176020377 59.7389006936 0.0 0.0 0.0 0.0
460 1 48.3265020377 62.5495006936 0.0 0.0 0.0 0.0
461 1 53.3457020377 61.7481006936 0.0 0.0 0.0 0.0
462 1 59.3252020377 61.7937006936 0.0 0.0 0.0 0.0
463 1 64.3870020377 62.7316006936 0.0 0.0 0.0 0.0
464 1 69.6543020377 62.6125006936 0.0 0.0 0.0 0.0
465 1 74.5937020377 62.5363006936 0.0 0.0 0.0 0.0
466 1 0.0696020377495 67.1203006936 0.0 0.0 0.0 0.0
467 1 5.30073203775 67.2157006936 0.0 0.0 0.0 0.0
468 1 10.5517020377 67.0094006936 0.0 0.0 0.0 0.0
469 1 15.9002020377 66.5832006936 0.0 0.0 0.0 0.0
470 1 21.2617020377 66.5269006936 0.0 0.0 0.0 0.0
471 1 26.3993020377 67.0951006936 0.0 0.0 0.0 0.0
472 1 31.4871020377 66.5557006936 0.0 0.0 0.0 0.0
473 1 36.2999020377 67.1931006936 0.0 0.0 0.0 0.0
474 1 41.4871020377 66.8783006936 0.0 0.0 0.0 0.0
475 1 46.3385020377 67.2252006936 0.0 0.0 0.0 0.0
476 1 51.5799020377 66.7148006936 0.0 0.0 0.0 0.0
477 1 56.4388020377 66.4318006936 0.0 0.0 0.0 0.0
478 1 61.1778020377 66.9823006936 0.0 0.0 0.0 0.0
479 1 66.6676020377 66.8435006936 0.0 0.0 0.0 0.0
480 1 72.0730020377 66.9683006936 0.0 0.0 0.0 0.0
481 1 2.84044203775 71.5299006936 0.0 0.0 0.0 0.0
482 1 8.13976203775 71.7224006936 0.0 0.0 0.0 0.0
483 1 13.3769020377 71.1488006936 0.0 0.0 0.0 0.0
484 1 18.6272020377 70.8611006936 0.0 0.0 0.0 0.0
485 1 23.6773020377 71.3617006936 0.0 0.0 0.0 0.0
486 1 29.0420020377 71.6338006936 0.0 0.0 0.0 0.0
487 1 34.3192020377 69.4877006936 0.0 0.0 0.0 0.0
488 1 38.4105020377 71.6866006936 0.0 0.0 0.0 0.0
489 1 43.2789020377 71.5282006936 0.0 0.0 0.0 0.0
490 1 48.7429020377 71.4918006936 0.0 0.0 0.0 0.0
491 1 53.9613020377 70.9682006936 0.0 0.0 0.0 0.0
492 1 58.8534020377 71.5259006936 0.0 0.0 0.0 0.0
493 1 64.1010020377 71.5202006936 0.0 0.0 0.0 0.0
494 1 69.2638020377 71.1789006936 0.0 0.0 0.0 0.0
495 1 74.6558020377 71.3797006936 0.0 0.0 0.0 0.0
496 1 0.00920203774947 75.3918006936 0.0 0.0 0.0 0.0
497 1 5.67127203775 75.7599006936 0.0 0.0 0.0 0.0
498 1 11.3386020377 75.7890006936 0.0 0.0 0.0 0.0
499 1 16.5447020377 75.4085006936 0.0 0.0 0.0 0.0
500 1 22.0998020377 73.9277006936 0.0 0.0 0.0 0.0
501 1 26.2377020377 76.5520006936 0.0 0.0 0.0 0.0
502 1 31.2601020377 76.1906006936 0.0 0.0 0.0 0.0
503 1 36.6261020377 76.4093006936 0.0 0.0 0.0 0.0
504 1 42.0450020377 74.2782006936 0.0 0.0 0.0 0.0
505 1 46.4065020377 76.7168006936 0.0 0.0 0.0 0.0
506 1 51.2303020377 75.7020006936 0.0 0.0 0.0 0.0
507 1 56.0624020377 75.8212006936 0.0 0.0 0.0 0.0
508 1 60.7271020377 76.9280006936 0.0 0.0 0.0 0.0
509 1 63.7601020377 76.5930006936 0.0 0.0 0.0 0.0
510 1 71.4474020377 75.1945006936 0.0 0.0 0.0 0.0
511 1 5.62373203775 78.7603006936 0.0 0.0 0.0 0.0
512 1 13.0518020377 78.2717006936 0.0 0.0 0.0 0.0
513 1 16.0733020377 78.3730006936 0.0 0.0 0.0 0.0
514 1 21.3160020377 79.0911006936 0.0 0.0 0.0 0.0
515 1 26.2196020377 79.5677006936 0.0 0.0 0.0 0.0
516 1 31.0935020377 79.2197006936 0.0 0.0 0.0 0.0
517 1 36.2969020377 79.3994006936 0.0 0.0 0.0 0.0
518 1 41.8512020377 79.5281006936 0.0 0.0 0.0 0.0
519 1 46.7923020377 79.6999006936 0.0 0.0 0.0 0.0
520 1 51.7102020377 78.6754006936 0.0 0.0 0.0 0.0
521 1 56.5032020377 80.9423006936 0.0 0.0 0.0 0.0
522 1 60.9750020377 0.0279226935655 0.0 0.0 0.0 0.0
523 1 65.7747020377 78.8477006936 0.0 0.0 0.0 0.0
524 1 71.5928020377 78.1877006936 0.0 0.0 0.0 0.0
525 1 0.0321120377495 78.3854006936 0.0 0.0 0.0 0.0
526 1 2.75353203775 79.6972006936 0.0 0.0 0.0 0.0
527 1 8.18205203775 80.3628006936 0.0 0.0 0.0 0.0
528 1 11.1906020377 80.6174006936 0.0 0.0 0.0 0.0
529 1 18.4793020377 80.2065006936 0.0 0.0 0.0 0.0
530 1 23.5926020377 81.0582006936 0.0 0.0 0.0 0.0
531 1 28.7665020377 81.1579006936 0.0 0.0 0.0 0.0
532 1 33.6353020377 80.8390006936 0.0 0.0 0.0 0.0
533 1 39.0382020377 80.6436006936 0.0 0.0 0.0 0.0
534 1 44.2584020377 81.3329006936 0.0 0.0 0.0 0.0
535 1 49.5761020377 80.8197006936 0.0 0.0 0.0 0.0
536 1 54.7194020377 78.5268006936 0.0 0.0 0.0 0.0
537 1 59.2220020377 79.5854006936 0.0 0.0 0.0 0.0
538 1 63.8526020377 81.1673006936 0.0 0.0 0.0 0.0
539 1 68.7830020377 79.2986006936 0.0 0.0 0.0 0.0
540 1 74.3834020377 79.3771006936 0.0 0.0 0.0 0.0
541 2 2.70552203775 81.2033006936 0.0 0.0 0.0 0.0
542 2 3.78574203775 1.68719069357 0.0 0.0 0.0 0.0
543 2 1.37028203775 1.45610069357 0.0 0.0 0.0 0.0
544 2 6.23557203775 1.99171069357 0.0 0.0 0.0 0.0
545 2 8.80985203775 2.11273069357 0.0 0.0 0.0 0.0
546 2 7.79756203775 81.8185006936 0.0 0.0 0.0 0.0
547 2 11.9634020377 81.9118006936 0.0 0.0 0.0 0.0
548 2 13.9345020377 1.97130069357 0.0 0.0 0.0 0.0
549 2 11.3843020377 2.16188069357 0.0 0.0 0.0 0.0
550 2 18.1009020377 81.6782006936 0.0 0.0 0.0 0.0
551 2 18.9906020377 2.04523069357 0.0 0.0 0.0 0.0
552 2 16.4750020377 1.96562069357 0.0 0.0 0.0 0.0
553 2 23.3382020377 0.543222693565 0.0 0.0 0.0 0.0
554 2 24.3102020377 2.87351069357 0.0 0.0 0.0 0.0
555 2 21.6241020377 2.50083069357 0.0 0.0 0.0 0.0
556 2 28.4982020377 0.649350693565 0.0 0.0 0.0 0.0
557 2 29.4674020377 2.94663069357 0.0 0.0 0.0 0.0
558 2 26.8937020377 2.90384069357 0.0 0.0 0.0 0.0
559 2 33.3671020377 0.329702693565 0.0 0.0 0.0 0.0
560 2 34.4959020377 2.51870069357 0.0 0.0 0.0 0.0
561 2 31.9647020377 2.75748069357 0.0 0.0 0.0 0.0
562 2 38.7302020377 0.122836693565 0.0 0.0 0.0 0.0
563 2 39.5937020377 2.47690069357 0.0 0.0 0.0 0.0
564 2 37.0902020377 2.34642069357 0.0 0.0 0.0 0.0
565 2 44.0135020377 0.822938693565 0.0 0.0 0.0 0.0
566 2 44.3581020377 3.57047069357 0.0 0.0 0.0 0.0
567 2 42.1750020377 2.71768069357 0.0 0.0 0.0 0.0
568 2 49.4606020377 0.325908693565 0.0 0.0 0.0 0.0
569 2 50.8778020377 2.23493069357 0.0 0.0 0.0 0.0
570 2 48.6278020377 3.11693069357 0.0 0.0 0.0 0.0
571 2 55.8246020377 0.316431693565 0.0 0.0 0.0 0.0
572 2 55.3383020377 3.10735069357 0.0 0.0 0.0 0.0
573 2 53.5698020377 2.01978069357 0.0 0.0 0.0 0.0
574 2 60.6279020377 1.50499069357 0.0 0.0 0.0 0.0
575 2 61.1770020377 4.24708069357 0.0 0.0 0.0 0.0
576 2 59.2016020377 3.96667069357 0.0 0.0 0.0 0.0
577 2 66.5480020377 2.02594069357 0.0 0.0 0.0 0.0
578 2 64.4573020377 0.546762693565 0.0 0.0 0.0 0.0
579 2 64.7441020377 3.36299069357 0.0 0.0 0.0 0.0
580 2 69.3327020377 80.7094006936 0.0 0.0 0.0 0.0
581 2 71.2176020377 0.862550693565 0.0 0.0 0.0 0.0
582 2 68.9532020377 1.19916069357 0.0 0.0 0.0 0.0
583 2 74.7025020377 80.8504006936 0.0 0.0 0.0 0.0
584 2 76.1566020377 1.29491069357 0.0 0.0 0.0 0.0
585 2 73.7144020377 1.05036069357 0.0 0.0 0.0 0.0
586 2 0.374132037749 3.74740069357 0.0 0.0 0.0 0.0
587 2 1.56293203775 6.38742069357 0.0 0.0 0.0 0.0
588 2 76.5081020377 5.99806069357 0.0 0.0 0.0 0.0
589 2 4.85764203775 4.18016069357 0.0 0.0 0.0 0.0
590 2 6.11120203775 6.54086069357 0.0 0.0 0.0 0.0
591 2 3.74875203775 6.63823069357 0.0 0.0 0.0 0.0
592 2 9.95810203775 4.38367069357 0.0 0.0 0.0 0.0
593 2 11.0569020377 6.71164069357 0.0 0.0 0.0 0.0
594 2 8.56165203775 6.65927069357 0.0 0.0 0.0 0.0
595 2 14.9103020377 4.29118069357 0.0 0.0 0.0 0.0
596 2 15.8546020377 6.64960069357 0.0 0.0 0.0 0.0
597 2 13.4490020377 6.75388069357 0.0 0.0 0.0 0.0
598 2 19.8740020377 4.44324069357 0.0 0.0 0.0 0.0