# input file

1350 atoms
2 atom types

0.0 78.4095093199 xlo xhi
0.0 81.1048043042 ylo yhi
-10.0 10.0 zlo zhi
0.0 0.0 0.0 xy xz yz

Masses

1 28.0855 #Si
2 15.9994 #O

Atoms

1 1 2.44432243681 1.35870215211 0.0
2 1 7.73791243681 1.74129215211 0.0
3 1 13.7352924368 1.24229215211 0.0
4 1 19.0253924368 1.60174215211 0.0
5 1 25.5804924368 1.23775215211 0.0
6 1 28.5633924368 1.62298215211 0.0
7 1 33.5895924368 1.88258215211 0.0
8 1 38.9504924368 1.66252215211 0.0
9 1 44.0706924368 1.59387215211 0.0
10 1 49.5125924368 1.16014215211 0.0
11 1 55.3763924368 1.51218215211 0.0
12 1 60.6588924368 0.965082152107 0.0
13 1 65.7989924368 1.07282215211 0.0
14 1 70.8124924368 1.24569215211 0.0
15 1 75.8020924368 1.33731215211 0.0
16 1 78.2630924368 5.98830215211 0.0
17 1 5.03164243681 5.95579215211 0.0
18 1 9.18980243681 4.38780215211 0.0
19 1 15.2265924368 8.29974215211 0.0
20 1 20.5359924368 6.74346215211 0.0
21 1 25.7489924368 6.37414215211 0.0
22 1 31.1226924368 6.40920215211 0.0
23 1 36.3092924368 6.18552215211 0.0
24 1 41.6313924368 6.25323215211 0.0
25 1 48.4127924368 5.17922215211 0.0
26 1 51.0298924368 3.73745215211 0.0
27 1 57.9367924368 5.62005215211 0.0
28 1 63.2773924368 5.57361215211 0.0
29 1 68.2886924368 5.82168215211 0.0
30 1 73.1922924368 5.97949215211 0.0
31 1 2.62958243681 10.5002021521 0.0
32 1 8.08868243681 10.0959021521 0.0
33 1 13.5830924368 10.8229021521 0.0
34 1 18.7142924368 11.6171021521 0.0
35 1 23.7725924368 10.9840021521 0.0
36 1 28.8967924368 10.7502021521 0.0
37 1 33.6945924368 10.8720021521 0.0
38 1 38.5854924368 10.6670021521 0.0
39 1 43.8325924368 10.8321021521 0.0
40 1 49.1751924368 10.2377021521 0.0
41 1 54.8867924368 9.96360215211 0.0
42 1 60.2969924368 9.93010215211 0.0
43 1 65.6135924368 10.3570021521 0.0
44 1 70.4459924368 10.6500021521 0.0
45 1 75.6012924368 10.6140021521 0.0
46 1 78.1524924368 14.8657021521 0.0
47 1 5.15945243681 14.5936021521 0.0
48 1 10.4902924368 14.6856021521 0.0
49 1 15.8223924368 15.7259021521 0.0
50 1 23.1080924368 15.3755021521 0.0
51 1 26.1175924368 15.4083021521 0.0
52 1 31.0743924368 15.6671021521 0.0
53 1 35.9833924368 15.5564021521 0.0
54 1 41.0246924368 15.2224021521 0.0
55 1 46.6408924368 14.8786021521 0.0
56 1 52.0162924368 14.1814021521 0.0
57 1 59.2686924368 13.8677021521 0.0
58 1 62.2507924368 14.4744021521 0.0
59 1 67.4287924368 15.2847021521 0.0
60 1 72.6446924368 15.1941021521 0.0
61 1 2.27560243681 19.0615021521 0.0
62 1 7.51955243681 19.0542021521 0.0
63 1 12.6623924368 19.4974021521 0.0
64 1 17.7830924368 20.3892021521 0.0
65 1 22.8571924368 20.3358021521 0.0
66 1 28.3822924368 20.2824021521 0.0
67 1 33.4636924368 20.4170021521 0.0
68 1 38.6323924368 20.0621021521 0.0
69 1 43.9196924368 19.1051021521 0.0
70 1 49.2239924368 18.8330021521 0.0
71 1 53.9485924368 19.0695021521 0.0
72 1 58.7306924368 18.8435021521 0.0
73 1 64.3122924368 19.4402021521 0.0
74 1 70.0860924368 19.8250021521 0.0
75 1 75.4411924368 19.2676021521 0.0
76 1 77.8271924368 23.6330021521 0.0
77 1 4.68208243681 23.5305021521 0.0
78 1 9.95299243681 23.8123021521 0.0
79 1 15.1052924368 24.4199021521 0.0
80 1 20.3205924368 24.9597021521 0.0
81 1 25.3698924368 24.5432021521 0.0
82 1 30.5009924368 25.0351021521 0.0
83 1 36.3522924368 24.8305021521 0.0
84 1 43.3405924368 23.3152021521 0.0
85 1 46.3474924368 23.3419021521 0.0
86 1 51.5020924368 23.7937021521 0.0
87 1 56.4204924368 23.7487021521 0.0
88 1 61.2747924368 23.1997021521 0.0
89 1 65.4920924368 22.2478021521 0.0
90 1 72.6080924368 23.8775021521 0.0
91 1 1.88025243681 28.0306021521 0.0
92 1 7.22310243681 28.0997021521 0.0
93 1 12.5541924368 28.6129021521 0.0
94 1 17.6172924368 29.1453021521 0.0
95 1 22.9515924368 29.3737021521 0.0
96 1 27.7567924368 29.3461021521 0.0
97 1 31.7963924368 27.7777021521 0.0
98 1 38.7437924368 29.1402021521 0.0
99 1 43.7361924368 28.4710021521 0.0
100 1 49.1801924368 28.0730021521 0.0
101 1 54.6972924368 28.4191021521 0.0
102 1 59.7974924368 28.0970021521 0.0
103 1 64.1448924368 30.3821021521 0.0
104 1 69.5000924368 28.1565021521 0.0
105 1 74.9099924368 28.2281021521 0.0
106 1 77.8258924368 32.4812021521 0.0
107 1 4.72526243681 32.4326021521 0.0
108 1 9.82539243681 32.6950021521 0.0
109 1 14.9212924368 33.4788021521 0.0
110 1 20.2184924368 33.6346021521 0.0
111 1 25.5710924368 34.1921021521 0.0
112 1 30.7058924368 33.5925021521 0.0
113 1 35.7552924368 33.2146021521 0.0
114 1 41.4125924368 33.3923021521 0.0
115 1 46.6448924368 32.5245021521 0.0
116 1 52.0132924368 32.4417021521 0.0
117 1 57.3511924368 32.9360021521 0.0
118 1 62.7056924368 33.0799021521 0.0
119 1 67.7170924368 33.1057021521 0.0
120 1 72.6929924368 32.5443021521 0.0
121 1 2.63200243681 36.8022021521 0.0
122 1 7.81157243681 37.0785021521 0.0
123 1 12.8398924368 39.5365021521 0.0
124 1 18.2568924368 37.8975021521 0.0
125 1 23.2781924368 40.1774021521 0.0
126 1 28.6445924368 38.5158021521 0.0
127 1 33.8197924368 38.0866021521 0.0
128 1 39.1252924368 37.2843021521 0.0
129 1 44.6985924368 37.3220021521 0.0
130 1 49.7722924368 36.8016021521 0.0
131 1 53.8959924368 39.3374021521 0.0
132 1 59.4312924368 37.4812021521 0.0
133 1 65.7705924368 37.7349021521 0.0
134 1 70.9768924368 37.4464021521 0.0
135 1 75.7245924368 37.0700021521 0.0
136 1 0.983412436814 41.1753021521 0.0
137 1 5.51781243681 43.8290021521 0.0
138 1 11.2784924368 42.1088021521 0.0
139 1 16.5493924368 42.6765021521 0.0
140 1 21.8666924368 42.8333021521 0.0
141 1 26.7192924368 43.4334021521 0.0
142 1 31.4570924368 42.9336021521 0.0
143 1 38.7017924368 41.3509021521 0.0
144 1 41.7384924368 41.4536021521 0.0
145 1 47.1872924368 41.6850021521 0.0
146 1 52.4440924368 41.9826021521 0.0
147 1 57.1435924368 42.1117021521 0.0
148 1 60.9697924368 40.0943021521 0.0
149 1 68.3772924368 42.0788021521 0.0
150 1 74.2483924368 42.0218021521 0.0
151 1 3.82361243681 46.3458021521 0.0
152 1 9.82669243681 45.9988021521 0.0
153 1 12.7524924368 46.6167021521 0.0
154 1 19.8413924368 47.1033021521 0.0
155 1 22.8195924368 47.5968021521 0.0
156 1 28.9423924368 48.0973021521 0.0
157 1 34.0467924368 47.1784021521 0.0
158 1 39.3011924368 46.1467021521 0.0
159 1 44.8148924368 45.9059021521 0.0
160 1 50.0303924368 46.3254021521 0.0
161 1 55.1275924368 46.8894021521 0.0
162 1 60.0617924368 45.9892021521 0.0
163 1 65.3586924368 45.7370021521 0.0
164 1 69.8584924368 44.6886021521 0.0
165 1 77.0852924368 46.0778021521 0.0
166 1 0.458032436814 50.7148021521 0.0
167 1 5.45693243681 51.8321021521 0.0
168 1 10.1931924368 51.0971021521 0.0
169 1 14.9344924368 53.8846021521 0.0
170 1 19.8565924368 52.0803021521 0.0
171 1 24.3741924368 50.1798021521 0.0
172 1 32.3661924368 52.0649021521 0.0
173 1 37.6257924368 50.8746021521 0.0
174 1 42.8165924368 50.1936021521 0.0
175 1 47.8096924368 50.6174021521 0.0
176 1 52.9118924368 51.1806021521 0.0
177 1 58.0154924368 51.1301021521 0.0
178 1 63.1969924368 50.2346021521 0.0
179 1 68.5554924368 50.0548021521 0.0
180 1 73.7317924368 50.2708021521 0.0
181 1 2.74108243681 55.8094021521 0.0
182 1 8.16569243681 56.2504021521 0.0
183 1 13.4779924368 56.5165021521 0.0
184 1 18.3742924368 57.2828021521 0.0
185 1 23.2578924368 55.7056021521 0.0
186 1 27.5945924368 53.7447021521 0.0
187 1 37.0200924368 55.1665021521 0.0
188 1 40.0063924368 54.9339021521 0.0
189 1 45.0645924368 55.0751021521 0.0
190 1 50.2985924368 55.5037021521 0.0
191 1 55.4307924368 55.8282021521 0.0
192 1 62.5127924368 54.6578021521 0.0
193 1 65.5304924368 54.4964021521 0.0
194 1 70.7148924368 54.7220021521 0.0
195 1 75.9249924368 55.0773021521 0.0
196 1 78.3847924368 59.9000021521 0.0
197 1 5.26265243681 60.3281021521 0.0
198 1 10.6723924368 60.8052021521 0.0
199 1 15.8706924368 61.5660021521 0.0
200 1 21.1673924368 60.9800021521 0.0
201 1 26.2318924368 59.4800021521 0.0
202 1 31.2630924368 59.8870021521 0.0
203 1 36.4424924368 60.0198021521 0.0
204 1 42.0336924368 59.5852021521 0.0
205 1 46.9858924368 59.7171021521 0.0
206 1 52.1730924368 60.2423021521 0.0
207 1 57.8446924368 60.5429021521 0.0
208 1 62.8091924368 59.5782021521 0.0
209 1 68.0343924368 59.1942021521 0.0
210 1 73.1930924368 59.4412021521 0.0
211 1 2.50440243681 64.5530021521 0.0
212 1 7.60506243681 64.8640021521 0.0
213 1 12.9064924368 65.6510021521 0.0
214 1 18.9845924368 65.6734021521 0.0
215 1 24.1757924368 64.6407021521 0.0
216 1 28.9786924368 64.3060021521 0.0
217 1 33.9309924368 64.4397021521 0.0
218 1 39.2538924368 63.8518021521 0.0
219 1 44.3079924368 64.3622021521 0.0
220 1 49.2205924368 64.4617021521 0.0
221 1 53.4043924368 62.9968021521 0.0
222 1 60.6833924368 64.6238021521 0.0
223 1 65.6802924368 63.8978021521 0.0
224 1 70.7040924368 63.8942021521 0.0
225 1 75.7942924368 64.1923021521 0.0
226 1 0.0229434368144 68.9491021521 0.0
227 1 5.13919243681 69.2968021521 0.0
228 1 10.2322924368 69.5869021521 0.0
229 1 14.4999924368 68.2051021521 0.0
230 1 21.8514924368 69.5486021521 0.0
231 1 26.9017924368 69.2631021521 0.0
232 1 31.9347924368 69.0205021521 0.0
233 1 37.2062924368 68.4249021521 0.0
234 1 41.7502924368 70.8787021521 0.0
235 1 47.1451924368 69.1144021521 0.0
236 1 52.3666924368 68.6465021521 0.0
237 1 57.6363924368 68.7566021521 0.0
238 1 62.9705924368 68.8465021521 0.0
239 1 68.1751924368 68.5711021521 0.0
240 1 73.2961924368 68.6534021521 0.0
241 1 2.79278243681 73.6904021521 0.0
242 1 8.06812243681 73.9964021521 0.0
243 1 13.4432924368 73.7854021521 0.0
244 1 18.9015924368 73.8224021521 0.0
245 1 24.2791924368 74.0229021521 0.0
246 1 29.7709924368 73.7779021521 0.0
247 1 34.9595924368 73.1134021521 0.0
248 1 40.2542924368 73.4760021521 0.0
249 1 44.9834924368 73.9149021521 0.0
250 1 50.0601924368 73.3878021521 0.0
251 1 55.0968924368 73.1829021521 0.0
252 1 60.2398924368 73.2264021521 0.0
253 1 65.5488924368 73.2159021521 0.0
254 1 70.7608924368 73.2038021521 0.0
255 1 75.9379924368 73.3671021521 0.0
256 1 78.3200924368 2.97651215211 0.0
257 1 4.98893243681 2.94806215211 0.0
258 1 12.1214924368 3.76645215211 0.0
259 1 16.2808924368 2.83053215211 0.0
260 1 21.0992924368 3.79171215211 0.0
261 1 24.1119924368 3.84496215211 0.0
262 1 30.9910924368 3.40599215211 0.0
263 1 36.3261924368 3.16194215211 0.0
264 1 41.5345924368 3.22966215211 0.0
265 1 46.8894924368 2.60768215211 0.0
266 1 53.9859924368 4.19764215211 0.0
267 1 58.1584924368 2.62392215211 0.0
268 1 63.1995924368 2.56904215211 0.0
269 1 68.2512924368 2.81180215211 0.0
270 1 73.2757924368 2.96673215211 0.0
271 1 2.45395243681 7.49890215211 0.0
272 1 7.82002243681 7.08004215211 0.0
273 1 14.6592924368 5.35480215211 0.0
274 1 18.2147924368 8.65606215211 0.0
275 1 23.2517924368 8.03768215211 0.0
276 1 28.4352924368 7.76666215211 0.0
277 1 33.7778924368 7.84664215211 0.0
278 1 38.9463924368 7.66382215211 0.0
279 1 44.2021924368 7.85521215211 0.0
280 1 47.2302924368 7.92348215211 0.0
281 1 55.2394924368 6.94748215211 0.0
282 1 60.6157924368 6.95479215211 0.0
283 1 65.7043924368 7.34812215211 0.0
284 1 70.6819924368 7.64000215211 0.0
285 1 75.7217924368 7.60227215211 0.0
286 1 78.3442924368 11.8650021521 0.0
287 1 5.44758243681 11.5901021521 0.0
288 1 10.6787924368 11.6690021521 0.0
289 1 15.9202924368 12.7266021521 0.0
290 1 21.4499924368 12.8695021521 0.0
291 1 26.4082924368 12.4195021521 0.0
292 1 31.2491924368 12.6380021521 0.0
293 1 36.2059924368 12.5324021521 0.0
294 1 41.1594924368 12.2188021521 0.0
295 1 46.6546924368 11.8880021521 0.0
296 1 52.0803924368 11.1564021521 0.0
297 1 57.6268924368 11.3133021521 0.0
298 1 62.8478924368 11.5298021521 0.0
299 1 67.9163924368 12.2975021521 0.0
300 1 73.0264924368 12.1975021521 0.0
301 1 2.51227243681 16.0592021521 0.0
302 1 7.79671243681 16.0536021521 0.0
303 1 12.9095924368 16.4989021521 0.0
304 1 18.3069924368 17.4405021521 0.0
305 1 21.3050924368 17.7571021521 0.0
306 1 28.5028924368 17.2568021521 0.0
307 1 33.5647924368 17.3800021521 0.0
308 1 38.6099924368 17.0380021521 0.0
309 1 43.8967924368 16.1148021521 0.0
310 1 49.4910924368 15.8394021521 0.0
311 1 54.3503924368 16.0927021521 0.0
312 1 57.3575924368 16.1722021521 0.0
313 1 64.6071924368 16.4141021521 0.0
314 1 70.0573924368 16.7928021521 0.0
315 1 75.4701924368 16.2610021521 0.0
316 1 78.1152924368 20.6375021521 0.0
317 1 4.89637243681 20.5307021521 0.0
318 1 9.96269243681 20.8063021521 0.0
319 1 14.9721924368 21.4225021521 0.0
320 1 20.3393924368 21.9661021521 0.0
321 1 25.6276924368 21.5368021521 0.0
322 1 30.8767924368 22.0122021521 0.0
323 1 36.1535924368 21.8080021521 0.0
324 1 41.5286924368 20.9157021521 0.0
325 1 46.6448924368 20.3602021521 0.0
326 1 51.4967924368 20.7866021521 0.0
327 1 56.4271924368 20.7538021521 0.0
328 1 61.4068924368 20.1979021521 0.0
329 1 68.5015924368 22.4145021521 0.0
330 1 72.8980924368 20.8815021521 0.0
331 1 2.07502243681 25.0321021521 0.0
332 1 7.24270243681 25.1004021521 0.0
333 1 12.3596924368 25.6172021521 0.0
334 1 17.5665924368 26.1450021521 0.0
335 1 22.9738924368 26.3627021521 0.0
336 1 27.7859924368 26.3272021521 0.0
337 1 34.7759924368 27.4180021521 0.0
338 1 39.0440924368 26.1586021521 0.0
339 1 42.0382924368 25.9985021521 0.0
340 1 48.7951924368 25.0932021521 0.0
341 1 53.9890924368 25.4906021521 0.0
342 1 59.0386924368 25.1929021521 0.0
343 1 63.8178924368 24.7895021521 0.0
344 1 69.8625924368 25.1276021521 0.0
345 1 75.2800924368 25.2438021521 0.0
346 1 77.6495924368 29.4814021521 0.0
347 1 4.53746243681 29.4393021521 0.0
348 1 9.76279243681 29.7022021521 0.0
349 1 14.9233924368 30.4699021521 0.0
350 1 20.2256924368 30.6354021521 0.0
351 1 25.3662924368 31.1748021521 0.0
352 1 30.5179924368 30.5415021521 0.0
353 1 35.9465924368 30.2007021521 0.0
354 1 41.4542924368 30.4068021521 0.0
355 1 46.5482924368 29.5242021521 0.0
356 1 51.8657924368 29.4478021521 0.0
357 1 57.3516924368 29.8977021521 0.0
358 1 62.8019924368 27.6690021521 0.0
359 1 67.1764924368 30.1357021521 0.0
360 1 72.1950924368 29.5609021521 0.0
361 1 2.08890243681 33.8535021521 0.0
362 1 7.19903243681 34.1363021521 0.0
363 1 12.1360924368 34.6032021521 0.0
364 1 17.5291924368 34.9828021521 0.0
365 1 22.7418924368 35.2760021521 0.0
366 1 28.3198924368 35.4876021521 0.0
367 1 33.3613924368 35.0729021521 0.0
368 1 38.5585924368 34.3417021521 0.0
369 1 44.2603924368 34.3537021521 0.0
370 1 49.3463924368 33.8346021521 0.0
371 1 54.5334924368 34.0892021521 0.0
372 1 59.9789924368 34.4757021521 0.0
373 1 65.2048924368 34.7737021521 0.0
374 1 70.3965924368 34.4858021521 0.0
375 1 75.2851924368 34.0866021521 0.0
376 1 0.0481264368144 38.3245021521 0.0
377 1 5.13962243681 38.4659021521 0.0
378 1 10.8221924368 37.3042021521 0.0
379 1 15.8656924368 39.7463021521 0.0
380 1 21.2882924368 37.9175021521 0.0
381 1 26.2948924368 40.4402021521 0.0
382 1 31.3591924368 39.8860021521 0.0
383 1 36.7075924368 39.0687021521 0.0
384 1 41.9098924368 38.4558021521 0.0
385 1 47.3974924368 38.6726021521 0.0
386 1 52.7820924368 36.5595021521 0.0
387 1 56.8938924368 39.1199021521 0.0
388 1 63.9624924368 40.1318021521 0.0
389 1 68.4622924368 39.0777021521 0.0
390 1 73.5001924368 39.0934021521 0.0
391 1 3.98907243681 41.2439021521 0.0
392 1 8.50476243681 43.3159021521 0.0
393 1 13.7691924368 43.8147021521 0.0
394 1 19.1697924368 44.1658021521 0.0
395 1 24.0745924368 44.8667021521 0.0
396 1 29.2613924368 45.0558021521 0.0
397 1 34.2096924368 44.1850021521 0.0
398 1 37.2282924368 43.9530021521 0.0
399 1 44.4152924368 42.9077021521 0.0
400 1 49.7395924368 43.3129021521 0.0
401 1 54.7455924368 43.9102021521 0.0
402 1 60.0053924368 42.9643021521 0.0
403 1 65.4547924368 42.7367021521 0.0
404 1 72.8513924368 44.6921021521 0.0
405 1 77.0668924368 43.0707021521 0.0
406 1 1.15642243681 47.7680021521 0.0
407 1 5.49203243681 48.8369021521 0.0
408 1 8.46755243681 48.6519021521 0.0
409 1 12.7944924368 49.6095021521 0.0
410 1 18.1698924368 49.6034021521 0.0
411 1 27.3366924368 50.6966021521 0.0
412 1 31.7623924368 49.1249021521 0.0
413 1 36.9363924368 47.9803021521 0.0
414 1 42.1215924368 47.2583021521 0.0
415 1 47.3140924368 47.6311021521 0.0
416 1 52.4195924368 48.1966021521 0.0
417 1 57.8887924368 48.1013021521 0.0
418 1 62.7802924368 47.2644021521 0.0
419 1 68.0489924368 47.0847021521 0.0
420 1 74.3415924368 47.3085021521 0.0
421 1 2.62559243681 52.8080021521 0.0
422 1 8.11218243681 53.2498021521 0.0
423 1 15.4670924368 50.9303021521 0.0
424 1 17.8923924368 54.3414021521 0.0
425 1 22.7817924368 52.7308021521 0.0
426 1 30.5177924368 54.4251021521 0.0
427 1 35.2887924368 52.7284021521 0.0
428 1 40.4077924368 51.9703021521 0.0
429 1 45.1761924368 52.0636021521 0.0
430 1 50.1959924368 52.4814021521 0.0
431 1 55.4808924368 52.7938021521 0.0
432 1 60.8672924368 52.1336021521 0.0
433 1 65.9224924368 51.5140021521 0.0
434 1 71.0749924368 51.7138021521 0.0
435 1 76.1618924368 52.0609021521 0.0
436 1 78.3428924368 56.8899021521 0.0
437 1 5.35163243681 57.3234021521 0.0
438 1 10.7524924368 57.7913021521 0.0
439 1 15.6725924368 58.5742021521 0.0
440 1 21.2809924368 57.9785021521 0.0
441 1 26.1687924368 56.4371021521 0.0
442 1 32.0561924368 57.0025021521 0.0
443 1 35.0332924368 57.3849021521 0.0
444 1 42.4821924368 56.6189021521 0.0
445 1 47.5573924368 56.7612021521 0.0
446 1 52.7617924368 57.2664021521 0.0
447 1 57.9310924368 57.5367021521 0.0
448 1 60.9393924368 57.2134021521 0.0
449 1 68.0520924368 56.1681021521 0.0
450 1 73.2185924368 56.4195021521 0.0
451 1 2.50693243681 61.5419021521 0.0
452 1 7.85195243681 61.8691021521 0.0
453 1 13.0674924368 62.6479021521 0.0
454 1 18.6695924368 62.6809021521 0.0
455 1 24.0997924368 61.6294021521 0.0
456 1 28.6257924368 61.3103021521 0.0
457 1 33.8187924368 61.4572021521 0.0
458 1 39.3192924368 60.8595021521 0.0
459 1 44.4607924368 61.3528021521 0.0
460 1 49.4245924368 61.4594021521 0.0
461 1 56.3880924368 63.1695021521 0.0
462 1 60.6356924368 61.6318021521 0.0
463 1 65.5300924368 60.8759021521 0.0
464 1 70.5423924368 60.8771021521 0.0
465 1 75.6619924368 61.1808021521 0.0
466 1 78.2493924368 65.9411021521 0.0
467 1 4.96295243681 66.2914021521 0.0
468 1 10.0611924368 66.5910021521 0.0
469 1 17.4941924368 68.2858021521 0.0
470 1 21.8510924368 66.5439021521 0.0
471 1 26.7004924368 66.2578021521 0.0
472 1 31.4192924368 66.0603021521 0.0
473 1 36.7345924368 65.4714021521 0.0
474 1 41.6158924368 65.6876021521 0.0
475 1 46.7310924368 66.1354021521 0.0
476 1 51.9747924368 65.6511021521 0.0
477 1 57.9112924368 65.7613021521 0.0
478 1 63.4029924368 65.8701021521 0.0
479 1 68.1949924368 65.5537021521 0.0
480 1 73.1611924368 65.6411021521 0.0
481 1 2.48151243681 70.6939021521 0.0
482 1 7.60490243681 71.0255021521 0.0
483 1 12.9801924368 70.8014021521 0.0
484 1 19.1267924368 70.8139021521 0.0
485 1 24.4622924368 71.0217021521 0.0
486 1 29.5009924368 70.7798021521 0.0
487 1 34.7323924368 70.1240021521 0.0
488 1 40.2014924368 68.3309021521 0.0
489 1 44.7466924368 70.9273021521 0.0
490 1 49.8873924368 70.3718021521 0.0
491 1 54.9737924368 70.1671021521 0.0
492 1 60.2782924368 70.2118021521 0.0
493 1 65.6481924368 70.2109021521 0.0
494 1 70.7126924368 70.1925021521 0.0
495 1 75.7795924368 70.3599021521 0.0
496 1 0.0742194368144 74.9794021521 0.0
497 1 5.35269243681 75.2976021521 0.0
498 1 10.8065924368 75.2754021521 0.0
499 1 16.1676924368 75.1128021521 0.0
500 1 21.5418924368 75.3130021521 0.0
501 1 27.0818924368 75.1393021521 0.0
502 1 32.5634924368 74.9226021521 0.0
503 1 37.5142924368 74.6885021521 0.0
504 1 42.4436924368 75.5142021521 0.0
505 1 47.6727924368 75.2228021521 0.0
506 1 52.6454924368 74.9304021521 0.0
507 1 57.6539924368 74.7773021521 0.0
508 1 62.8985924368 74.6424021521 0.0
509 1 68.1583924368 74.7123021521 0.0
510 1 73.3030924368 74.8179021521 0.0
511 1 5.53532243681 78.3059021521 0.0
512 1 10.7432924368 78.2933021521 0.0
513 1 16.3427924368 78.1298021521 0.0
514 1 21.6594924368 78.3312021521 0.0
515 1 27.0818924368 78.1383021521 0.0
516 1 33.9899924368 77.5731021521 0.0
517 1 36.9956924368 77.6476021521 0.0
518 1 41.8800924368 78.4609021521 0.0
519 1 47.2038924368 78.1937021521 0.0
520 1 52.6760924368 77.9466021521 0.0
521 1 57.6279924368 77.7978021521 0.0
522 1 63.0029924368 77.6487021521 0.0
523 1 68.2273924368 77.7191021521 0.0
524 1 73.3593924368 77.8271021521 0.0
525 1 0.135505436814 77.9862021521 0.0
526 1 2.75513243681 79.4730021521 0.0
527 1 8.14148243681 79.8464021521 0.0
528 1 13.5733924368 79.3489021521 0.0
529 1 18.9537924368 79.6835021521 0.0
530 1 24.4264924368 79.5616021521 0.0
531 1 29.5266924368 79.8906021521 0.0
532 1 32.5153924368 80.1777021521 0.0
533 1 39.1553924368 79.7533021521 0.0
534 1 44.6015924368 79.7357021521 0.0
535 1 49.9938924368 79.3118021521 0.0
536 1 55.1994924368 79.5971021521 0.0
537 1 60.3563924368 79.0780021521 0.0
538 1 65.5987924368 79.1763021521 0.0
539 1 70.7615924368 79.3413021521 0.0
540 1 75.9049924368 79.4331021521 0.0
541 2 2.58447243681 80.9693021521 0.0
542 2 3.71710243681 2.15618215211 0.0
543 2 1.17493243681 2.16135215211 0.0
544 2 8.00898243681 0.254038152107 0.0
545 2 8.51587243681 3.03615215211 0.0
546 2 6.32284243681 2.26444215211 0.0
547 2 13.6122924368 80.8574021521 0.0
548 2 15.0821924368 1.91649215211 0.0
549 2 12.7596924368 2.39557215211 0.0
550 2 19.0174924368 0.0940781521075 0.0
551 2 20.1182924368 2.64769215211 0.0
552 2 17.6638924368 2.25533215211 0.0
553 2 24.8097924368 2.52003215211 0.0
554 2 24.9126924368 80.9947021521 0.0
555 2 27.0640924368 1.50932215211 0.0
556 2 29.0522924368 0.206379152107 0.0
557 2 29.7108924368 2.60266215211 0.0
558 2 33.1439924368 0.438712152107 0.0
559 2 34.9735924368 2.48026215211 0.0
560 2 32.3163924368 2.69212215211 0.0
561 2 39.0250924368 0.150677152107 0.0
562 2 37.6290924368 2.39576215211 0.0
563 2 40.2374924368 2.45554215211 0.0
564 2 44.3313924368 0.111786152107 0.0
565 2 45.4585924368 2.18362215211 0.0
566 2 42.8061924368 2.40678215211 0.0
567 2 49.8328924368 80.8074021521 0.0
568 2 48.1176924368 1.73176215211 0.0
569 2 50.4270924368 2.35463215211 0.0
570 2 55.2184924368 0.00650615210746 0.0
571 2 56.8049924368 1.98572215211 0.0
572 2 54.6236924368 2.82469215211 0.0
573 2 60.5097924368 80.5769021521 0.0
574 2 61.9364924368 1.75563215211 0.0
575 2 59.4103924368 1.80187215211 0.0
576 2 65.7059924368 80.6778021521 0.0
577 2 67.0243924368 1.94186215211 0.0
578 2 64.4976924368 1.82106215211 0.0
579 2 70.7876924368 80.8464021521 0.0
580 2 72.0442924368 2.10432215211 0.0
581 2 69.5321924368 2.02984215211 0.0
582 2 75.8467924368 80.9382021521 0.0
583 2 77.0603924368 2.15835215211 0.0
584 2 74.5409924368 2.15402215211 0.0
585 2 78.2874924368 4.48135215211 0.0
586 2 1.15333243681 6.74644215211 0.0
587 2 76.9963924368 6.79989215211 0.0
588 2 4.98272243681 4.45191215211 0.0
589 2 6.39314243681 6.58673215211 0.0
590 2 3.74729243681 6.73220215211 0.0
591 2 10.6733924368 4.12986215211 0.0
592 2 8.60257243681 5.77888215211 0.0
593 2 14.8910924368 6.83345215211 0.0
594 2 16.7264924368 8.44798215211 0.0
595 2 14.3077924368 9.49190215211 0.0
596 2 20.6924924368 5.24801215211 0.0
597 2 21.8856924368 7.41942215211 0.0
598 2 19.3275924368 7.64012215211 0.0
599 2 25.0251924368 5.04543215211 0.0
600 2 27.1139924368 7.02361215211 0.0
601 2 24.5273924368 7.25443215211 0.0
602 2 31.0492924368 4.90626215211 0.0
603 2 32.4446924368 7.13137215211 0.0
604 2 29.7723924368 7.07286215211 0.0
605 2 36.3153924368 4.67334215211 0.0
606 2 37.6391924368 6.90287215211 0.0
607 2 35.0421924368 7.01618215211 0.0
608 2 41.5944924368 4.73872215211 0.0
609 2 42.9565924368 6.99334215211 0.0
610 2 40.2939924368 6.97109215211 0.0
611 2 47.8602924368 6.55913215211 0.0
612 2 47.5008924368 3.98105215211 0.0
613 2 49.8169924368 4.63271215211 0.0
614 2 52.4908924368 4.02124215211 0.0
615 2 58.0611924368 4.12239215211 0.0
616 2 59.2796924368 6.28119215211 0.0
617 2 56.6342924368 6.35967215211 0.0
618 2 63.2482924368 4.07140215211 0.0
619 2 64.4868924368 6.46282215211 0.0
620 2 61.9404924368 6.26000215211 0.0
621 2 68.2734924368 4.31648215211 0.0
622 2 69.4867924368 6.72510215211 0.0
623 2 66.9942924368 6.58280215211 0.0
624 2 73.2279924368 4.47204215211 0.0
625 2 74.4611924368 6.78408215211 0.0
626 2 71.9450924368 6.81974215211 0.0
627 2 2.52877243681 8.99703215211 0.0
628 2 4.04052243681 11.0307021521 0.0
629 2 1.29020243681 11.2011021521 0.0
630 2 8.03020243681 8.57769215211 0.0
631 2 9.40502243681 10.8495021521 0.0
632 2 6.76624243681 10.8443021521 0.0
633 2 14.7100924368 11.8330021521 0.0
634 2 12.1168924368 11.1796021521 0.0
635 2 18.5523924368 10.1217021521 0.0
636 2 20.0485924368 12.3185021521 0.0
637 2 17.3356924368 12.2144021521 0.0
638 2 23.5088924368 9.51360215211 0.0
639 2 25.1039924368 11.6717021521 0.0
640 2 22.5684924368 11.8686021521 0.0
641 2 28.6639924368 9.26122215211 0.0
642 2 30.0791924368 11.6815021521 0.0
643 2 27.6490924368 11.5883021521 0.0
644 2 33.7380924368 9.35982215211 0.0
645 2 34.9500924368 11.7001021521 0.0
646 2 32.4815924368 11.7663021521 0.0
647 2 38.7503924368 9.16581215211 0.0
648 2 39.8860924368 11.4285021521 0.0
649 2 37.3986924368 11.6014021521 0.0
650 2 43.9211924368 9.33477215211 0.0
651 2 45.2388924368 11.3718021521 0.0
652 2 42.5074924368 11.5439021521 0.0
653 2 48.2812924368 9.00655215211 0.0
654 2 50.6490924368 10.6109021521 0.0
655 2 47.9657924368 11.1566021521 0.0
656 2 55.0023924368 8.44105215211 0.0
657 2 56.2269924368 10.7073021521 0.0
658 2 53.4738924368 10.5398021521 0.0
659 2 60.4795924368 8.44448215211 0.0
660 2 61.5742924368 10.7270021521 0.0
661 2 58.9164924368 10.5146021521 0.0
662 2 65.6810924368 8.85164215211 0.0
663 2 66.7567924368 11.3296021521 0.0
664 2 64.2251924368 10.9358021521 0.0
665 2 70.5492924368 9.14141215211 0.0
666 2 71.7453924368 11.4070021521 0.0
667 2 69.1967924368 11.4941021521 0.0
668 2 75.6450924368 9.10480215211 0.0
669 2 76.9789924368 11.2258021521 0.0
670 2 74.3259924368 11.4228021521 0.0
671 2 78.2431924368 13.3648021521 0.0
672 2 1.12613243681 15.4656021521 0.0
673 2 76.8069924368 15.5534021521 0.0
674 2 5.32144243681 13.0959021521 0.0
675 2 6.47764243681 15.3262021521 0.0
676 2 3.82909243681 15.3165021521 0.0
677 2 10.5770924368 13.1789021521 0.0
678 2 11.7165924368 15.5736021521 0.0
679 2 9.13768243681 15.3624021521 0.0
680 2 15.8783924368 14.2252021521 0.0
681 2 17.0970924368 16.5385021521 0.0
682 2 14.3707924368 16.1297021521 0.0
683 2 22.2209924368 16.5761021521 0.0
684 2 22.2202924368 14.1590021521 0.0
685 2 24.6081924368 15.4900021521 0.0
686 2 26.3514924368 13.9178021521 0.0
687 2 27.2618924368 16.3844021521 0.0
688 2 31.1615924368 14.1508021521 0.0
689 2 32.3101924368 16.5354021521 0.0
690 2 29.7851924368 16.4580021521 0.0
691 2 36.0906924368 14.0426021521 0.0
692 2 37.2965924368 16.3011021521 0.0
693 2 34.7796924368 16.4725021521 0.0
694 2 41.0429924368 13.7165021521 0.0
695 2 42.4693924368 15.6527021521 0.0
696 2 39.8329924368 16.1444021521 0.0
697 2 46.6512924368 13.3820021521 0.0
698 2 48.0597924368 15.3695021521 0.0
699 2 45.2677924368 15.4951021521 0.0
700 2 52.0652924368 12.6757021521 0.0
701 2 53.2361924368 15.0820021521 0.0
702 2 50.7352924368 14.9906021521 0.0
703 2 58.3093924368 15.0241021521 0.0
704 2 58.3834924368 12.6347021521 0.0
705 2 60.7376924368 14.2599021521 0.0
706 2 62.6451924368 13.0149021521 0.0
707 2 63.3829924368 15.4953021521 0.0
708 2 67.6750924368 13.7867021521 0.0
709 2 68.7276924368 16.0671021521 0.0
710 2 66.0213924368 15.8500021521 0.0
711 2 74.0587924368 15.7346021521 0.0
712 2 72.8123924368 13.6889021521 0.0
713 2 71.3557924368 15.9942021521 0.0
714 2 2.40314243681 17.5639021521 0.0
715 2 3.58633243681 19.7975021521 0.0
716 2 0.990312436814 19.8502021521 0.0
717 2 7.66891243681 17.5579021521 0.0
718 2 8.73863243681 19.9375021521 0.0
719 2 6.20111243681 19.7830021521 0.0
720 2 12.7657924368 18.0009021521 0.0
721 2 13.8197924368 20.4622021521 0.0
722 2 11.3071924368 20.1408021521 0.0
723 2 17.9781924368 18.9073021521 0.0
724 2 19.0412924368 21.2078021521 0.0
725 2 16.3781924368 20.8982021521 0.0
726 2 22.1393924368 19.0104021521 0.0
727 2 24.2709924368 20.8579021521 0.0
728 2 21.6445924368 21.2335021521 0.0
729 2 28.4478924368 18.7667021521 0.0
730 2 29.6224924368 21.1511021521 0.0
731 2 26.9934924368 20.8953021521 0.0
732 2 33.5125924368 18.8971021521 0.0
733 2 34.8044924368 21.1262021521 0.0
734 2 32.1821924368 21.2324021521 0.0
735 2 38.6068924368 18.5480021521 0.0
736 2 40.0669924368 20.5612021521 0.0
737 2 37.4060924368 20.9476021521 0.0
738 2 43.9094924368 17.6136021521 0.0
739 2 45.2870924368 19.7240021521 0.0
740 2 42.6687924368 19.9259021521 0.0
741 2 49.4127924368 17.3467021521 0.0
742 2 50.3410924368 19.8313021521 0.0
743 2 47.9088924368 19.5599021521 0.0
744 2 54.0621924368 17.5752021521 0.0
745 2 55.1788924368 19.9272021521 0.0
746 2 52.7280924368 19.9325021521 0.0
747 2 58.0938924368 17.4865021521 0.0
748 2 60.1162924368 19.4253021521 0.0
749 2 57.6316924368 19.8676021521 0.0
750 2 64.5253924368 17.9348021521 0.0
751 2 64.9709924368 20.8110021521 0.0
752 2 62.8288924368 19.7365021521 0.0
753 2 70.0067924368 18.3102021521 0.0
754 2 71.5217924368 20.2843021521 0.0
755 2 69.2309924368 21.0795021521 0.0
756 2 75.4639924368 17.7674021521 0.0
757 2 76.7823924368 19.9430021521 0.0
758 2 74.1696924368 20.0759021521 0.0
759 2 77.9717924368 22.1358021521 0.0
760 2 0.747642436814 24.3327021521 0.0
761 2 76.5550924368 24.4405021521 0.0
762 2 4.79400243681 22.0324021521 0.0
763 2 5.96385243681 24.3168021521 0.0
764 2 3.37563243681 24.2769021521 0.0
765 2 9.96419243681 22.3100021521 0.0
766 2 11.1547924368 24.7182021521 0.0
767 2 8.59354243681 24.4499021521 0.0
768 2 15.0246924368 22.9222021521 0.0
769 2 16.3397924368 25.2772021521 0.0
770 2 13.7341924368 25.0206021521 0.0
771 2 20.3343924368 23.4611021521 0.0
772 2 21.6295924368 25.6863021521 0.0
773 2 18.9479924368 25.5586021521 0.0
774 2 25.4961924368 23.0442021521 0.0
775 2 26.5839924368 25.4304021521 0.0
776 2 24.1519924368 25.4303021521 0.0
777 2 30.7520924368 23.5333021521 0.0
778 2 31.2103924368 26.3769021521 0.0
779 2 29.1002924368 25.6030021521 0.0
780 2 36.2106924368 23.3255021521 0.0
781 2 37.7639924368 25.3792021521 0.0
782 2 35.4826924368 26.0761021521 0.0
783 2 42.6892924368 24.6588021521 0.0
784 2 42.3672924368 22.1710021521 0.0
785 2 44.8429924368 23.4026021521 0.0
786 2 46.5956924368 21.8581021521 0.0
787 2 47.5261924368 24.2787021521 0.0