ITEM: TIMESTEP
1
ITEM: NUMBER OF ATOMS
900
ITEM: BOX BOUNDS xy xz yz pp pp pp
0.0 30.348180309242462 0.030092470602094922
0.0 30.348180309242462 0.0
0.0 10.0 0.0
ITEM: ATOMS id type x y z vx vy vz
1 1 0.2684320256972144 0.18003868368915385 0.0 0.0 0.0 0.0
2 1 0.8679553673044175 -0.15344737171540512 0.0 0.0 0.0 0.0
3 1 3.832096875207498 1.1701098550203812 0.0 0.0 0.0 0.0
4 1 4.442204522314731 0.8355642864085051 0.0 0.0 0.0 0.0
5 2 4.673260858264932 30.105339293254602 0.0 0.0 0.0 0.0
6 2 5.576816367678074 0.9074821629731368 0.0 0.0 0.0 0.0
7 1 6.677454023151319 0.612389343777313 0.0 0.0 0.0 0.0
8 1 7.33177014483721 0.8150486001927564 0.0 0.0 0.0 0.0
9 1 8.369253318520348 0.04261739874964199 0.0 0.0 0.0 0.0
10 1 8.96886616351602 0.3858579703042161 0.0 0.0 0.0 0.0
11 1 9.485903892684373 0.821720128680723 0.0 0.0 0.0 0.0
12 1 10.758213143468371 0.6527202229270804 0.0 0.0 0.0 0.0
13 2 11.763176204515176 1.085599745482629 0.0 0.0 0.0 0.0
14 2 13.407207846211245 0.6534807435901312 0.0 0.0 0.0 0.0
15 2 14.698946374922098 0.13823467077840818 0.0 0.0 0.0 0.0
16 1 15.881010523187024 30.346759993254132 0.0 0.0 0.0 0.0
17 2 16.97353564804248 0.3143892270912928 0.0 0.0 0.0 0.0
18 1 18.084924056919252 30.32615558522905 0.0 0.0 0.0 0.0
19 1 18.720731641574172 0.2651389936204196 0.0 0.0 0.0 0.0
20 2 19.494764211236507 1.077598418346907 0.0 0.0 0.0 0.0
21 1 20.620743355637927 0.8840875178850565 0.0 0.0 0.0 0.0
22 2 21.74710739269231 0.7690572402177828 0.0 0.0 0.0 0.0
23 1 22.863314174192194 0.7918740834250455 0.0 0.0 0.0 0.0
24 1 23.37709052818951 0.31542412932799213 0.0 0.0 0.0 0.0
25 2 24.5451166685978 0.4700614878367286 0.0 0.0 0.0 0.0
26 1 25.581962902014713 0.8406841635912611 0.0 0.0 0.0 0.0
27 2 26.685853410710084 0.6655106751702895 0.0 0.0 0.0 0.0
28 1 27.756763712759028 0.5112939327824279 0.0 0.0 0.0 0.0
29 2 28.81577630556338 0.7427697313549202 0.0 0.0 0.0 0.0
30 1 29.922944313417617 0.36835028782630075 0.0 0.0 0.0 0.0
31 1 0.08781278253328297 0.8224616374644228 0.0 0.0 0.0 0.0
32 2 1.1698216187157076 0.9133088830524936 0.0 0.0 0.0 0.0
33 2 2.4496645071965224 2.1281286340441223 0.0 0.0 0.0 0.0
34 1 3.495448589814399 1.7684030108067748 0.0 0.0 0.0 0.0
35 2 4.606329678460903 1.9137468169770762 0.0 0.0 0.0 0.0
36 1 5.680059576435008 2.114195326019476 0.0 0.0 0.0 0.0
37 2 6.702183292862195 1.7296251345171383 0.0 0.0 0.0 0.0
38 1 7.704006357385301 2.1274601985206774 0.0 0.0 0.0 0.0
39 2 8.57734633528016 1.463086751893196 0.0 0.0 0.0 0.0
40 1 10.149239882476852 0.9087476257653598 0.0 0.0 0.0 0.0
41 1 10.692920068615761 1.3312189249973876 0.0 0.0 0.0 0.0
42 1 11.021790610818154 1.9385144598881807 0.0 0.0 0.0 0.0
43 1 11.66315304566118 2.2289543409266646 0.0 0.0 0.0 0.0
44 2 12.791706262576385 1.7914499859428845 0.0 0.0 0.0 0.0
45 2 14.473350561934218 1.4559696019841155 0.0 0.0 0.0 0.0
46 2 15.866027024413222 1.1866400772256835 0.0 0.0 0.0 0.0
47 1 16.965594649350923 1.4281352080405358 0.0 0.0 0.0 0.0
48 2 18.026079791618553 1.096288850531861 0.0 0.0 0.0 0.0
49 1 18.765388517354367 1.9342181246280312 0.0 0.0 0.0 0.0
50 1 19.405470979990984 2.195099176060991 0.0 0.0 0.0 0.0
51 2 20.485369107839656 1.969235870970814 0.0 0.0 0.0 0.0
52 2 21.70916896015748 2.011233646817422 0.0 0.0 0.0 0.0
53 1 22.642773827825305 1.4427662831123462 0.0 0.0 0.0 0.0
54 2 23.736976677469716 1.4555720156982517 0.0 0.0 0.0 0.0
55 1 24.72555008155942 1.9035927117291775 0.0 0.0 0.0 0.0
56 1 25.202825402587766 1.4148323344433995 0.0 0.0 0.0 0.0
57 1 25.90172436974407 1.4275883720588254 0.0 0.0 0.0 0.0
58 1 27.72813800881509 1.186205085953884 0.0 0.0 0.0 0.0
59 1 29.466079728971053 1.667385163501544 0.0 0.0 0.0 0.0
60 1 29.835355563396355 1.0930209886181441 0.0 0.0 0.0 0.0
61 2 0.2210171195377875 1.9296241877484752 0.0 0.0 0.0 0.0
62 1 1.3457031630311242 1.9920721304519213 0.0 0.0 0.0 0.0
63 2 2.434230703682055 3.4229328656026543 0.0 0.0 0.0 0.0
64 2 3.6695851086738704 2.9027019423434424 0.0 0.0 0.0 0.0
65 2 5.048205464051124 3.05006098229798 0.0 0.0 0.0 0.0
66 1 6.106723442841364 2.665620533095091 0.0 0.0 0.0 0.0
67 1 6.783556884280119 2.8819946432815944 0.0 0.0 0.0 0.0
68 1 7.505830159474458 2.779750327775303 0.0 0.0 0.0 0.0
69 1 8.203706546816228 2.564391279340825 0.0 0.0 0.0 0.0
70 1 8.886140199422442 2.555686400423507 0.0 0.0 0.0 0.0
71 2 9.774736170737619 1.925711199094639 0.0 0.0 0.0 0.0
72 1 10.684445100562707 2.52402355952788 0.0 0.0 0.0 0.0
73 2 12.47317871873752 3.0016254718658217 0.0 0.0 0.0 0.0
74 2 13.743127206089408 2.6719981677784843 0.0 0.0 0.0 0.0
75 2 15.001013981336527 2.6451724654119184 0.0 0.0 0.0 0.0
76 1 16.055946671565426 2.3397423721654613 0.0 0.0 0.0 0.0
77 1 16.635845267055654 2.020974560728109 0.0 0.0 0.0 0.0
78 2 17.689210315370033 2.297097981608568 0.0 0.0 0.0 0.0
79 2 18.717787743052494 3.047914768797673 0.0 0.0 0.0 0.0
80 1 19.789883311288573 2.790908830745961 0.0 0.0 0.0 0.0
81 1 20.44684017558167 3.098561429759085 0.0 0.0 0.0 0.0
82 1 21.113552473752662 2.9363505942937045 0.0 0.0 0.0 0.0
83 1 21.8033064492205 3.1072859000929656 0.0 0.0 0.0 0.0
84 2 22.821703083003076 2.56680004833857 0.0 0.0 0.0 0.0
85 2 24.079894182739004 2.832232814897187 0.0 0.0 0.0 0.0
86 2 25.656268243112752 2.476547118567593 0.0 0.0 0.0 0.0
87 2 26.902727755004584 1.9520997295064155 0.0 0.0 0.0 0.0
88 2 28.416490411388974 2.0697656183313025 0.0 0.0 0.0 0.0
89 1 29.139536976126223 2.935912503959949 0.0 0.0 0.0 0.0
90 1 29.50665511342455 2.348652402609311 0.0 0.0 0.0 0.0
91 1 0.6590173891812593 3.996911924102753 0.0 0.0 0.0 0.0
92 2 1.2215049408635708 3.0772879076486404 0.0 0.0 0.0 0.0
93 1 2.8532212259607292 4.436178501263718 0.0 0.0 0.0 0.0
94 1 3.3881439608934505 4.016286460701593 0.0 0.0 0.0 0.0
95 2 4.476703159066091 4.160909310913038 0.0 0.0 0.0 0.0
96 2 6.049489036001336 3.7753593280407958 0.0 0.0 0.0 0.0
97 2 7.329139862238202 3.885789326397271 0.0 0.0 0.0 0.0
98 1 8.181000217440596 4.634003230993935 0.0 0.0 0.0 0.0
99 2 8.557206968689076 3.603148239897497 0.0 0.0 0.0 0.0
100 2 9.81336717313927 3.2426442326318314 0.0 0.0 0.0 0.0
101 2 11.308520015755564 3.4069403236002165 0.0 0.0 0.0 0.0
102 1 12.201012673750114 4.093497093659184 0.0 0.0 0.0 0.0
103 1 12.550660207499927 4.67885339004413 0.0 0.0 0.0 0.0
104 2 13.337588519035917 3.8941648644763385 0.0 0.0 0.0 0.0
105 1 14.427210098002742 3.593170050404052 0.0 0.0 0.0 0.0
106 1 16.019312432922074 3.02089159472101 0.0 0.0 0.0 0.0
107 1 16.657190558558554 2.7641570078499065 0.0 0.0 0.0 0.0
108 2 17.587413162635535 3.542643876601307 0.0 0.0 0.0 0.0
109 1 18.533519468882925 4.151977203040691 0.0 0.0 0.0 0.0
110 2 19.650704394096667 3.8740443794803303 0.0 0.0 0.0 0.0
111 2 21.204225540021138 4.047143459533369 0.0 0.0 0.0 0.0
112 1 22.287617329008636 3.593072763121605 0.0 0.0 0.0 0.0
113 1 22.98135221575256 3.658179497303335 0.0 0.0 0.0 0.0
114 2 23.958559822056046 4.1788703209998355 0.0 0.0 0.0 0.0
115 2 25.13570585897636 3.6139262919850705 0.0 0.0 0.0 0.0
116 1 26.050196853821944 4.24505485944522 0.0 0.0 0.0 0.0
117 2 26.644943107502158 3.269787022649031 0.0 0.0 0.0 0.0
118 2 28.10649643776872 3.415572855842272 0.0 0.0 0.0 0.0
119 1 29.212136078989616 3.6207979691077203 0.0 0.0 0.0 0.0
120 2 30.24387573833866 3.1820233110243104 0.0 0.0 0.0 0.0
121 1 0.7480989152859865 4.650117794322049 0.0 0.0 0.0 0.0
122 1 1.3391111312181547 4.24054213234826 0.0 0.0 0.0 0.0
123 1 2.138695067974949 4.490899525152542 0.0 0.0 0.0 0.0
124 2 3.690231604165642 5.1819200389314695 0.0 0.0 0.0 0.0
125 1 4.856272058844927 5.194045286593221 0.0 0.0 0.0 0.0
126 1 5.42098250110258 4.762267666560499 0.0 0.0 0.0 0.0
127 2 6.529622524620432 4.919893338303565 0.0 0.0 0.0 0.0
128 1 7.613362981073649 4.98531156562848 0.0 0.0 0.0 0.0
129 1 8.857729862655408 4.687291685101584 0.0 0.0 0.0 0.0
130 1 9.420316273488773 4.312473321040485 0.0 0.0 0.0 0.0
131 2 10.513605091475762 4.382710385325885 0.0 0.0 0.0 0.0
132 1 11.625788192195957 4.491812878284884 0.0 0.0 0.0 0.0
133 1 11.982111641790167 5.068042959768357 0.0 0.0 0.0 0.0
134 2 13.626402403873971 5.094654291959361 0.0 0.0 0.0 0.0
135 1 14.397578018951442 4.27065109272635 0.0 0.0 0.0 0.0
136 2 15.512296711490384 4.040236156445138 0.0 0.0 0.0 0.0
137 1 16.498876019583324 3.474407805904734 0.0 0.0 0.0 0.0
138 1 18.025131122690524 4.62492333295081 0.0 0.0 0.0 0.0
139 2 19.201878373543963 5.041956576584613 0.0 0.0 0.0 0.0
140 1 20.306398899188295 4.731122353979352 0.0 0.0 0.0 0.0
141 1 20.85775997891967 5.112699749360816 0.0 0.0 0.0 0.0
142 2 22.542274093641108 4.69751386079801 0.0 0.0 0.0 0.0
143 1 23.52807171440361 5.178134356970685 0.0 0.0 0.0 0.0
144 1 24.1177578373024 5.488702551152332 0.0 0.0 0.0 0.0
145 2 25.049776446871974 4.875394484847711 0.0 0.0 0.0 0.0
146 1 26.16743578898145 4.917089164340639 0.0 0.0 0.0 0.0
147 2 27.173813076658398 4.40769575419182 0.0 0.0 0.0 0.0
148 1 28.279046670879648 4.538629961405138 0.0 0.0 0.0 0.0
149 1 28.887311376126007 4.22497772160317 0.0 0.0 0.0 0.0
150 2 29.985425295668307 4.439222219339414 0.0 0.0 0.0 0.0
151 1 0.41361152908211624 5.240750946645581 0.0 0.0 0.0 0.0
152 2 1.5206879720527111 5.418237681412897 0.0 0.0 0.0 0.0
153 1 2.5646526031254724 5.036329316589886 0.0 0.0 0.0 0.0
154 2 3.770057873321319 6.537145658252459 0.0 0.0 0.0 0.0
155 1 4.627082299405208 5.836596062341109 0.0 0.0 0.0 0.0
156 2 5.749058697500236 5.859169507246763 0.0 0.0 0.0 0.0
157 1 6.830044286516314 6.0417959728231985 0.0 0.0 0.0 0.0
158 1 7.3588782692355865 5.6275043537969065 0.0 0.0 0.0 0.0
159 2 8.438572197936915 5.726077298085343 0.0 0.0 0.0 0.0
160 2 9.691980167092856 5.431536484700843 0.0 0.0 0.0 0.0
161 2 10.995795109318562 5.549422752344352 0.0 0.0 0.0 0.0
162 1 12.070442404646512 5.780160923881833 0.0 0.0 0.0 0.0
163 1 12.582751108713792 5.356482030621714 0.0 0.0 0.0 0.0
164 1 14.091321470363646 6.0766472048339 0.0 0.0 0.0 0.0
165 2 14.882830317448187 5.2697378432174995 0.0 0.0 0.0 0.0
166 1 15.968556339125714 5.1628606227945495 0.0 0.0 0.0 0.0
167 2 16.860441834530874 4.523534246650974 0.0 0.0 0.0 0.0
168 2 18.170404347013942 5.759035312943953 0.0 0.0 0.0 0.0
169 1 19.229765782311535 6.146682487213466 0.0 0.0 0.0 0.0
170 1 20.24950722268588 5.399761054080362 0.0 0.0 0.0 0.0
171 1 21.521332344907474 5.138290995070985 0.0 0.0 0.0 0.0
172 1 21.95784818800734 5.6470199118408075 0.0 0.0 0.0 0.0
173 1 23.291219516040634 5.801167095464357 0.0 0.0 0.0 0.0
174 1 23.88423958740245 6.143260780261732 0.0 0.0 0.0 0.0
175 2 25.00156681062852 6.168080176794804 0.0 0.0 0.0 0.0
176 1 25.916584761179383 5.557033181583999 0.0 0.0 0.0 0.0
177 2 27.000343483838734 5.659483306248479 0.0 0.0 0.0 0.0
178 1 27.987088670543734 5.166095207800568 0.0 0.0 0.0 0.0
179 2 29.070443744825525 5.336643008815294 0.0 0.0 0.0 0.0
180 1 30.15384472816773 5.546055718443825 0.0 0.0 0.0 0.0
181 2 0.5792856782602825 6.337980238490684 0.0 0.0 0.0 0.0
182 2 1.6976892034842022 7.000450747051012 0.0 0.0 0.0 0.0
183 2 2.603577173346846 6.129485772998764 0.0 0.0 0.0 0.0
184 1 4.182144779857596 7.527799831770311 0.0 0.0 0.0 0.0
185 2 5.084208926957014 6.88352957529623 0.0 0.0 0.0 0.0
186 1 6.248245491920125 6.868510579879533 0.0 0.0 0.0 0.0
187 1 6.920127737854036 6.717681597190742 0.0 0.0 0.0 0.0
188 1 7.468742626025331 6.30764473087287 0.0 0.0 0.0 0.0
189 2 8.287284474041853 7.068348090089343 0.0 0.0 0.0 0.0
190 1 9.22442801433345 6.479891363525519 0.0 0.0 0.0 0.0
191 2 10.288544878474447 6.666508217983888 0.0 0.0 0.0 0.0
192 2 11.56157401380778 6.760069488413949 0.0 0.0 0.0 0.0
193 2 13.034759835462296 6.360330673491324 0.0 0.0 0.0 0.0
194 1 14.112905359070968 6.761365577620912 0.0 0.0 0.0 0.0
195 1 14.687263747068936 6.354144154441471 0.0 0.0 0.0 0.0
196 2 15.795219784849566 6.30110966198283 0.0 0.0 0.0 0.0
197 2 16.917260857486493 5.767304572313102 0.0 0.0 0.0 0.0
198 1 17.49684819650765 6.692532199663952 0.0 0.0 0.0 0.0
199 1 18.815274524170583 6.673857499008492 0.0 0.0 0.0 0.0
200 1 19.879552041703455 5.953855788196098 0.0 0.0 0.0 0.0
201 2 20.99595376855463 6.222910137828223 0.0 0.0 0.0 0.0
202 1 22.10388732335523 6.303491299923379 0.0 0.0 0.0 0.0
203 1 22.611644595576234 5.835551908357886 0.0 0.0 0.0 0.0
204 1 24.1216992912986 6.798558025317941 0.0 0.0 0.0 0.0
205 1 24.65980466380893 7.241237809169642 0.0 0.0 0.0 0.0
206 2 26.175575473350598 6.653893857687552 0.0 0.0 0.0 0.0
207 2 27.505392586532526 6.820087073800276 0.0 0.0 0.0 0.0
208 1 28.085573708076804 5.853012320983074 0.0 0.0 0.0 0.0
209 2 28.820599248067428 6.690243587087751 0.0 0.0 0.0 0.0
210 1 29.820603862312286 6.146599338197863 0.0 0.0 0.0 0.0
211 1 0.6828861476281693 7.441728716621944 0.0 0.0 0.0 0.0
212 1 2.8620944142577587 7.25467930224526 0.0 0.0 0.0 0.0
213 1 3.4803849056036915 7.6739362043371875 0.0 0.0 0.0 0.0
214 1 4.038320779613659 8.16584206651782 0.0 0.0 0.0 0.0
215 2 5.12766490948635 8.118941148753782 0.0 0.0 0.0 0.0
216 1 6.070441387166858 7.522062455184811 0.0 0.0 0.0 0.0
217 2 7.199233757935667 7.794208686512501 0.0 0.0 0.0 0.0
218 1 8.288493842951063 8.17517340911088 0.0 0.0 0.0 0.0
219 1 8.965097818635678 7.976056077622808 0.0 0.0 0.0 0.0
220 1 9.523753550517233 7.5470962240437505 0.0 0.0 0.0 0.0
221 1 9.603053711833379 8.248917523591956 0.0 0.0 0.0 0.0
222 2 10.638383557241474 7.884826069301903 0.0 0.0 0.0 0.0
223 2 12.565616798404092 7.542442082316458 0.0 0.0 0.0 0.0
224 2 13.858949756481879 7.864963836349732 0.0 0.0 0.0 0.0
225 2 15.078014215667137 7.3570281556571775 0.0 0.0 0.0 0.0
226 2 16.259238312459118 7.902659473304074 0.0 0.0 0.0 0.0
227 1 16.810744398947826 6.8972217689759265 0.0 0.0 0.0 0.0
228 2 17.541623086339886 7.7905228448600905 0.0 0.0 0.0 0.0
229 1 18.160881217359574 6.8694028013615345 0.0 0.0 0.0 0.0
230 2 19.8903628214299 7.051586205357849 0.0 0.0 0.0 0.0
231 2 21.039721952058528 7.649651311172488 0.0 0.0 0.0 0.0
232 1 21.89494962686608 6.947467764293741 0.0 0.0 0.0 0.0
233 2 23.030876849134433 6.891292592002087 0.0 0.0 0.0 0.0
234 1 24.001799570557342 7.4598789698559544 0.0 0.0 0.0 0.0
235 1 24.50778098725411 7.914096262163703 0.0 0.0 0.0 0.0
236 2 25.613978931395405 7.8504480762856845 0.0 0.0 0.0 0.0
237 1 26.721627612548957 7.6185866330475935 0.0 0.0 0.0 0.0
238 2 28.22194801136618 7.879341725071026 0.0 0.0 0.0 0.0
239 1 29.660358064706575 7.5013695838027425 0.0 0.0 0.0 0.0
240 1 29.899195545580504 6.82009026230534 0.0 0.0 0.0 0.0
241 1 30.361465683125 7.289213403971633 0.0 0.0 0.0 0.0
242 2 2.1666366281373266 8.163957171931717 0.0 0.0 0.0 0.0
243 2 3.188529329064062 8.802096048068957 0.0 0.0 0.0 0.0
244 1 4.276990986408213 8.816824786637518 0.0 0.0 0.0 0.0
245 1 4.847790337167874 9.174208062913571 0.0 0.0 0.0 0.0
246 1 5.493451841868049 9.448841637311338 0.0 0.0 0.0 0.0
247 2 6.227104793727943 8.634397938489455 0.0 0.0 0.0 0.0
248 1 7.252225930580889 8.959523642126264 0.0 0.0 0.0 0.0
249 1 7.873619417320993 8.716754079502584 0.0 0.0 0.0 0.0
250 2 8.909856961558457 9.109743536709917 0.0 0.0 0.0 0.0
251 2 10.280986564595517 9.230063364256544 0.0 0.0 0.0 0.0
252 2 11.550124057746906 8.79566140890139 0.0 0.0 0.0 0.0
253 2 12.82789887576393 8.766819887595876 0.0 0.0 0.0 0.0
254 2 13.961982715251654 9.274669959818578 0.0 0.0 0.0 0.0
255 2 15.019927170612085 8.58613159346075 0.0 0.0 0.0 0.0
256 1 16.035909023759 9.009899902106769 0.0 0.0 0.0 0.0
257 2 17.168433737812407 9.0020961528136 0.0 0.0 0.0 0.0
258 1 18.224616990173786 8.684274283808218 0.0 0.0 0.0 0.0
259 2 18.82756685786501 7.770656640011772 0.0 0.0 0.0 0.0
260 2 19.948062764266226 8.388336229668118 0.0 0.0 0.0 0.0
261 1 19.400637832358097 9.33523533461684 0.0 0.0 0.0 0.0
262 2 21.40187869451804 8.935024810968432 0.0 0.0 0.0 0.0
263 2 22.31646607877251 7.990841040783349 0.0 0.0 0.0 0.0
264 2 23.52892505460036 8.45416624907214 0.0 0.0 0.0 0.0
265 2 24.699529371328925 9.01279886073411 0.0 0.0 0.0 0.0
266 2 25.978120891507356 9.126782623386632 0.0 0.0 0.0 0.0
267 2 27.13541833499713 8.636875419397315 0.0 0.0 0.0 0.0
268 2 29.21508445150201 8.676111592529145 0.0 0.0 0.0 0.0
269 2 0.07156270627871197 8.36148415269959 0.0 0.0 0.0 0.0
270 1 1.0977193332486634 7.980382984504516 0.0 0.0 0.0 0.0
271 2 1.1179938396623519 9.145559104828937 0.0 0.0 0.0 0.0
272 1 2.220472931145403 9.315645264548612 0.0 0.0 0.0 0.0
273 1 2.738838600894866 9.799402300206417 0.0 0.0 0.0 0.0
274 2 3.860071514524824 9.860179457521035 0.0 0.0 0.0 0.0
275 1 4.938781475609454 9.824288736580579 0.0 0.0 0.0 0.0
276 1 5.5067935859880945 10.155638113487331 0.0 0.0 0.0 0.0
277 2 6.555588568386869 9.877973808881716 0.0 0.0 0.0 0.0
278 2 7.840569754584468 9.883969553731657 0.0 0.0 0.0 0.0
279 1 8.881950267253677 10.245241047231112 0.0 0.0 0.0 0.0
280 1 9.503816018319492 10.031888996640584 0.0 0.0 0.0 0.0
281 1 10.740775612284665 10.270920021428955 0.0 0.0 0.0 0.0
282 1 11.291855840994504 9.867876361032268 0.0 0.0 0.0 0.0
283 2 12.443969802625144 9.982478650286943 0.0 0.0 0.0 0.0
284 1 13.524122392261532 10.330557469149808 0.0 0.0 0.0 0.0
285 1 14.204778255381264 10.326262679755407 0.0 0.0 0.0 0.0
286 2 15.186776586354917 9.842411444868475 0.0 0.0 0.0 0.0
287 2 16.41680288604089 10.041432627659953 0.0 0.0 0.0 0.0
288 2 17.671623412313405 10.179969943806999 0.0 0.0 0.0 0.0
289 1 18.37605630313592 9.338266001252201 0.0 0.0 0.0 0.0
290 1 18.891607499331062 8.883726939682996 0.0 0.0 0.0 0.0
291 1 20.416091337240797 9.382419733733665 0.0 0.0 0.0 0.0
292 1 20.553743364678954 10.044753823286413 0.0 0.0 0.0 0.0
293 2 22.618545745267784 9.374329269076846 0.0 0.0 0.0 0.0
294 1 23.71830202103391 9.560453385461473 0.0 0.0 0.0 0.0
295 1 24.211671062829133 10.028848910482289 0.0 0.0 0.0 0.0
296 2 25.32435611964562 10.230927392090717 0.0 0.0 0.0 0.0
297 2 27.508009181270925 9.95608719797835 0.0 0.0 0.0 0.0
298 1 28.155274114373405 9.002493690534664 0.0 0.0 0.0 0.0
299 1 28.525955382469665 9.557191420664829 0.0 0.0 0.0 0.0
300 2 30.181698837515864 9.566227676244948 0.0 0.0 0.0 0.0
301 1 0.7092349618699104 10.229424712497824 0.0 0.0 0.0 0.0
302 2 1.7932168523463334 10.342777364705004 0.0 0.0 0.0 0.0
303 1 2.9394920527455084 10.460566786585309 0.0 0.0 0.0 0.0
304 2 4.64194362694847 10.866703785873861 0.0 0.0 0.0 0.0
305 1 5.8188356172225575 10.75359901233479 0.0 0.0 0.0 0.0
306 1 6.460769792307139 11.014891454294562 0.0 0.0 0.0 0.0
307 1 6.9741318864135735 11.472949862677853 0.0 0.0 0.0 0.0
308 1 7.14637648869855 10.809790818736507 0.0 0.0 0.0 0.0
309 2 8.22001625437687 11.10892018916921 0.0 0.0 0.0 0.0
310 1 9.390865223696593 10.74417884423958 0.0 0.0 0.0 0.0
311 1 10.074237589874096 10.353947636995088 0.0 0.0 0.0 0.0
312 2 11.613878477715797 10.944391030401427 0.0 0.0 0.0 0.0
313 2 12.889186169894082 11.254568009664911 0.0 0.0 0.0 0.0
314 1 13.941719297343067 10.931496401298142 0.0 0.0 0.0 0.0
315 1 14.650569180377676 10.829081314417166 0.0 0.0 0.0 0.0
316 2 15.728567526012677 11.138158180035992 0.0 0.0 0.0 0.0
317 1 16.937193598723553 10.996417839033494 0.0 0.0 0.0 0.0
318 1 17.549927129047628 11.347038756023352 0.0 0.0 0.0 0.0
319 1 18.19611058837611 11.128229540597294 0.0 0.0 0.0 0.0
320 2 18.932660205069414 10.3250650792645 0.0 0.0 0.0 0.0
321 1 19.90157470726152 9.803204653868104 0.0 0.0 0.0 0.0
322 1 20.644721622711227 10.731648533971983 0.0 0.0 0.0 0.0
323 2 21.6425996669996 10.260469293193387 0.0 0.0 0.0 0.0
324 2 23.20339284747257 10.563359776447529 0.0 0.0 0.0 0.0
325 2 24.42111697859355 11.122338448915404 0.0 0.0 0.0 0.0
326 2 26.5277023213419 10.850408484972352 0.0 0.0 0.0 0.0
327 1 27.617130404869002 11.085977074181807 0.0 0.0 0.0 0.0
328 1 28.622437685233237 10.246390560197355 0.0 0.0 0.0 0.0
329 1 29.1360240603801 9.811700395297537 0.0 0.0 0.0 0.0
330 1 30.486940596443446 10.605825358828307 0.0 0.0 0.0 0.0
331 2 0.9417877831491696 11.347133165789705 0.0 0.0 0.0 0.0
332 2 2.4322545525385832 11.431425569970578 0.0 0.0 0.0 0.0
333 1 3.481428380297957 10.961998561806592 0.0 0.0 0.0 0.0
334 1 3.5553004523358003 11.698089532755258 0.0 0.0 0.0 0.0
335 1 5.635170296921291 11.404467983070852 0.0 0.0 0.0 0.0
336 1 5.705788336027163 12.068818460969558 0.0 0.0 0.0 0.0
337 1 6.304336754879827 11.707849393659293 0.0 0.0 0.0 0.0
338 1 7.483875228908249 11.91646081335586 0.0 0.0 0.0 0.0
339 1 9.271073025252917 11.494979721124345 0.0 0.0 0.0 0.0
340 1 9.56177465450997 12.1414549777285 0.0 0.0 0.0 0.0
341 2 10.387261376206947 11.394430270183525 0.0 0.0 0.0 0.0
342 1 12.046144407892895 11.972564990776299 0.0 0.0 0.0 0.0
343 1 12.654356325770735 12.361811321181515 0.0 0.0 0.0 0.0
344 1 13.350144276413497 12.264367710883866 0.0 0.0 0.0 0.0
345 2 14.453087363590349 11.914145755173076 0.0 0.0 0.0 0.0
346 1 15.550701837174866 12.251003357592758 0.0 0.0 0.0 0.0
347 2 16.662305416474087 12.033179306368574 0.0 0.0 0.0 0.0
348 1 18.127392764383888 11.781057867850722 0.0 0.0 0.0 0.0
349 1 18.794433651575055 11.446602476645687 0.0 0.0 0.0 0.0
350 2 19.93488434140939 11.596898528057057 0.0 0.0 0.0 0.0
351 1 20.02183327984347 10.478176371668548 0.0 0.0 0.0 0.0
352 1 21.059085179005827 11.264571254430818 0.0 0.0 0.0 0.0
353 2 22.161978450328977 11.467029343174634 0.0 0.0 0.0 0.0
354 2 23.424886210959507 11.882092696161854 0.0 0.0 0.0 0.0
355 1 24.50707272470544 12.232148169034213 0.0 0.0 0.0 0.0
356 1 25.50337387788788 11.345459999872794 0.0 0.0 0.0 0.0
357 1 27.32062791671084 11.6956092036882 0.0 0.0 0.0 0.0
358 1 28.230278802508348 10.80173735662124 0.0 0.0 0.0 0.0
359 1 28.907021247689674 10.873375747578917 0.0 0.0 0.0 0.0
360 1 29.42900361946988 10.427169548142235 0.0 0.0 0.0 0.0
361 2 1.4656166005978706 12.497576575842137 0.0 0.0 0.0 0.0
362 2 2.7731806722554424 12.620769121998775 0.0 0.0 0.0 0.0
363 2 3.9368588827975106 13.085657205508834 0.0 0.0 0.0 0.0
364 2 4.63997389559191 12.08295198823901 0.0 0.0 0.0 0.0
365 1 5.6531461161514756 12.789321954683269 0.0 0.0 0.0 0.0
366 1 6.25109233416984 12.416710052037764 0.0 0.0 0.0 0.0
367 1 6.865095586271695 12.168175060042602 0.0 0.0 0.0 0.0
368 1 7.40995575839003 12.591204189870778 0.0 0.0 0.0 0.0
369 2 8.491601316476725 12.338749547638505 0.0 0.0 0.0 0.0
370 1 10.129824562929349 12.508262326440532 0.0 0.0 0.0 0.0
371 1 10.80532498664235 12.436159125301733 0.0 0.0 0.0 0.0
372 1 11.339809390096766 12.005452953438773 0.0 0.0 0.0 0.0
373 1 13.096177265946029 12.908555556017632 0.0 0.0 0.0 0.0
374 1 13.775917013091881 12.789313028387292 0.0 0.0 0.0 0.0
375 2 14.856608801340368 13.12786448730536 0.0 0.0 0.0 0.0
376 1 15.934427159184445 12.835539428817574 0.0 0.0 0.0 0.0
377 1 16.607770765660113 13.146167563238942 0.0 0.0 0.0 0.0
378 2 17.664557021357815 12.769518939806076 0.0 0.0 0.0 0.0
379 2 18.94763287351144 12.540254074247672 0.0 0.0 0.0 0.0
380 1 19.71441929373752 13.336468874286044 0.0 0.0 0.0 0.0
381 1 20.064087497966533 12.722720831490669 0.0 0.0 0.0 0.0
382 2 21.153585264431353 12.374853686799264 0.0 0.0 0.0 0.0
383 2 22.49078673183695 12.758734503921387 0.0 0.0 0.0 0.0
384 2 23.80682454225518 13.11569330724344 0.0 0.0 0.0 0.0
385 1 25.027783464655144 12.676665065517474 0.0 0.0 0.0 0.0
386 1 25.168051047093464 11.98168979914112 0.0 0.0 0.0 0.0
387 2 26.298156641189248 12.10835772954316 0.0 0.0 0.0 0.0
388 1 27.391701584704364 12.388222455025215 0.0 0.0 0.0 0.0
389 2 28.42702445369917 11.895437181022732 0.0 0.0 0.0 0.0
390 2 29.835157029977527 11.486737123771151 0.0 0.0 0.0 0.0
391 2 0.5545933105418045 13.409864866135422 0.0 0.0 0.0 0.0
392 2 1.9173775720492463 13.72853041061067 0.0 0.0 0.0 0.0
393 1 3.0082972372455217 13.692487105078435 0.0 0.0 0.0 0.0
394 1 3.53545036256872 14.099198114030024 0.0 0.0 0.0 0.0
395 1 5.044172779978709 13.113338889255049 0.0 0.0 0.0 0.0
396 1 5.5712021023978355 13.526643132437519 0.0 0.0 0.0 0.0
397 2 6.664119742906673 13.40547663717797 0.0 0.0 0.0 0.0
398 2 7.998220976915408 13.541702537044555 0.0 0.0 0.0 0.0
399 1 8.847867719825192 14.311021384359504 0.0 0.0 0.0 0.0
400 2 9.319181711878834 13.29113082156315 0.0 0.0 0.0 0.0
401 2 10.562545425418545 13.539939175077128 0.0 0.0 0.0 0.0
402 2 11.747283768559601 13.026881130824721 0.0 0.0 0.0 0.0
403 2 12.603425309578311 13.900638425535867 0.0 0.0 0.0 0.0
404 2 13.869800899632766 13.876199739015197 0.0 0.0 0.0 0.0
405 1 14.854773723846058 14.428777693700539 0.0 0.0 0.0 0.0
406 2 15.829715147119089 13.923344408021288 0.0 0.0 0.0 0.0
407 2 17.36400472092099 14.031443673243249 0.0 0.0 0.0 0.0
408 1 18.422604195129683 13.560476705136542 0.0 0.0 0.0 0.0
409 1 19.106098389529393 13.637113040408282 0.0 0.0 0.0 0.0
410 1 19.665614895674164 14.046333040908431 0.0 0.0 0.0 0.0
411 2 20.774613801489735 13.594354773990975 0.0 0.0 0.0 0.0
412 1 21.849106246109496 13.646337046815312 0.0 0.0 0.0 0.0
413 2 22.845135869832998 14.089222743556189 0.0 0.0 0.0 0.0
414 1 24.521404169773042 13.943671214630216 0.0 0.0 0.0 0.0
415 1 24.887174702003367 13.36606628471259 0.0 0.0 0.0 0.0
416 2 25.981954332567295 13.286335686972166 0.0 0.0 0.0 0.0
417 1 27.05705871485604 13.003519290890184 0.0 0.0 0.0 0.0
418 2 28.16732933062914 13.208665586790886 0.0 0.0 0.0 0.0
419 2 29.57612022005632 12.733694872360294 0.0 0.0 0.0 0.0
420 1 0.30791570624688336 12.299504151325543 0.0 0.0 0.0 0.0
421 1 0.3796737219888288 14.518581003206055 0.0 0.0 0.0 0.0
422 1 1.0598206111923465 14.427327782326449 0.0 0.0 0.0 0.0
423 1 2.9101537768470584 14.36487141090276 0.0 0.0 0.0 0.0
424 2 3.7541091947844443 15.159379001857221 0.0 0.0 0.0 0.0
425 2 4.64083401329825 14.163434969162813 0.0 0.0 0.0 0.0
426 2 5.8278689646079735 14.628188239018218 0.0 0.0 0.0 0.0
427 2 7.133575926192511 14.595407385543293 0.0 0.0 0.0 0.0
428 1 8.228520414273307 14.617235788606806 0.0 0.0 0.0 0.0
429 1 8.77234682055401 14.998997526578023 0.0 0.0 0.0 0.0
430 2 9.867287728236985 14.844012639131627 0.0 0.0 0.0 0.0
431 1 10.995453860337589 14.5660593963072 0.0 0.0 0.0 0.0
432 1 11.513753051520121 14.12461001513353 0.0 0.0 0.0 0.0
433 2 13.259102771330996 14.95200884354116 0.0 0.0 0.0 0.0
434 1 14.14736816983203 15.552046959906304 0.0 0.0 0.0 0.0
435 1 14.362259537182595 14.89371326375699 0.0 0.0 0.0 0.0
436 2 15.243476993427421 15.580095170081723 0.0 0.0 0.0 0.0
437 2 16.400403873037277 15.0035466729164 0.0 0.0 0.0 0.0
438 2 17.58608479901306 15.39414521224605 0.0 0.0 0.0 0.0
439 2 18.65853083394411 14.640393368124162 0.0 0.0 0.0 0.0
440 1 20.188854369533644 14.48914318740722 0.0 0.0 0.0 0.0
441 2 21.03137294001936 15.2484035045794 0.0 0.0 0.0 0.0
442 1 21.712922760128276 14.327084092152813 0.0 0.0 0.0 0.0
443 1 22.10759197505008 14.928725746571098 0.0 0.0 0.0 0.0
444 1 23.93339499623455 14.26097264412319 0.0 0.0 0.0 0.0
445 1 25.18208298900659 14.008648273859324 0.0 0.0 0.0 0.0
446 1 25.74117366936009 14.39632979756682 0.0 0.0 0.0 0.0
447 2 26.85519435624876 14.198179504295476 0.0 0.0 0.0 0.0
448 1 27.944993326753615 14.312368053115875 0.0 0.0 0.0 0.0
449 1 28.636724950335616 14.222589170216855 0.0 0.0 0.0 0.0
450 2 29.74517464459971 14.000408614390906 0.0 0.0 0.0 0.0
451 2 0.8582105222024421 15.518897531639647 0.0 0.0 0.0 0.0
452 2 2.039464533805561 15.038879515802186 0.0 0.0 0.0 0.0
453 1 2.827261363594966 15.836834541257515 0.0 0.0 0.0 0.0
454 1 3.425427864250818 16.18438696468302 0.0 0.0 0.0 0.0
455 1 4.876247619609336 15.258960248377706 0.0 0.0 0.0 0.0
456 1 5.411560866515439 15.681887568876718 0.0 0.0 0.0 0.0
457 2 6.525913906634414 15.74391776244219 0.0 0.0 0.0 0.0
458 2 7.86589341634707 15.689796467937136 0.0 0.0 0.0 0.0
459 1 8.77486258669478 16.313594820177308 0.0 0.0 0.0 0.0
460 1 8.978911241788989 15.6373806469472 0.0 0.0 0.0 0.0
461 2 10.924643954069055 15.659803080485283 0.0 0.0 0.0 0.0
462 2 12.02935428927838 15.114132311629861 0.0 0.0 0.0 0.0
463 1 12.814938598445394 15.940405531358477 0.0 0.0 0.0 0.0
464 1 13.51726781310611 16.026612909612062 0.0 0.0 0.0 0.0
465 1 14.7673257318077 16.56672214122438 0.0 0.0 0.0 0.0
466 1 15.44089740018099 16.699773343389104 0.0 0.0 0.0 0.0
467 2 16.471079221147416 16.255424582779394 0.0 0.0 0.0 0.0
468 1 18.229432612882164 16.300702604608176 0.0 0.0 0.0 0.0
469 1 18.626838075701713 15.76120418529491 0.0 0.0 0.0 0.0
470 2 19.658423853394492 15.412738269845828 0.0 0.0 0.0 0.0
471 1 21.69655321338382 16.190556290567514 0.0 0.0 0.0 0.0
472 1 22.098012791401906 15.628344879237952 0.0 0.0 0.0 0.0
473 1 23.017264618683154 15.194225320000172 0.0 0.0 0.0 0.0
474 1 23.639751092091927 14.873407267055084 0.0 0.0 0.0 0.0
475 2 24.7728117992173 15.02852595107066 0.0 0.0 0.0 0.0
476 2 26.128009996529578 15.435780553467055 0.0 0.0 0.0 0.0
477 2 27.430097596354546 15.437366023417068 0.0 0.0 0.0 0.0
478 1 28.345614306732013 14.844537282674985 0.0 0.0 0.0 0.0
479 1 29.007379120192102 14.798975568112681 0.0 0.0 0.0 0.0
480 2 29.95603851116465 15.350811670112114 0.0 0.0 0.0 0.0
481 2 0.4185707647708038 16.713949536084407 0.0 0.0 0.0 0.0
482 2 1.802697672300459 16.363571604260628 0.0 0.0 0.0 0.0
483 1 2.8736683953071323 16.52294247360068 0.0 0.0 0.0 0.0
484 1 3.505592690940724 16.86925238463704 0.0 0.0 0.0 0.0
485 2 4.494059880482624 16.332078634069614 0.0 0.0 0.0 0.0
486 1 5.594974453681293 16.349491891540026 0.0 0.0 0.0 0.0
487 1 6.105053121566314 16.79590788096567 0.0 0.0 0.0 0.0
488 2 7.205936949178855 16.828258964289144 0.0 0.0 0.0 0.0
489 1 8.29945540039242 16.786177984594815 0.0 0.0 0.0 0.0
490 2 9.856073394162143 16.274602225609385 0.0 0.0 0.0 0.0
491 1 10.827621414085296 16.749570787878245 0.0 0.0 0.0 0.0
492 2 11.911488709221489 16.562883446395595 0.0 0.0 0.0 0.0
493 1 13.717642724871517 16.670885478115245 0.0 0.0 0.0 0.0
494 1 14.203844816647315 16.21272419324308 0.0 0.0 0.0 0.0
495 1 14.279517317199069 17.053317093180862 0.0 0.0 0.0 0.0
496 1 15.909854784136995 17.203360541265578 0.0 0.0 0.0 0.0
497 1 17.19887932801746 17.090268054246433 0.0 0.0 0.0 0.0
498 1 17.572053445092056 16.513971119026635 0.0 0.0 0.0 0.0
499 2 19.32065126403528 16.646741463304767 0.0 0.0 0.0 0.0
500 1 20.373759897565137 16.225658256215407 0.0 0.0 0.0 0.0
501 1 21.029068828311896 16.35235851735704 0.0 0.0 0.0 0.0
502 1 21.471479126229266 16.850916522202205 0.0 0.0 0.0 0.0
503 1 22.749384538428647 15.82568912185744 0.0 0.0 0.0 0.0
504 2 23.86023979958991 15.951829127514383 0.0 0.0 0.0 0.0
505 2 25.17400960892596 16.28114966666755 0.0 0.0 0.0 0.0
506 1 26.171003935696564 16.78466639168734 0.0 0.0 0.0 0.0
507 1 26.755495055724975 16.348923675234715 0.0 0.0 0.0 0.0