ITEM: TIMESTEP
1
ITEM: NUMBER OF ATOMS
2500
ITEM: BOX BOUNDS xy xz yz pp pp pp
0.0 49.402249999999995 0.0
0.0 49.402249999999995 0.0
0.0 10.0 0.0
ITEM: ATOMS id type x y z vx vy vz
1 1 0.0366963723714824 1.503580298621292 0.0 0.0 0.0 0.0
2 2 1.071050093098025 1.1831356959510355 0.0 0.0 0.0 0.0
3 1 2.1203822439318243 1.081814603658251 0.0 0.0 0.0 0.0
4 1 2.7443304804808735 1.2638319113208412 0.0 0.0 0.0 0.0
5 2 3.7780806651674443 0.9599920244887281 0.0 0.0 0.0 0.0
6 2 5.044623513263453 1.2774941113646505 0.0 0.0 0.0 0.0
7 2 6.449910838824778 1.2387932892039062 0.0 0.0 0.0 0.0
8 2 7.744682910011029 1.0387669145413931 0.0 0.0 0.0 0.0
9 2 9.028565952193548 1.2780317901144613 0.0 0.0 0.0 0.0
10 1 9.303116397693673 0.22111613817572542 0.0 0.0 0.0 0.0
11 2 10.287086960970164 0.7154765500725997 0.0 0.0 0.0 0.0
12 2 11.494097724696502 0.12424646187177601 0.0 0.0 0.0 0.0
13 1 12.273634639391377 0.9316717097885979 0.0 0.0 0.0 0.0
14 2 13.379347909119451 1.1872147425792772 0.0 0.0 0.0 0.0
15 1 14.406111414162023 0.8699058600882666 0.0 0.0 0.0 0.0
16 2 16.047418926977404 1.2348447136244107 0.0 0.0 0.0 0.0
17 1 16.844413606009766 0.5303954282869404 0.0 0.0 0.0 0.0
18 2 17.92742292175205 0.3144849014856294 0.0 0.0 0.0 0.0
19 1 18.921133704499564 49.25657048018165 0.0 0.0 0.0 0.0
20 1 18.99852501813778 0.5410506627078449 0.0 0.0 0.0 0.0
21 1 20.165198428823338 0.07565329357270811 0.0 0.0 0.0 0.0
22 1 20.7470687208488 0.3735461372414116 0.0 0.0 0.0 0.0
23 1 21.759333506954004 1.1513554534160122 0.0 0.0 0.0 0.0
24 2 22.37050845460154 0.2651077015787926 0.0 0.0 0.0 0.0
25 2 23.437389458045445 0.9464588115002249 0.0 0.0 0.0 0.0
26 1 24.57552325143993 1.234340595240287 0.0 0.0 0.0 0.0
27 2 25.655962588151823 0.9255566597038014 0.0 0.0 0.0 0.0
28 1 26.72769881343132 1.326890029848533 0.0 0.0 0.0 0.0
29 2 27.152682952580946 0.3036432889634565 0.0 0.0 0.0 0.0
30 1 28.25805789689727 0.5247375060442293 0.0 0.0 0.0 0.0
31 2 29.853061543022534 0.1756626534021753 0.0 0.0 0.0 0.0
32 2 30.992032205892077 0.7702191282307358 0.0 0.0 0.0 0.0
33 2 32.21988724149895 0.9693014829455805 0.0 0.0 0.0 0.0
34 2 33.2226679031156 0.29563948361935743 0.0 0.0 0.0 0.0
35 2 34.4212713618611 0.37201746111716094 0.0 0.0 0.0 0.0
36 1 35.22778164011904 1.074218909263878 0.0 0.0 0.0 0.0
37 1 36.10542521394265 0.7040261804173373 0.0 0.0 0.0 0.0
38 1 36.5052227907677 1.2241235580940306 0.0 0.0 0.0 0.0
39 2 38.11046812398403 1.2199575823920652 0.0 0.0 0.0 0.0
40 1 38.87870757557431 0.4537368271212861 0.0 0.0 0.0 0.0
41 1 39.540562695141894 0.3875040272681635 0.0 0.0 0.0 0.0
42 1 40.08911338627714 0.7663729354343571 0.0 0.0 0.0 0.0
43 2 41.15293415189529 0.6890172091062137 0.0 0.0 0.0 0.0
44 2 42.12050437337613 1.5579914599480602 0.0 0.0 0.0 0.0
45 1 43.08843117276981 1.1100954279661386 0.0 0.0 0.0 0.0
46 2 44.12460593181074 1.3613972492398414 0.0 0.0 0.0 0.0
47 2 45.38901613935174 2.1923872398496904 0.0 0.0 0.0 0.0
48 1 46.15829906266146 1.2949802987241286 0.0 0.0 0.0 0.0
49 2 47.20315493125975 0.9917777064182539 0.0 0.0 0.0 0.0
50 1 48.82605982475602 1.270035146769629 0.0 0.0 0.0 0.0
51 2 48.7896032485794 2.3954638369174566 0.0 0.0 0.0 0.0
52 2 0.6992435568339538 2.3641433296272787 0.0 0.0 0.0 0.0
53 2 2.0364182377104174 2.1721924070910585 0.0 0.0 0.0 0.0
54 1 3.1070119062082546 1.8283832632159458 0.0 0.0 0.0 0.0
55 2 4.1726910114106595 2.183411453243195 0.0 0.0 0.0 0.0
56 2 5.739763727376116 2.2859666169866797 0.0 0.0 0.0 0.0
57 2 6.999588624186514 2.3907153346532057 0.0 0.0 0.0 0.0
58 2 8.23491039730156 2.2018222620491668 0.0 0.0 0.0 0.0
59 1 9.223003421178785 2.6510722687934947 0.0 0.0 0.0 0.0
60 2 10.033208828724357 1.9321354501476466 0.0 0.0 0.0 0.0
61 1 10.909711885189116 2.5146063097459264 0.0 0.0 0.0 0.0
62 2 11.288762005674897 1.4782698088660144 0.0 0.0 0.0 0.0
63 1 12.377202990832748 1.6022904321543514 0.0 0.0 0.0 0.0
64 2 13.162160209684657 2.401353609998362 0.0 0.0 0.0 0.0
65 1 14.981653522485498 1.1842445813543616 0.0 0.0 0.0 0.0
66 1 15.405427970751939 2.102948860772952 0.0 0.0 0.0 0.0
67 2 16.44090248991648 2.417942111546093 0.0 0.0 0.0 0.0
68 2 17.31537344341263 1.4784236768872645 0.0 0.0 0.0 0.0
69 2 18.573807995469885 1.5263892021693395 0.0 0.0 0.0 0.0
70 2 19.95798944450844 1.160682301974394 0.0 0.0 0.0 0.0
71 1 21.079496427164106 1.2739568535733534 0.0 0.0 0.0 0.0
72 1 21.563308277519177 1.7735039232862508 0.0 0.0 0.0 0.0
73 1 22.245926570319014 1.5999928272239818 0.0 0.0 0.0 0.0
74 2 23.16099994709076 2.1733780528856954 0.0 0.0 0.0 0.0
75 1 24.185066959046623 1.7748793011447401 0.0 0.0 0.0 0.0
76 2 25.232545957145767 2.1533624344567945 0.0 0.0 0.0 0.0
77 1 26.26518068782402 1.8129336515935923 0.0 0.0 0.0 0.0
78 1 26.895577831624674 2.000682586986189 0.0 0.0 0.0 0.0
79 2 27.837068292920325 1.5035616324880587 0.0 0.0 0.0 0.0
80 2 29.110822314983903 1.2239408204952364 0.0 0.0 0.0 0.0
81 2 30.279886471958587 1.7951739150164627 0.0 0.0 0.0 0.0
82 2 31.55756757327278 1.9662418099708177 0.0 0.0 0.0 0.0
83 1 32.750836112101105 1.9547410643257592 0.0 0.0 0.0 0.0
84 1 33.196976244058256 1.4376676444548917 0.0 0.0 0.0 0.0
85 2 34.25707197114902 1.6444670031001454 0.0 0.0 0.0 0.0
86 1 35.33624440173265 1.7436303773253248 0.0 0.0 0.0 0.0
87 1 35.84055883757116 1.3047995873179532 0.0 0.0 0.0 0.0
88 1 37.08610143980186 1.5302572998000217 0.0 0.0 0.0 0.0
89 1 37.40481882916317 2.122144687999943 0.0 0.0 0.0 0.0
90 1 38.055047035369846 2.2862499196272017 0.0 0.0 0.0 0.0
91 2 39.29111871113474 1.4949448377014654 0.0 0.0 0.0 0.0
92 1 40.4138446282998 1.5709244085526048 0.0 0.0 0.0 0.0
93 1 41.08449238548251 1.7519945644785018 0.0 0.0 0.0 0.0
94 1 42.661434256168874 3.2970164478823483 0.0 0.0 0.0 0.0
95 2 43.152922414753576 2.2441151352970254 0.0 0.0 0.0 0.0
96 1 44.280032043505045 2.4186957856654576 0.0 0.0 0.0 0.0
97 1 45.17558167124473 3.3469352718320473 0.0 0.0 0.0 0.0
98 2 46.69690692353798 2.213508274078531 0.0 0.0 0.0 0.0
99 1 47.76298488367879 1.9721323780229976 0.0 0.0 0.0 0.0
100 1 48.18998035090229 1.4563785762078536 0.0 0.0 0.0 0.0
101 2 0.48380670747384386 3.5773500260480193 0.0 0.0 0.0 0.0
102 1 1.4780693244716923 3.1236319068620144 0.0 0.0 0.0 0.0
103 2 2.522387007779198 3.4084853874048733 0.0 0.0 0.0 0.0
104 1 3.1072867002955586 2.489397176925305 0.0 0.0 0.0 0.0
105 2 3.743491672029188 3.38113288065041 0.0 0.0 0.0 0.0
106 2 4.930375894326272 3.2291120082672378 0.0 0.0 0.0 0.0
107 2 6.1421587581794554 3.463869163388891 0.0 0.0 0.0 0.0
108 1 7.207906904482724 3.456093278340179 0.0 0.0 0.0 0.0
109 1 7.8158090003958245 3.1794331743999424 0.0 0.0 0.0 0.0
110 1 9.747398759003234 3.086267477130439 0.0 0.0 0.0 0.0
111 1 10.396970480739805 2.957383117097698 0.0 0.0 0.0 0.0
112 1 11.025225342183836 3.1621774821634827 0.0 0.0 0.0 0.0
113 2 11.966545730288843 2.618507802150795 0.0 0.0 0.0 0.0
114 1 12.725331836568731 3.401305309242845 0.0 0.0 0.0 0.0
115 2 14.337550897378993 2.0695314314146267 0.0 0.0 0.0 0.0
116 1 15.2456035844767 2.7586041465153284 0.0 0.0 0.0 0.0
117 1 15.702717856914097 3.2536161276668416 0.0 0.0 0.0 0.0
118 1 16.97305486531937 3.3541645034364524 0.0 0.0 0.0 0.0
119 2 17.800199913887226 2.592725278322798 0.0 0.0 0.0 0.0
120 1 18.920555870627886 2.5566867784505156 0.0 0.0 0.0 0.0
121 1 19.484659587554752 2.1677995660451383 0.0 0.0 0.0 0.0
122 2 20.599510072868554 2.2770341448252136 0.0 0.0 0.0 0.0
123 2 22.006171532058236 2.75575353810618 0.0 0.0 0.0 0.0
124 2 23.103320183621673 3.418690615598953 0.0 0.0 0.0 0.0
125 2 24.21687776536324 2.8781837042938547 0.0 0.0 0.0 0.0
126 2 25.253631729803004 3.570078130264769 0.0 0.0 0.0 0.0
127 2 26.29381281877652 2.90007284218669 0.0 0.0 0.0 0.0
128 2 27.629848911793772 2.839601258093744 0.0 0.0 0.0 0.0
129 1 28.634132396655385 2.242365369579598 0.0 0.0 0.0 0.0
130 1 29.31410109661245 2.3243255343660874 0.0 0.0 0.0 0.0
131 1 30.526235127625892 2.875585933114188 0.0 0.0 0.0 0.0
132 1 31.239814772934523 2.9677829539697234 0.0 0.0 0.0 0.0
133 2 32.35527794842152 2.986150318913834 0.0 0.0 0.0 0.0
134 1 33.345371158810835 2.357597103357539 0.0 0.0 0.0 0.0
135 1 34.00081760975085 2.6993135452753645 0.0 0.0 0.0 0.0
136 2 35.11314683940211 2.8161849670911754 0.0 0.0 0.0 0.0
137 2 36.29042116039873 2.2835891530786148 0.0 0.0 0.0 0.0
138 1 37.2633634797354 2.785209854194101 0.0 0.0 0.0 0.0
139 1 37.91032929307845 2.926386625356051 0.0 0.0 0.0 0.0
140 2 39.03042007479496 2.756235776784137 0.0 0.0 0.0 0.0
141 1 40.01170539429838 2.293075513956964 0.0 0.0 0.0 0.0
142 1 40.6574220076252 2.2202868756010496 0.0 0.0 0.0 0.0
143 2 41.677567307001155 2.739735958487396 0.0 0.0 0.0 0.0
144 1 43.35282405705449 3.3302330097827513 0.0 0.0 0.0 0.0
145 1 43.939220840052904 2.9942016826913935 0.0 0.0 0.0 0.0
146 1 44.61702746347476 2.9893766366218104 0.0 0.0 0.0 0.0
147 1 45.35766561057569 4.00402368768163 0.0 0.0 0.0 0.0
148 2 46.26797953427679 3.3757171348388577 0.0 0.0 0.0 0.0
149 2 47.58836538736752 3.0708801069241236 0.0 0.0 0.0 0.0
150 2 48.69802882027103 3.6451391336392316 0.0 0.0 0.0 0.0
151 1 0.8602836627968595 5.014052881966556 0.0 0.0 0.0 0.0
152 1 1.894120316383754 4.336660180098214 0.0 0.0 0.0 0.0
153 1 2.527949975171135 4.52207507377521 0.0 0.0 0.0 0.0
154 1 3.156218424418541 4.308127452817679 0.0 0.0 0.0 0.0
155 1 3.8066164715897415 4.450591077157676 0.0 0.0 0.0 0.0
156 1 4.510878531660298 4.337981923814753 0.0 0.0 0.0 0.0
157 1 5.870741485363105 4.515147205782545 0.0 0.0 0.0 0.0
158 1 7.139066982312333 4.135997794455124 0.0 0.0 0.0 0.0
159 1 7.740676322956035 3.832971402706138 0.0 0.0 0.0 0.0
160 2 8.823527801247494 3.678909738007265 0.0 0.0 0.0 0.0
161 2 10.414778584399016 4.061167577064712 0.0 0.0 0.0 0.0
162 1 11.456500951123012 3.6546203574315537 0.0 0.0 0.0 0.0
163 1 12.112007071558487 3.708498550779188 0.0 0.0 0.0 0.0
164 1 13.400787545919737 3.4757096765893913 0.0 0.0 0.0 0.0
165 1 14.001153809666802 3.127184104385376 0.0 0.0 0.0 0.0
166 1 14.695795413705161 3.17385368839732 0.0 0.0 0.0 0.0
167 1 16.330805743004905 3.5042723606098725 0.0 0.0 0.0 0.0
168 1 17.551201135847737 3.647140528557756 0.0 0.0 0.0 0.0
169 1 18.212837626524077 3.609732860187924 0.0 0.0 0.0 0.0
170 1 18.71717191016379 3.2000739374372804 0.0 0.0 0.0 0.0
171 2 19.778225119950456 3.2391093577200385 0.0 0.0 0.0 0.0
172 2 20.965809498336984 3.516259149119673 0.0 0.0 0.0 0.0
173 2 22.064954455129726 4.088675783499435 0.0 0.0 0.0 0.0
174 2 24.145868729984493 4.181816325084813 0.0 0.0 0.0 0.0
175 1 24.665592724303554 5.124423701723956 0.0 0.0 0.0 0.0
176 1 25.188677601124947 4.694560656960526 0.0 0.0 0.0 0.0
177 1 26.299101193604194 3.994121898300346 0.0 0.0 0.0 0.0
178 1 26.954218726121066 3.7590424859368583 0.0 0.0 0.0 0.0
179 2 28.834095574974228 3.311634578579524 0.0 0.0 0.0 0.0
180 1 29.827117399008493 2.79849660636445 0.0 0.0 0.0 0.0
181 1 30.840550920942444 3.4696292042875063 0.0 0.0 0.0 0.0
182 1 31.473666702155324 3.613788480881622 0.0 0.0 0.0 0.0
183 1 31.931129373818465 4.079855945843623 0.0 0.0 0.0 0.0
184 2 33.03016916232418 4.078216037279552 0.0 0.0 0.0 0.0
185 1 33.44035110008607 3.0490430971115376 0.0 0.0 0.0 0.0
186 2 34.28031061443209 3.780609083684762 0.0 0.0 0.0 0.0
187 2 36.39443043843288 3.4733548116081474 0.0 0.0 0.0 0.0
188 1 37.45898236630001 3.4389779455127085 0.0 0.0 0.0 0.0
189 2 38.43991517431919 3.858853896343687 0.0 0.0 0.0 0.0
190 1 39.55327001511444 3.7187417361536 0.0 0.0 0.0 0.0
191 2 40.52957453012992 3.2690822252034 0.0 0.0 0.0 0.0
192 1 41.45559883869277 3.854091952889931 0.0 0.0 0.0 0.0
193 1 42.127500009658995 3.7650252399551962 0.0 0.0 0.0 0.0
194 2 43.04494303621756 4.3762951703059905 0.0 0.0 0.0 0.0
195 1 43.91387198377025 5.081536958305687 0.0 0.0 0.0 0.0
196 2 44.25649943979238 4.029695442007342 0.0 0.0 0.0 0.0
197 1 46.54311496166716 4.455791569648726 0.0 0.0 0.0 0.0
198 1 47.1049746484738 4.078967926854117 0.0 0.0 0.0 0.0
199 1 47.76473330635007 4.16034720306284 0.0 0.0 0.0 0.0
200 1 0.29280741293703016 4.632664740957302 0.0 0.0 0.0 0.0
201 1 1.220235402566531 4.436746984083541 0.0 0.0 0.0 0.0
202 1 1.5175872354552393 3.8015872971917655 0.0 0.0 0.0 0.0
203 2 1.8731623880053248 5.420555742008526 0.0 0.0 0.0 0.0
204 2 3.1646572645855495 5.4099848622116475 0.0 0.0 0.0 0.0
205 1 4.162672714997915 4.988903496613295 0.0 0.0 0.0 0.0
206 1 5.244546194538447 4.255596603023878 0.0 0.0 0.0 0.0
207 1 6.549343957898255 4.463867034982886 0.0 0.0 0.0 0.0
208 1 7.120837306426677 4.817202035505645 0.0 0.0 0.0 0.0
209 2 8.180548411605633 4.792812727045122 0.0 0.0 0.0 0.0
210 2 9.41221482697747 4.838817699466564 0.0 0.0 0.0 0.0
211 1 11.143067004018965 4.943222788072454 0.0 0.0 0.0 0.0
212 1 11.521924045148678 4.321106067580948 0.0 0.0 0.0 0.0
213 1 11.85867453975481 4.8932266758182426 0.0 0.0 0.0 0.0
214 2 12.868016160151228 4.470276934995262 0.0 0.0 0.0 0.0
215 2 14.222240233044369 4.204059737809006 0.0 0.0 0.0 0.0
216 1 15.186571173361818 3.689167500738386 0.0 0.0 0.0 0.0
217 1 15.827592533627367 3.9281571132599713 0.0 0.0 0.0 0.0
218 2 16.842076338866615 4.483240510336926 0.0 0.0 0.0 0.0
219 1 17.908786577104184 4.192596577070782 0.0 0.0 0.0 0.0
220 2 18.99293565566955 4.376184192763949 0.0 0.0 0.0 0.0
221 1 20.081190836750498 4.278057331837083 0.0 0.0 0.0 0.0
222 2 21.02490284922789 4.780944287053477 0.0 0.0 0.0 0.0
223 1 22.022664034640712 5.204828770212517 0.0 0.0 0.0 0.0
224 1 23.089913995424144 4.5047448983308085 0.0 0.0 0.0 0.0
225 2 23.650428897662277 5.441164087743934 0.0 0.0 0.0 0.0
226 1 25.25333908762819 5.388066341517241 0.0 0.0 0.0 0.0
227 1 25.835794522652584 4.48286350223563 0.0 0.0 0.0 0.0
228 1 26.81369986781856 4.421956972189673 0.0 0.0 0.0 0.0
229 2 27.965069373451836 4.1702785997029475 0.0 0.0 0.0 0.0
230 2 29.90350894771031 3.9067781382226068 0.0 0.0 0.0 0.0
231 1 31.01231873545635 4.12075633163743 0.0 0.0 0.0 0.0
232 1 31.472843611096057 4.608845514988368 0.0 0.0 0.0 0.0
233 1 32.13625583730505 4.710471869353011 0.0 0.0 0.0 0.0
234 1 33.31912487973909 5.23487101272069 0.0 0.0 0.0 0.0
235 1 33.839509725061696 4.793569177067934 0.0 0.0 0.0 0.0
236 1 35.39354721201586 3.8965510084999844 0.0 0.0 0.0 0.0
237 1 35.8973298357738 4.405459709138092 0.0 0.0 0.0 0.0
238 2 37.129997129291155 4.55314358259764 0.0 0.0 0.0 0.0
239 1 38.905275530562406 4.811540666246773 0.0 0.0 0.0 0.0
240 1 39.40844251172142 4.357430869035543 0.0 0.0 0.0 0.0
241 2 40.50324594075716 4.475956210166079 0.0 0.0 0.0 0.0
242 1 41.62404629213258 4.506796797311842 0.0 0.0 0.0 0.0
243 2 42.314789856258784 5.353391537055084 0.0 0.0 0.0 0.0
244 1 43.40025541405414 5.480906579189448 0.0 0.0 0.0 0.0
245 1 44.0286300229111 5.805770308047312 0.0 0.0 0.0 0.0
246 2 44.98675810594676 5.053954814222396 0.0 0.0 0.0 0.0
247 1 45.88091204352169 4.432630268925147 0.0 0.0 0.0 0.0
248 2 47.37317350647104 5.15827109697326 0.0 0.0 0.0 0.0
249 2 48.62162147268993 4.891195030453867 0.0 0.0 0.0 0.0
250 1 0.2583495254288408 5.297089925117113 0.0 0.0 0.0 0.0
251 2 0.8903643921382717 6.207407042259475 0.0 0.0 0.0 0.0
252 2 1.8521939724159335 7.120865958820564 0.0 0.0 0.0 0.0
253 1 3.1596673238943858 6.534144411019701 0.0 0.0 0.0 0.0
254 1 2.5358108337465377 6.294415797754053 0.0 0.0 0.0 0.0
255 2 4.209930322231928 6.11234248023768 0.0 0.0 0.0 0.0
256 2 5.151943079082336 5.339540943037418 0.0 0.0 0.0 0.0
257 2 6.321438424753625 5.520431612842937 0.0 0.0 0.0 0.0
258 2 7.47928750963237 5.960663452027596 0.0 0.0 0.0 0.0
259 1 8.550265395650122 5.787100681069811 0.0 0.0 0.0 0.0
260 2 9.566594409132412 6.075602694663115 0.0 0.0 0.0 0.0
261 1 10.468123296350425 5.160873596893343 0.0 0.0 0.0 0.0
262 1 11.56887173574377 5.484657916406618 0.0 0.0 0.0 0.0
263 2 12.635512751809369 5.713782133761834 0.0 0.0 0.0 0.0
264 1 13.662720226074835 5.177813906517331 0.0 0.0 0.0 0.0
265 1 14.320141828883573 5.281772162036896 0.0 0.0 0.0 0.0
266 2 15.368075700670952 4.899641796291118 0.0 0.0 0.0 0.0
267 1 16.33630329694181 5.432820929224294 0.0 0.0 0.0 0.0
268 1 16.968465959646952 5.642537049133392 0.0 0.0 0.0 0.0
269 1 17.556256062331823 5.344957480223736 0.0 0.0 0.0 0.0
270 1 17.963179038443915 4.833426381316986 0.0 0.0 0.0 0.0
271 2 19.911364219991047 5.396833946223413 0.0 0.0 0.0 0.0
272 2 21.53279126418792 6.799647909815916 0.0 0.0 0.0 0.0
273 1 21.58627999950534 5.714662214435093 0.0 0.0 0.0 0.0
274 1 22.655165567353947 5.013395212356407 0.0 0.0 0.0 0.0
275 1 24.269187986784438 6.316090473092469 0.0 0.0 0.0 0.0
276 1 24.729966319889655 5.823116327324711 0.0 0.0 0.0 0.0
277 2 26.308430314047374 5.450853468778556 0.0 0.0 0.0 0.0
278 1 27.226454058963274 4.9392680232743205 0.0 0.0 0.0 0.0
279 2 28.113600559578327 5.5162573952759315 0.0 0.0 0.0 0.0
280 2 29.103961032189165 4.8036335940959125 0.0 0.0 0.0 0.0
281 2 30.45848714518747 5.085227354605979 0.0 0.0 0.0 0.0
282 2 31.709207663367934 5.709180332543636 0.0 0.0 0.0 0.0
283 1 32.65783883926673 5.123616189562298 0.0 0.0 0.0 0.0
284 1 32.82710339472971 5.773697479821038 0.0 0.0 0.0 0.0
285 1 33.97513752095695 5.444877654030192 0.0 0.0 0.0 0.0
286 2 34.93001274421279 4.8824844200438315 0.0 0.0 0.0 0.0
287 1 36.08611088083365 5.0377465589414365 0.0 0.0 0.0 0.0
288 1 37.823548829027374 5.4577305920226635 0.0 0.0 0.0 0.0
289 1 38.23453152936026 4.93902254519243 0.0 0.0 0.0 0.0
290 1 39.544254902797526 4.999314191539955 0.0 0.0 0.0 0.0
291 1 39.98950854010279 5.47544873095635 0.0 0.0 0.0 0.0
292 2 41.086230868984536 5.560692826496686 0.0 0.0 0.0 0.0
293 1 41.858408974756415 6.333403570063535 0.0 0.0 0.0 0.0
294 2 42.93452162262019 6.460429299483203 0.0 0.0 0.0 0.0
295 1 44.03585304441155 6.546274816656428 0.0 0.0 0.0 0.0
296 2 45.10284367640727 6.272105821007207 0.0 0.0 0.0 0.0
297 2 46.18096263227769 5.529253288194288 0.0 0.0 0.0 0.0
298 1 47.11618799508168 6.205393345528776 0.0 0.0 0.0 0.0
299 2 48.19349328200839 6.079402335778073 0.0 0.0 0.0 0.0
300 1 49.247000505985724 5.806835342172007 0.0 0.0 0.0 0.0
301 1 0.1385863066978828 7.026925051065524 0.0 0.0 0.0 0.0
302 1 0.7390349531280441 7.3225739474006035 0.0 0.0 0.0 0.0
303 1 2.96617181469425 7.200292783294459 0.0 0.0 0.0 0.0
304 1 3.6249311393901418 7.018118874765315 0.0 0.0 0.0 0.0
305 1 4.298764904996662 7.195087322144341 0.0 0.0 0.0 0.0
306 1 4.964875394166705 7.043509842691915 0.0 0.0 0.0 0.0
307 2 6.34678092093045 6.703136420003602 0.0 0.0 0.0 0.0
308 1 7.3648096629234265 7.086150223558331 0.0 0.0 0.0 0.0
309 1 8.02384284781446 6.93392575036938 0.0 0.0 0.0 0.0
310 1 8.508464215058433 6.459251116544001 0.0 0.0 0.0 0.0
311 1 10.033429740067874 7.03980290890638 0.0 0.0 0.0 0.0
312 2 10.775938488722574 6.198648310267746 0.0 0.0 0.0 0.0
313 1 11.826549059301852 6.518478835802127 0.0 0.0 0.0 0.0
314 2 13.771966719333511 6.247952073219637 0.0 0.0 0.0 0.0
315 1 14.732088987894844 5.796747619258601 0.0 0.0 0.0 0.0
316 1 14.883557066767198 6.487850776963919 0.0 0.0 0.0 0.0
317 1 15.342249243421481 6.003639186399191 0.0 0.0 0.0 0.0
318 1 15.98503624076388 5.980849243266601 0.0 0.0 0.0 0.0
319 1 17.574706314984155 6.013319875465206 0.0 0.0 0.0 0.0
320 2 18.618129182896503 5.686403028363723 0.0 0.0 0.0 0.0
321 1 20.923114991384345 5.872780924178492 0.0 0.0 0.0 0.0
322 1 20.50887295968405 6.401017370550346 0.0 0.0 0.0 0.0
323 1 21.431833270203835 8.019910981957436 0.0 0.0 0.0 0.0
324 2 22.616869612398375 6.1295170842654345 0.0 0.0 0.0 0.0
325 1 23.65368714994865 6.563716688223826 0.0 0.0 0.0 0.0
326 1 25.379287308087417 6.053724458317919 0.0 0.0 0.0 0.0
327 1 25.92733454424319 6.471023755535782 0.0 0.0 0.0 0.0
328 2 27.065495537782144 6.446214800777799 0.0 0.0 0.0 0.0
329 1 28.19744441222259 6.570234360007701 0.0 0.0 0.0 0.0
330 2 29.33107625615498 6.049945000995292 0.0 0.0 0.0 0.0
331 2 30.652510871033016 6.3623391470545005 0.0 0.0 0.0 0.0
332 1 31.259646606876093 7.285188359396201 0.0 0.0 0.0 0.0
333 1 32.3975739321053 6.552025649694316 0.0 0.0 0.0 0.0
334 1 33.49515213491632 5.901755620104898 0.0 0.0 0.0 0.0
335 1 34.49346700014761 5.861645617872309 0.0 0.0 0.0 0.0
336 1 35.148929996751285 5.987208183896693 0.0 0.0 0.0 0.0
337 1 35.73132133085895 5.6167142133765635 0.0 0.0 0.0 0.0
338 2 36.79938633168669 5.867344332706195 0.0 0.0 0.0 0.0
339 2 37.86016801712527 6.551884960737939 0.0 0.0 0.0 0.0
340 2 38.907019721247 5.876909096408639 0.0 0.0 0.0 0.0
341 2 40.21040982225102 6.523724002244386 0.0 0.0 0.0 0.0
342 1 41.284235292433856 6.6580040280707005 0.0 0.0 0.0 0.0
343 1 41.88304766915625 7.000684300365944 0.0 0.0 0.0 0.0
344 1 42.41737487535835 7.4285548375616965 0.0 0.0 0.0 0.0
345 2 43.497073591172295 7.559312576086172 0.0 0.0 0.0 0.0
346 2 44.733063954729396 7.457068816939397 0.0 0.0 0.0 0.0
347 2 46.26713840432482 6.845159389696917 0.0 0.0 0.0 0.0
348 1 47.392310558907965 6.840433602130006 0.0 0.0 0.0 0.0
349 1 47.276227270358696 7.5128339660634325 0.0 0.0 0.0 0.0
350 1 49.20509419519527 6.465868797062814 0.0 0.0 0.0 0.0
351 1 0.1406622212056419 7.686518744880567 0.0 0.0 0.0 0.0
352 1 1.0886777300290316 7.892075525777534 0.0 0.0 0.0 0.0
353 1 1.7180743311542956 8.195531684768381 0.0 0.0 0.0 0.0
354 1 2.448500583553834 8.107570761033562 0.0 0.0 0.0 0.0
355 1 4.725350246743874 7.7178424659271565 0.0 0.0 0.0 0.0
356 1 5.285294766256639 6.439331556912891 0.0 0.0 0.0 0.0
357 1 6.919638689750713 7.6186111077529235 0.0 0.0 0.0 0.0
358 2 7.917866002567934 8.042916933177407 0.0 0.0 0.0 0.0
359 1 8.68084528991949 7.12227884842819 0.0 0.0 0.0 0.0
360 1 8.971329589827983 7.736418858942986 0.0 0.0 0.0 0.0
361 1 9.367802656209793 7.179873452115139 0.0 0.0 0.0 0.0
362 2 11.059258495149097 7.386681239265126 0.0 0.0 0.0 0.0
363 2 12.815019710699515 7.002299162697739 0.0 0.0 0.0 0.0
364 1 13.883713655273302 7.311543661087612 0.0 0.0 0.0 0.0
365 1 14.503966734425223 7.0521470122493115 0.0 0.0 0.0 0.0
366 1 15.181635410153326 7.109630518573666 0.0 0.0 0.0 0.0
367 1 15.835577669174118 7.259887433165778 0.0 0.0 0.0 0.0
368 1 15.638952771311846 6.60195483483086 0.0 0.0 0.0 0.0
369 1 17.891672057570105 6.624350805436607 0.0 0.0 0.0 0.0
370 2 19.44609427820086 6.579789835886764 0.0 0.0 0.0 0.0
371 1 20.419556907803916 7.112038269291715 0.0 0.0 0.0 0.0
372 1 20.861061590001533 7.630616119596825 0.0 0.0 0.0 0.0
373 1 22.100201578949555 7.7169576598353755 0.0 0.0 0.0 0.0
374 1 22.553491077722548 7.220920468966147 0.0 0.0 0.0 0.0
375 1 23.209455446440977 7.057948971201177 0.0 0.0 0.0 0.0
376 2 25.00430635444609 7.082746614938676 0.0 0.0 0.0 0.0
377 1 26.147092464315104 7.100083068836825 0.0 0.0 0.0 0.0
378 1 27.89197212949461 7.157672986280326 0.0 0.0 0.0 0.0
379 1 28.097610478027306 7.783197660291409 0.0 0.0 0.0 0.0
380 2 29.023145361111 7.256255506364692 0.0 0.0 0.0 0.0
381 2 30.193187825562433 7.522553186419561 0.0 0.0 0.0 0.0
382 1 31.863856703709796 7.574587502755244 0.0 0.0 0.0 0.0
383 1 31.78179036620591 6.855999612437599 0.0 0.0 0.0 0.0
384 1 33.05561785862512 6.406312057601295 0.0 0.0 0.0 0.0
385 2 34.08545658026148 6.840061077768127 0.0 0.0 0.0 0.0
386 1 35.1950588332958 6.666295630535657 0.0 0.0 0.0 0.0
387 1 35.751981806713964 6.283603545806875 0.0 0.0 0.0 0.0
388 2 36.44898698844004 7.101249527826595 0.0 0.0 0.0 0.0
389 1 38.10161049488116 7.624295942239203 0.0 0.0 0.0 0.0
390 2 39.06925770167972 7.090014118478238 0.0 0.0 0.0 0.0
391 2 40.246669244199495 7.744909322664863 0.0 0.0 0.0 0.0
392 1 41.23728793327043 7.319529482443638 0.0 0.0 0.0 0.0
393 1 41.80033826341313 7.668847048519379 0.0 0.0 0.0 0.0
394 1 42.31314351570433 8.104691183786175 0.0 0.0 0.0 0.0
395 1 44.19287481659633 8.457570024639772 0.0 0.0 0.0 0.0
396 1 44.86029611748668 8.537816911621743 0.0 0.0 0.0 0.0
397 2 45.90557888835781 7.989639835609088 0.0 0.0 0.0 0.0
398 1 47.026679363438596 8.152709040091713 0.0 0.0 0.0 0.0
399 1 47.701389296456824 8.075895429013007 0.0 0.0 0.0 0.0
400 2 48.45299266546834 7.290084837406274 0.0 0.0 0.0 0.0
401 1 0.5151926668843386 8.240342441528059 0.0 0.0 0.0 0.0
402 1 1.147648226709783 8.552198746325244 0.0 0.0 0.0 0.0
403 1 2.1149957364773964 8.72320129246982 0.0 0.0 0.0 0.0
404 1 2.7886810146536294 8.716412361896468 0.0 0.0 0.0 0.0
405 2 3.674011783456544 8.092054285348866 0.0 0.0 0.0 0.0
406 2 5.817775291048207 7.7810173740517135 0.0 0.0 0.0 0.0
407 1 6.843629344953574 8.291126949973092 0.0 0.0 0.0 0.0
408 1 7.037564358303513 8.965269497397369 0.0 0.0 0.0 0.0
409 1 8.935473911279065 8.421676719054757 0.0 0.0 0.0 0.0
410 1 9.314584752958977 8.973752109767501 0.0 0.0 0.0 0.0
411 2 9.996553409877418 8.12384206961219 0.0 0.0 0.0 0.0
412 1 11.038824250973654 8.488099594915866 0.0 0.0 0.0 0.0
413 1 12.062218967441234 7.7590120814825605 0.0 0.0 0.0 0.0
414 1 13.500816307490586 7.85306025685227 0.0 0.0 0.0 0.0
415 1 14.172597818624562 7.903084670380933 0.0 0.0 0.0 0.0
416 1 14.78175179966556 7.6533585881518205 0.0 0.0 0.0 0.0
417 1 15.431046983588676 7.780351618961094 0.0 0.0 0.0 0.0
418 1 16.303440175396965 7.7512223639278615 0.0 0.0 0.0 0.0
419 2 16.759419088588782 6.718044593562044 0.0 0.0 0.0 0.0
420 2 18.60081070558905 7.474533392678286 0.0 0.0 0.0 0.0
421 1 19.725763371636837 7.632600127075887 0.0 0.0 0.0 0.0
422 2 20.322556551398094 8.547650824130784 0.0 0.0 0.0 0.0
423 1 22.028242356887375 8.36332167031568 0.0 0.0 0.0 0.0
424 2 23.148537897407415 8.141613363655937 0.0 0.0 0.0 0.0
425 1 23.874631457509395 7.219227598067425 0.0 0.0 0.0 0.0
426 2 25.707450174549546 8.107869447481466 0.0 0.0 0.0 0.0
427 2 26.98999638239272 7.815438374608108 0.0 0.0 0.0 0.0
428 1 27.950805733285176 8.41043646989064 0.0 0.0 0.0 0.0
429 1 28.612273505663335 8.284411929130695 0.0 0.0 0.0 0.0
430 1 29.336731333844558 8.302202313179519 0.0 0.0 0.0 0.0
431 1 29.948430815617673 8.577733674420566 0.0 0.0 0.0 0.0
432 1 32.13992974120271 8.208589056982449 0.0 0.0 0.0 0.0
433 1 32.02481768123908 8.87965630673364 0.0 0.0 0.0 0.0
434 2 32.96945388648579 7.490289001817602 0.0 0.0 0.0 0.0
435 2 34.17680891386856 8.076758136725372 0.0 0.0 0.0 0.0
436 2 35.38208859844145 7.7430176885985285 0.0 0.0 0.0 0.0
437 1 37.009836042680746 8.046930513476195 0.0 0.0 0.0 0.0
438 1 37.437358243591525 7.537185357602647 0.0 0.0 0.0 0.0
439 1 37.68095594196494 8.154204297070546 0.0 0.0 0.0 0.0
440 1 38.5906172562829 8.074840305306484 0.0 0.0 0.0 0.0
441 1 39.255614669661654 8.151512733132531 0.0 0.0 0.0 0.0
442 2 41.19288482076064 8.556550825008523 0.0 0.0 0.0 0.0
443 1 42.25772387836724 8.78399441219586 0.0 0.0 0.0 0.0
444 1 42.87363679099571 8.477926749762043 0.0 0.0 0.0 0.0
445 1 43.53725311131607 8.633027148681059 0.0 0.0 0.0 0.0
446 1 44.64542389239592 9.199499245274994 0.0 0.0 0.0 0.0
447 2 45.73347495381138 9.168823101634631 0.0 0.0 0.0 0.0
448 1 46.733049579205826 8.757134538575944 0.0 0.0 0.0 0.0
449 2 47.74133787625129 9.172681455896727 0.0 0.0 0.0 0.0
450 2 48.805812578484606 8.500683709924843 0.0 0.0 0.0 0.0
451 2 0.3888176789674363 9.322128511550746 0.0 0.0 0.0 0.0
452 1 1.3932066625597337 9.760438685497961 0.0 0.0 0.0 0.0
453 1 1.5405429660948788 9.09944099057356 0.0 0.0 0.0 0.0
454 1 3.3572607905684904 9.120773938824906 0.0 0.0 0.0 0.0
455 1 4.053482557380391 9.160885766730619 0.0 0.0 0.0 0.0
456 2 5.107803528947501 8.787026647188123 0.0 0.0 0.0 0.0
457 1 6.347900369987925 8.733566918296313 0.0 0.0 0.0 0.0
458 1 7.13618541574009 9.660814047977743 0.0 0.0 0.0 0.0
459 2 8.199789031397462 9.272059926077795 0.0 0.0 0.0 0.0
460 1 9.268187918765237 9.626196755336512 0.0 0.0 0.0 0.0
461 1 9.950490535599032 9.311670794683945 0.0 0.0 0.0 0.0
462 1 10.615777823622686 9.001424955168426 0.0 0.0 0.0 0.0
463 1 11.675779184504679 8.300573835294447 0.0 0.0 0.0 0.0
464 2 12.728452841752947 8.60501788394739 0.0 0.0 0.0 0.0
465 1 13.805846987594371 8.45263182272088 0.0 0.0 0.0 0.0
466 2 14.86866908001714 8.748420965130006 0.0 0.0 0.0 0.0
467 1 15.879624787721172 8.267036576469744 0.0 0.0 0.0 0.0
468 1 16.539887000550227 8.411946843036885 0.0 0.0 0.0 0.0
469 2 17.40641997434761 7.749787050839389 0.0 0.0 0.0 0.0
470 1 18.040413587615323 8.63790715888298 0.0 0.0 0.0 0.0
471 2 19.112720975338295 8.58507366134312 0.0 0.0 0.0 0.0
472 1 20.230750891197864 9.626436307161345 0.0 0.0 0.0 0.0
473 2 21.33425677307745 9.194432393706954 0.0 0.0 0.0 0.0
474 2 22.62732485069768 9.260511354941048 0.0 0.0 0.0 0.0
475 2 24.400397833701426 8.20275750637333 0.0 0.0 0.0 0.0
476 2 25.11817031016534 9.248980482913506 0.0 0.0 0.0 0.0
477 2 26.42056439558227 9.122223897597642 0.0 0.0 0.0 0.0
478 1 27.451232583118998 8.818446289883925 0.0 0.0 0.0 0.0
479 1 28.272039925217914 8.985258595812933 0.0 0.0 0.0 0.0
480 1 28.962409630759804 8.85804024078439 0.0 0.0 0.0 0.0
481 1 29.59096518434251 9.149130586709651 0.0 0.0 0.0 0.0
482 2 31.05763220799365 8.38951695958316 0.0 0.0 0.0 0.0
483 1 32.297136617549036 9.482940818802557 0.0 0.0 0.0 0.0
484 2 33.11964375532672 8.740408466114673 0.0 0.0 0.0 0.0
485 2 34.337110158905716 9.322312417776583 0.0 0.0 0.0 0.0
486 2 35.58286254222153 9.004451526875249 0.0 0.0 0.0 0.0
487 1 36.3774919639324 8.251597897834388 0.0 0.0 0.0 0.0
488 2 37.15896908274281 9.127213276533144 0.0 0.0 0.0 0.0
489 1 38.175597592565275 8.589775428985412 0.0 0.0 0.0 0.0
490 1 38.87902385951134 8.686472792939888 0.0 0.0 0.0 0.0
491 2 39.96648098287495 8.978739244304162 0.0 0.0 0.0 0.0
492 1 41.91056180747145 9.391193240849008 0.0 0.0 0.0 0.0
493 2 43.003012757221214 9.576915037471641 0.0 0.0 0.0 0.0
494 1 43.994155952327624 9.121541896579593 0.0 0.0 0.0 0.0
495 1 44.18910537898565 9.792311461782758 0.0 0.0 0.0 0.0
496 1 44.880152644816334 9.842701694915114 0.0 0.0 0.0 0.0
497 2 46.70403593992501 9.896809458645594 0.0 0.0 0.0 0.0
498 1 47.74194193215004 10.266320624188108 0.0 0.0 0.0 0.0
499 1 48.41335997605768 10.2132984125669 0.0 0.0 0.0 0.0
500 1 48.736885422196785 9.61662460734195 0.0 0.0 0.0 0.0
501 1 0.32461531479795613 10.420417601366761 0.0 0.0 0.0 0.0
502 1 0.9650176921923322 10.257207309486429 0.0 0.0 0.0 0.0
503 1 1.6154546086071955 10.438291237774939 0.0 0.0 0.0 0.0
504 2 2.4632961020341027 9.761785542485487 0.0 0.0 0.0 0.0
505 2 3.6035205555856926 10.177980227536493 0.0 0.0 0.0 0.0
506 2 4.820034209788911 10.022011955117032 0.0 0.0 0.0 0.0
507 2 6.035674421017623 9.755192448510394 0.0 0.0 0.0 0.0
508 2 7.851022442165816 10.505627598196654 0.0 0.0 0.0 0.0
509 1 8.886485024141074 10.877951657490417 0.0 0.0 0.0 0.0