ITEM: TIMESTEP
1
ITEM: NUMBER OF ATOMS
2500
ITEM: BOX BOUNDS xy xz yz pp pp pp
0.0 49.402249999999995 0.0
0.0 49.402249999999995 0.0
0.0 10.0 0.0
ITEM: ATOMS id type x y z vx vy vz
1 2 0.5813161717803857 0.6546844046640782 0.0 0.0 0.0 0.0
2 1 1.9388167909276928 0.9982882983202779 0.0 0.0 0.0 0.0
3 1 2.4031262254516297 0.5103653468657741 0.0 0.0 0.0 0.0
4 2 3.5193903664124773 0.4868083234230964 0.0 0.0 0.0 0.0
5 2 4.709718719483507 0.9004976454803243 0.0 0.0 0.0 0.0
6 1 5.798546070431636 0.7462847100710597 0.0 0.0 0.0 0.0
7 2 6.676289578333061 49.203715278429385 0.0 0.0 0.0 0.0
8 1 7.720707085553978 0.20623739480773712 0.0 0.0 0.0 0.0
9 1 8.572076240801188 0.5817101140425422 0.0 0.0 0.0 0.0
10 2 10.135237234795767 49.31783378792492 0.0 0.0 0.0 0.0
11 1 10.717058833996681 0.8301122536686975 0.0 0.0 0.0 0.0
12 1 11.880214116247018 0.19957093027124032 0.0 0.0 0.0 0.0
13 2 12.832939498238385 0.729501374128081 0.0 0.0 0.0 0.0
14 2 14.077842042307076 0.3782976371249776 0.0 0.0 0.0 0.0
15 1 14.823867299636028 1.3796115668450875 0.0 0.0 0.0 0.0
16 1 15.101470015776965 0.7504534348901741 0.0 0.0 0.0 0.0
17 1 15.808996061505441 0.6347555149725994 0.0 0.0 0.0 0.0
18 1 18.01926988852797 0.035850847725270626 0.0 0.0 0.0 0.0
19 1 18.20852122498569 0.6470955174833007 0.0 0.0 0.0 0.0
20 1 18.79521023442999 0.9288687539587793 0.0 0.0 0.0 0.0
21 2 19.80680471660753 0.6560170298720909 0.0 0.0 0.0 0.0
22 2 21.014429255344325 0.8296923125664597 0.0 0.0 0.0 0.0
23 2 22.347818756963523 0.3964056225275844 0.0 0.0 0.0 0.0
24 1 23.39221546497262 0.7226675908399021 0.0 0.0 0.0 0.0
25 2 24.460093219620358 0.5706529336986976 0.0 0.0 0.0 0.0
26 1 25.53817418437694 0.4516041104437888 0.0 0.0 0.0 0.0
27 1 26.143053070978073 0.6944778765440281 0.0 0.0 0.0 0.0
28 2 27.248614947547242 0.533197293276437 0.0 0.0 0.0 0.0
29 1 28.29095584776496 0.14994590637962343 0.0 0.0 0.0 0.0
30 2 29.40796905799006 0.32037984702637706 0.0 0.0 0.0 0.0
31 1 30.43974037297597 49.241865993979765 0.0 0.0 0.0 0.0
32 2 31.53593113383997 0.16221752416053356 0.0 0.0 0.0 0.0
33 1 32.67081202147411 0.18471374955277986 0.0 0.0 0.0 0.0
34 1 33.18995067228403 49.16730001739715 0.0 0.0 0.0 0.0
35 2 34.25384533693409 49.214654547173296 0.0 0.0 0.0 0.0
36 1 35.19756124694394 0.4314552521604834 0.0 0.0 0.0 0.0
37 2 36.323368988105734 0.3028053748432031 0.0 0.0 0.0 0.0
38 1 37.453273956305274 0.9213733656516085 0.0 0.0 0.0 0.0
39 2 38.13811397936816 0.03826417822407452 0.0 0.0 0.0 0.0
40 1 39.18411861193977 0.24926321267552526 0.0 0.0 0.0 0.0
41 1 41.14241745844997 1.2889535160073566 0.0 0.0 0.0 0.0
42 1 40.851997108758034 0.688777886176993 0.0 0.0 0.0 0.0
43 1 41.53304305114851 0.7453243755821609 0.0 0.0 0.0 0.0
44 1 42.16985514743793 0.9771541967749998 0.0 0.0 0.0 0.0
45 2 43.27641344381604 0.78450588828018 0.0 0.0 0.0 0.0
46 1 44.948763861270855 0.5330901469496625 0.0 0.0 0.0 0.0
47 2 46.05524950999371 0.573303450967246 0.0 0.0 0.0 0.0
48 2 47.28247670884494 1.1001836581622082 0.0 0.0 0.0 0.0
49 1 48.24208483474663 0.3927712719963639 0.0 0.0 0.0 0.0
50 1 48.87677429887723 0.6937081239134687 0.0 0.0 0.0 0.0
51 2 49.27029685826134 1.7210746829119452 0.0 0.0 0.0 0.0
52 2 1.1377776085953382 1.7508939961751542 0.0 0.0 0.0 0.0
53 1 2.636457304218172 1.1251060316335626 0.0 0.0 0.0 0.0
54 2 3.601052842914475 1.7280889655451328 0.0 0.0 0.0 0.0
55 2 4.8641508618532665 2.192477015273036 0.0 0.0 0.0 0.0
56 1 5.7173065600480815 1.4190022762793024 0.0 0.0 0.0 0.0
57 2 6.8354283138207315 1.013754430800998 0.0 0.0 0.0 0.0
58 1 7.935612919999402 0.8477802996184344 0.0 0.0 0.0 0.0
59 1 8.483223389171817 1.2432908846867736 0.0 0.0 0.0 0.0
60 2 9.588309051609283 1.0780915397977888 0.0 0.0 0.0 0.0
61 1 10.649206487591483 1.4879654821520696 0.0 0.0 0.0 0.0
62 2 11.723519859323426 1.3171963877904216 0.0 0.0 0.0 0.0
63 1 12.698257333320683 1.8312746731519087 0.0 0.0 0.0 0.0
64 2 13.736989163501732 1.5588573066893472 0.0 0.0 0.0 0.0
65 1 14.694881107524903 2.065305212499 0.0 0.0 0.0 0.0
66 1 15.493153236996546 1.2706762851880402 0.0 0.0 0.0 0.0
67 1 16.150582746446666 1.2497965676193314 0.0 0.0 0.0 0.0
68 2 17.110297716546217 0.7422401482752069 0.0 0.0 0.0 0.0
69 2 18.051131409124295 1.6996837592258172 0.0 0.0 0.0 0.0
70 1 19.133591297373105 1.5344065195240075 0.0 0.0 0.0 0.0
71 2 20.05433771258613 2.1395958193447533 0.0 0.0 0.0 0.0
72 1 21.141239698895745 2.1959671664131184 0.0 0.0 0.0 0.0
73 2 21.993513434602775 1.5455402202237167 0.0 0.0 0.0 0.0
74 1 23.02163809196146 1.2695234683168544 0.0 0.0 0.0 0.0
75 2 24.008373657778517 1.6782283377262581 0.0 0.0 0.0 0.0
76 2 25.283299169033945 1.5439782186995874 0.0 0.0 0.0 0.0
77 1 26.42048236766478 1.278741876576402 0.0 0.0 0.0 0.0
78 2 27.383526648284153 1.7923054107698941 0.0 0.0 0.0 0.0
79 2 28.504861804334087 1.23189996221543 0.0 0.0 0.0 0.0
80 2 29.55901040926016 1.9590881228259103 0.0 0.0 0.0 0.0
81 2 30.47907344328506 0.9337409853681967 0.0 0.0 0.0 0.0
82 2 31.630653895217137 1.4481773847343529 0.0 0.0 0.0 0.0
83 1 32.488293108581665 0.8193135476303337 0.0 0.0 0.0 0.0
84 2 33.57346019135529 0.8917797505291669 0.0 0.0 0.0 0.0
85 2 34.548682801881164 1.900782631719984 0.0 0.0 0.0 0.0
86 1 34.68018220278968 0.8353303432208813 0.0 0.0 0.0 0.0
87 2 35.723125865537604 1.3699369820387728 0.0 0.0 0.0 0.0
88 1 36.87300718425241 1.2850181110492118 0.0 0.0 0.0 0.0
89 2 38.5991417740932 1.1634110284539574 0.0 0.0 0.0 0.0
90 2 39.84568915840222 1.0669300550688081 0.0 0.0 0.0 0.0
91 1 40.66350787058527 1.7361069629951127 0.0 0.0 0.0 0.0
92 1 41.267707302858426 1.9719204135275918 0.0 0.0 0.0 0.0
93 1 41.77076938630621 1.5242977955364407 0.0 0.0 0.0 0.0
94 1 42.435102461690285 1.582771737874958 0.0 0.0 0.0 0.0
95 1 44.39392547724363 0.9417879330302357 0.0 0.0 0.0 0.0
96 1 44.32369241790224 0.2950876125405437 0.0 0.0 0.0 0.0
97 2 45.2748175510016 1.5838891541117197 0.0 0.0 0.0 0.0
98 1 46.36263753712163 1.63959415180693 0.0 0.0 0.0 0.0
99 1 48.16190974125681 1.7333261891684009 0.0 0.0 0.0 0.0
100 1 48.356378562721204 1.0891267276056555 0.0 0.0 0.0 0.0
101 2 0.3403316277080236 2.9051996064245076 0.0 0.0 0.0 0.0
102 1 1.439630951611028 2.779628771724009 0.0 0.0 0.0 0.0
103 2 2.3531651481361453 2.149092941130191 0.0 0.0 0.0 0.0
104 2 3.6828764657977775 2.9880763024322126 0.0 0.0 0.0 0.0
105 1 5.432040031375857 3.130471200325495 0.0 0.0 0.0 0.0
106 2 6.2821859680399434 2.3725980446753083 0.0 0.0 0.0 0.0
107 1 7.240818722937766 2.9637892414392075 0.0 0.0 0.0 0.0
108 2 7.605971255345263 1.9263342640276155 0.0 0.0 0.0 0.0
109 2 8.785210646632182 2.282500321930058 0.0 0.0 0.0 0.0
110 2 9.980564882278417 2.317284576597504 0.0 0.0 0.0 0.0
111 2 11.174988738633648 2.5042892212968257 0.0 0.0 0.0 0.0
112 1 12.148590385897524 2.966295192207611 0.0 0.0 0.0 0.0
113 1 12.238463508284024 2.301092227256252 0.0 0.0 0.0 0.0
114 2 13.194464516372902 2.8515645110117736 0.0 0.0 0.0 0.0
115 1 14.184137673269973 2.523119218148798 0.0 0.0 0.0 0.0
116 1 14.770849211673887 2.751993470924177 0.0 0.0 0.0 0.0
117 2 15.749236691447292 2.3203818654807793 0.0 0.0 0.0 0.0
118 2 16.907595408146637 2.0477668293678173 0.0 0.0 0.0 0.0
119 1 17.765910578310894 2.7341614266160845 0.0 0.0 0.0 0.0
120 2 18.86938755687473 2.6356482812218145 0.0 0.0 0.0 0.0
121 2 20.856890824236153 3.2570326184192306 0.0 0.0 0.0 0.0
122 1 21.72433460569756 2.576195116627028 0.0 0.0 0.0 0.0
123 2 22.90586699742866 2.382795658245219 0.0 0.0 0.0 0.0
124 1 24.029916788231013 2.7354477108808335 0.0 0.0 0.0 0.0
125 1 24.690812297460663 2.5382145148947814 0.0 0.0 0.0 0.0
126 1 25.313960673935505 2.798013081292742 0.0 0.0 0.0 0.0
127 1 26.293025862530218 1.918423703258151 0.0 0.0 0.0 0.0
128 1 26.569937980324692 2.5071773428801585 0.0 0.0 0.0 0.0
129 2 28.349553314984462 2.551627126625896 0.0 0.0 0.0 0.0
130 1 29.31058417962745 3.0384144757411256 0.0 0.0 0.0 0.0
131 1 30.65847160748936 2.000921067886139 0.0 0.0 0.0 0.0
132 2 31.52409559860396 2.657441930448553 0.0 0.0 0.0 0.0
133 1 32.76318049162072 1.6970983055940665 0.0 0.0 0.0 0.0
134 1 33.42991839685857 2.0019744703074984 0.0 0.0 0.0 0.0
135 1 33.76603106215293 2.6411794855017106 0.0 0.0 0.0 0.0
136 1 35.52150598243406 2.4281447592955403 0.0 0.0 0.0 0.0
137 1 36.18116320151337 2.373300102536076 0.0 0.0 0.0 0.0
138 1 36.678429506129866 1.9351223313486778 0.0 0.0 0.0 0.0
139 2 37.75972363069871 2.01815473506528 0.0 0.0 0.0 0.0
140 2 39.06692034802033 2.325953939861174 0.0 0.0 0.0 0.0
141 1 40.12005462341474 2.0983868162071904 0.0 0.0 0.0 0.0
142 1 40.730941202941004 2.4007241124319423 0.0 0.0 0.0 0.0
143 2 42.07671408204884 2.6622466707796684 0.0 0.0 0.0 0.0
144 1 42.98444000525906 1.9265949289005555 0.0 0.0 0.0 0.0
145 2 44.060251316580704 1.9599485214824195 0.0 0.0 0.0 0.0
146 1 44.939622390262485 2.6237265134458947 0.0 0.0 0.0 0.0
147 1 45.611784814077815 2.6451461310533246 0.0 0.0 0.0 0.0
148 1 46.15097169388047 2.2635091727134804 0.0 0.0 0.0 0.0
149 2 47.236502126460515 2.3655777640180906 0.0 0.0 0.0 0.0
150 2 48.5180671100192 2.7496880920407696 0.0 0.0 0.0 0.0
151 1 0.05556911654751021 3.9856949808317683 0.0 0.0 0.0 0.0
152 2 1.170505878742032 3.8286543880135824 0.0 0.0 0.0 0.0
153 2 2.342364039645927 3.38458734107264 0.0 0.0 0.0 0.0
154 1 4.326755919218651 3.872688527789828 0.0 0.0 0.0 0.0
155 1 4.764824463461938 3.3299982029430364 0.0 0.0 0.0 0.0
156 1 5.276151504091179 3.79427961222231 0.0 0.0 0.0 0.0
157 2 6.390376582428019 3.6761181236321883 0.0 0.0 0.0 0.0
158 1 7.930929207160127 2.960166951949176 0.0 0.0 0.0 0.0
159 1 8.503335853897504 3.341964796988168 0.0 0.0 0.0 0.0
160 2 9.568439762145495 3.466831605789394 0.0 0.0 0.0 0.0
161 2 10.757537816562841 3.730276337075243 0.0 0.0 0.0 0.0
162 1 11.779268391295217 3.494097370823821 0.0 0.0 0.0 0.0
163 1 12.421357763735895 3.6568891862107025 0.0 0.0 0.0 0.0
164 1 12.468550433292995 4.3396740792429656 0.0 0.0 0.0 0.0
165 2 14.161688430693015 3.727933641851037 0.0 0.0 0.0 0.0
166 1 15.167414033898224 3.2526194942948123 0.0 0.0 0.0 0.0
167 1 15.796016369721796 3.432973707748561 0.0 0.0 0.0 0.0
168 2 16.873393521079286 3.3541476190719117 0.0 0.0 0.0 0.0
169 1 18.0122254632804 3.344095801538142 0.0 0.0 0.0 0.0
170 1 19.771366030754223 3.2428381117855283 0.0 0.0 0.0 0.0
171 2 20.150619703137657 4.293329052735337 0.0 0.0 0.0 0.0
172 1 21.235827735581758 4.312330665746414 0.0 0.0 0.0 0.0
173 2 22.05970534081718 3.597935039938053 0.0 0.0 0.0 0.0
174 2 23.319912567792723 3.5378338499142474 0.0 0.0 0.0 0.0
175 2 24.59129934292358 3.6637408120550328 0.0 0.0 0.0 0.0
176 1 25.633484962989073 3.409415896836109 0.0 0.0 0.0 0.0
177 1 25.888733109485557 2.454749585755803 0.0 0.0 0.0 0.0
178 1 26.191775178966875 3.044850567296799 0.0 0.0 0.0 0.0
179 2 27.28847507005845 3.2989108031405188 0.0 0.0 0.0 0.0
180 1 28.85243269180579 3.5370019514546587 0.0 0.0 0.0 0.0
181 2 30.3911236496361 3.0667367908360035 0.0 0.0 0.0 0.0
182 1 31.300398791428577 3.748001843697188 0.0 0.0 0.0 0.0
183 1 31.953826003713026 3.648612653347481 0.0 0.0 0.0 0.0
184 2 32.706929373844396 2.834302413440973 0.0 0.0 0.0 0.0
185 1 33.68106711352019 3.320662186509678 0.0 0.0 0.0 0.0
186 2 34.75096716914377 3.170740113919741 0.0 0.0 0.0 0.0
187 2 35.94561394751753 3.4435833491688217 0.0 0.0 0.0 0.0
188 2 37.06724614889145 3.0137102518790884 0.0 0.0 0.0 0.0
189 2 38.271282261713914 3.2813770575342165 0.0 0.0 0.0 0.0
190 2 39.4728216115409 3.608836112070146 0.0 0.0 0.0 0.0
191 1 40.10659748910888 2.742478518243969 0.0 0.0 0.0 0.0
192 2 40.8962528068902 3.465341522339323 0.0 0.0 0.0 0.0
193 2 41.935830534362296 4.105457946983629 0.0 0.0 0.0 0.0
194 2 43.2878808195569 2.9718271839197614 0.0 0.0 0.0 0.0
195 1 44.16581879220833 3.6276898741702293 0.0 0.0 0.0 0.0
196 1 44.39075902530229 3.0023941268672503 0.0 0.0 0.0 0.0
197 2 45.267236714967595 3.6731427627143414 0.0 0.0 0.0 0.0
198 1 46.235936087920486 2.930470771033013 0.0 0.0 0.0 0.0
199 2 47.60491411803573 3.564196792844972 0.0 0.0 0.0 0.0
200 1 48.78829465032209 3.815263882550928 0.0 0.0 0.0 0.0
201 2 0.680428509537454 4.933377002313515 0.0 0.0 0.0 0.0
202 2 1.9982637226984237 4.796375676478476 0.0 0.0 0.0 0.0
203 2 3.220793461119107 4.198803806547414 0.0 0.0 0.0 0.0
204 1 4.2245052495846345 4.546291777914275 0.0 0.0 0.0 0.0
205 1 4.8386458307549685 4.30940677313968 0.0 0.0 0.0 0.0
206 2 5.788297177220676 4.81264344374548 0.0 0.0 0.0 0.0
207 1 6.859508084527324 4.685976700182764 0.0 0.0 0.0 0.0
208 2 7.658389806474608 3.994810140074872 0.0 0.0 0.0 0.0
209 2 8.898080903382091 4.493191312910045 0.0 0.0 0.0 0.0
210 1 9.942608580374573 5.17148653243568 0.0 0.0 0.0 0.0
211 1 10.002799358945436 4.508540390999334 0.0 0.0 0.0 0.0
212 1 11.82338710735751 4.16048938988481 0.0 0.0 0.0 0.0
213 1 12.207932777901648 4.994076564514289 0.0 0.0 0.0 0.0
214 1 13.042679027457092 3.9390124443546437 0.0 0.0 0.0 0.0
215 1 14.450347492499843 4.840542879564074 0.0 0.0 0.0 0.0
216 1 15.267409113005336 3.88925846189827 0.0 0.0 0.0 0.0
217 2 16.174603722021697 4.454065797568052 0.0 0.0 0.0 0.0
218 1 17.27209628394892 4.386115477118764 0.0 0.0 0.0 0.0
219 1 17.80023684471468 3.971493438494481 0.0 0.0 0.0 0.0
220 2 18.92353662900628 3.959851245659517 0.0 0.0 0.0 0.0
221 1 21.052745710971102 4.9805808863271634 0.0 0.0 0.0 0.0
222 1 21.686586455303487 4.801474136361644 0.0 0.0 0.0 0.0
223 2 22.72971212601574 4.607830795506774 0.0 0.0 0.0 0.0
224 1 23.831822666727117 4.487688997328512 0.0 0.0 0.0 0.0
225 1 24.439446824333135 4.741701810115879 0.0 0.0 0.0 0.0
226 2 25.548778351824264 4.559762023995177 0.0 0.0 0.0 0.0
227 1 26.232868057591265 3.6971881892966083 0.0 0.0 0.0 0.0
228 2 26.87083021375771 4.541940895386913 0.0 0.0 0.0 0.0
229 2 28.06326248611096 4.265070599684613 0.0 0.0 0.0 0.0
230 1 29.498539140360943 3.68040283718717 0.0 0.0 0.0 0.0
231 2 30.38872646870705 4.3214456937340415 0.0 0.0 0.0 0.0
232 1 31.744323038185833 4.290452547264982 0.0 0.0 0.0 0.0
233 1 32.16071178966974 4.856545662951712 0.0 0.0 0.0 0.0
234 2 32.92078285579172 4.109170776901968 0.0 0.0 0.0 0.0
235 1 33.98718220336832 3.9292665874667025 0.0 0.0 0.0 0.0
236 1 34.57475575033813 4.26632430815184 0.0 0.0 0.0 0.0
237 1 36.80744672180554 4.097612619704998 0.0 0.0 0.0 0.0
238 1 37.48475894581088 4.040200658025154 0.0 0.0 0.0 0.0
239 2 38.47698181230973 4.565125912585417 0.0 0.0 0.0 0.0
240 1 39.64309678268803 4.671609253257084 0.0 0.0 0.0 0.0
241 1 40.26887251036443 4.385656083063097 0.0 0.0 0.0 0.0
242 1 40.93368938192139 4.552974173323026 0.0 0.0 0.0 0.0
243 1 41.3985304973316 5.05577025093789 0.0 0.0 0.0 0.0
244 1 42.98626501826374 4.017933182945206 0.0 0.0 0.0 0.0
245 1 43.63446776563595 4.035395746804397 0.0 0.0 0.0 0.0
246 2 44.49503876659013 4.666626661488554 0.0 0.0 0.0 0.0
247 1 45.63405656847316 4.711448865432827 0.0 0.0 0.0 0.0
248 2 46.44794722843315 3.9942219390017724 0.0 0.0 0.0 0.0
249 1 47.85788967784353 4.594403515857873 0.0 0.0 0.0 0.0
250 2 48.86255385572349 4.9351824904860955 0.0 0.0 0.0 0.0
251 1 0.6935620114622235 6.023706457099351 0.0 0.0 0.0 0.0
252 1 1.3429982988856417 5.797113571604641 0.0 0.0 0.0 0.0
253 2 2.4144448510601633 5.981030157526732 0.0 0.0 0.0 0.0
254 2 3.5035302606969436 5.402884968317163 0.0 0.0 0.0 0.0
255 2 4.727469063895036 5.493875742549183 0.0 0.0 0.0 0.0
256 1 5.72942797241769 5.912923159116785 0.0 0.0 0.0 0.0
257 2 6.769407296770913 5.7496779573999035 0.0 0.0 0.0 0.0
258 2 7.878696504336086 5.20195502596341 0.0 0.0 0.0 0.0
259 2 9.026588016128052 5.781123324088365 0.0 0.0 0.0 0.0
260 1 10.262534232044635 5.782675658599837 0.0 0.0 0.0 0.0
261 2 11.065908833459801 4.962175252104207 0.0 0.0 0.0 0.0
262 1 11.823465325636642 5.898996486527643 0.0 0.0 0.0 0.0
263 1 12.462418948103815 5.655648220425752 0.0 0.0 0.0 0.0
264 2 13.349250861513573 4.98644728375856 0.0 0.0 0.0 0.0
265 1 14.323520297060007 5.501825090614353 0.0 0.0 0.0 0.0
266 1 15.017750342014962 4.494568634468634 0.0 0.0 0.0 0.0
267 1 16.576883304777617 5.4669108975490825 0.0 0.0 0.0 0.0
268 1 17.097008337690323 5.03642141151366 0.0 0.0 0.0 0.0
269 2 18.194384680946836 4.98880666087987 0.0 0.0 0.0 0.0
270 2 19.410215297282424 5.290541725778602 0.0 0.0 0.0 0.0
271 1 20.501452417162113 5.341858444444524 0.0 0.0 0.0 0.0
272 1 21.09501321365922 5.686300531215638 0.0 0.0 0.0 0.0
273 2 22.219395707832383 5.789042699289333 0.0 0.0 0.0 0.0
274 2 23.484291139195967 5.521454171364558 0.0 0.0 0.0 0.0
275 2 24.672035603041948 5.782171108839441 0.0 0.0 0.0 0.0
276 1 25.758013529220392 5.629367218954641 0.0 0.0 0.0 0.0
277 1 26.401873910467533 5.488390441379928 0.0 0.0 0.0 0.0
278 1 27.05661340245782 5.683666139308893 0.0 0.0 0.0 0.0
279 1 27.637661992440336 5.307739661219099 0.0 0.0 0.0 0.0
280 1 28.308252145328282 5.322241306871893 0.0 0.0 0.0 0.0
281 2 29.214689681439868 4.7216854083655555 0.0 0.0 0.0 0.0
282 2 31.181104729186966 5.249870959302606 0.0 0.0 0.0 0.0
283 1 32.241847377944225 5.7322456007367615 0.0 0.0 0.0 0.0
284 1 32.71220640944242 5.2238591925874625 0.0 0.0 0.0 0.0
285 2 33.79952037078401 5.006642218266425 0.0 0.0 0.0 0.0
286 1 35.22509550907657 4.21913747250587 0.0 0.0 0.0 0.0
287 1 36.24649146626724 4.527225277234214 0.0 0.0 0.0 0.0
288 2 37.21236125280357 5.100111519856703 0.0 0.0 0.0 0.0
289 1 38.79146516574127 5.616626438433537 0.0 0.0 0.0 0.0
290 1 39.33865784407551 5.259567801386391 0.0 0.0 0.0 0.0
291 2 40.39497688005755 5.490992385010476 0.0 0.0 0.0 0.0
292 1 41.58226674890562 5.7094851033820175 0.0 0.0 0.0 0.0
293 1 42.29510100512476 5.852968976004004 0.0 0.0 0.0 0.0
294 1 42.06042932096169 5.2127976471648365 0.0 0.0 0.0 0.0
295 2 43.17010427720672 5.104454065201434 0.0 0.0 0.0 0.0
296 1 44.80956131456285 5.685557664094301 0.0 0.0 0.0 0.0
297 1 45.3701815506191 5.313077700719262 0.0 0.0 0.0 0.0
298 1 47.21864008740172 4.731936011240212 0.0 0.0 0.0 0.0
299 2 47.770629234284904 5.679715246390052 0.0 0.0 0.0 0.0
300 1 0.05262329304308366 5.85701067846238 0.0 0.0 0.0 0.0
301 1 48.81287430200696 6.0407132153699985 0.0 0.0 0.0 0.0
302 2 1.2772952522233254 6.921346593696145 0.0 0.0 0.0 0.0
303 1 2.343795199414563 7.042491511787754 0.0 0.0 0.0 0.0
304 2 3.555712301134046 6.681462697212355 0.0 0.0 0.0 0.0
305 1 4.656444192291789 6.617540265738777 0.0 0.0 0.0 0.0
306 1 5.309281286552952 6.406558678637102 0.0 0.0 0.0 0.0
307 2 6.315710833838132 6.910185775262828 0.0 0.0 0.0 0.0
308 2 7.775875043074411 6.433573416549394 0.0 0.0 0.0 0.0
309 1 9.414718334117731 6.811297557467512 0.0 0.0 0.0 0.0
310 1 9.939004505851926 6.387976728419641 0.0 0.0 0.0 0.0
311 1 10.603946005749421 6.392046485583798 0.0 0.0 0.0 0.0
312 1 11.155170837014166 6.025655040157355 0.0 0.0 0.0 0.0
313 1 12.369849713114315 6.3420122796610165 0.0 0.0 0.0 0.0
314 2 13.462271271528449 6.244085422770862 0.0 0.0 0.0 0.0
315 1 14.589952652738825 6.108509736248598 0.0 0.0 0.0 0.0
316 2 15.46439866424346 5.488592520521029 0.0 0.0 0.0 0.0
317 1 16.382686234658866 6.1049358185168145 0.0 0.0 0.0 0.0
318 2 17.508089055481403 6.05234989453992 0.0 0.0 0.0 0.0
319 1 18.52779351765397 6.720302835755249 0.0 0.0 0.0 0.0
320 1 18.56359079575715 6.007820126872975 0.0 0.0 0.0 0.0
321 2 20.184209587708477 6.376009333884465 0.0 0.0 0.0 0.0
322 1 21.27453114185475 6.359539339469442 0.0 0.0 0.0 0.0
323 2 22.113155054254783 7.077361238617674 0.0 0.0 0.0 0.0
324 1 23.13615842082906 6.586787483116366 0.0 0.0 0.0 0.0
325 1 23.849477220959564 6.51568717012617 0.0 0.0 0.0 0.0
326 1 25.610635056340392 6.273105645327692 0.0 0.0 0.0 0.0
327 1 26.252293943956882 6.127118536982425 0.0 0.0 0.0 0.0
328 1 26.873159097490813 6.353548156723125 0.0 0.0 0.0 0.0
329 2 27.971287173829356 6.348841537997373 0.0 0.0 0.0 0.0
330 2 29.179126151372024 5.995157395901199 0.0 0.0 0.0 0.0
331 1 30.0969114108722 5.40046505417186 0.0 0.0 0.0 0.0
332 2 30.647449248162278 6.3767767426414155 0.0 0.0 0.0 0.0
333 1 31.716084626719155 6.181451230285265 0.0 0.0 0.0 0.0
334 2 33.33085249437211 6.125131812602299 0.0 0.0 0.0 0.0
335 1 34.44604423285533 5.895109453348855 0.0 0.0 0.0 0.0
336 2 35.39594894912586 5.283460901657956 0.0 0.0 0.0 0.0
337 2 36.518787746768915 6.126617552184714 0.0 0.0 0.0 0.0
338 1 37.62446953733734 6.138135020389472 0.0 0.0 0.0 0.0
339 1 38.12744053973445 5.668818607932859 0.0 0.0 0.0 0.0
340 1 39.40259839111688 5.945983147560112 0.0 0.0 0.0 0.0
341 1 39.775730831447724 6.54851891186089 0.0 0.0 0.0 0.0
342 1 41.15665148213191 6.247533560347068 0.0 0.0 0.0 0.0
343 1 41.82914598868196 6.346268871453889 0.0 0.0 0.0 0.0
344 1 42.88609896808663 6.202084091750417 0.0 0.0 0.0 0.0
345 1 43.59810487646722 6.118757498175791 0.0 0.0 0.0 0.0
346 1 44.13092427889673 5.714186036840687 0.0 0.0 0.0 0.0
347 1 45.413993988580934 5.968716180417983 0.0 0.0 0.0 0.0
348 2 46.44895489015283 5.516637892935548 0.0 0.0 0.0 0.0
349 2 47.3466411105017 6.843966900112737 0.0 0.0 0.0 0.0
350 1 48.409507599247775 6.574420222203948 0.0 0.0 0.0 0.0
351 2 0.03385373041547212 6.969067613511053 0.0 0.0 0.0 0.0
352 2 1.8054396271479658 8.03851182583899 0.0 0.0 0.0 0.0
353 1 2.7953143724323115 7.498303949620797 0.0 0.0 0.0 0.0
354 1 4.043147033354285 7.687616547400946 0.0 0.0 0.0 0.0
355 1 4.591695916057614 7.32190587988092 0.0 0.0 0.0 0.0
356 1 5.187211142367267 7.038683673271869 0.0 0.0 0.0 0.0
357 1 6.863159183953199 7.918221275374802 0.0 0.0 0.0 0.0
358 2 7.976949344876288 7.631334787371684 0.0 0.0 0.0 0.0
359 1 8.761360462873267 6.870056304691285 0.0 0.0 0.0 0.0
360 1 9.12871590155016 7.440353024327298 0.0 0.0 0.0 0.0
361 2 10.277870209513894 7.455394299958363 0.0 0.0 0.0 0.0
362 1 11.209959666526414 8.086876206254637 0.0 0.0 0.0 0.0
363 2 11.523106954829316 7.039299867890161 0.0 0.0 0.0 0.0
364 1 12.6626776930936 7.045276713357181 0.0 0.0 0.0 0.0
365 2 14.371394839288014 7.14094658667733 0.0 0.0 0.0 0.0
366 2 15.576474374981789 6.865013495271321 0.0 0.0 0.0 0.0
367 1 16.658441171467352 6.714955035330514 0.0 0.0 0.0 0.0
368 1 17.229632014880767 7.0958531730736025 0.0 0.0 0.0 0.0
369 1 17.921214017353048 7.096592646231573 0.0 0.0 0.0 0.0
370 1 19.111769545915763 6.3373573231370415 0.0 0.0 0.0 0.0
371 1 19.23813061545724 6.969613004837828 0.0 0.0 0.0 0.0
372 2 20.867501044152142 7.420996380318329 0.0 0.0 0.0 0.0
373 1 21.621833963738723 8.209456010263805 0.0 0.0 0.0 0.0
374 2 22.692092803588178 8.167528396791793 0.0 0.0 0.0 0.0
375 2 23.73157795375436 7.564680234134679 0.0 0.0 0.0 0.0
376 2 24.838923173549293 7.039818227782875 0.0 0.0 0.0 0.0
377 2 26.09602019771445 7.2171878018009155 0.0 0.0 0.0 0.0
378 2 27.29558294540288 7.368832952031352 0.0 0.0 0.0 0.0
379 2 28.507328036581587 7.487294465377917 0.0 0.0 0.0 0.0
380 1 29.381914578588468 8.154761840378002 0.0 0.0 0.0 0.0
381 2 29.68467352106125 7.119050316748307 0.0 0.0 0.0 0.0
382 2 31.600588634957184 7.283550955956152 0.0 0.0 0.0 0.0
383 1 32.31125012461459 6.440834034522582 0.0 0.0 0.0 0.0
384 2 32.93928538605719 7.340582562472833 0.0 0.0 0.0 0.0
385 2 34.20745998764488 6.9783440186034476 0.0 0.0 0.0 0.0
386 2 35.34332033843639 6.545097637684099 0.0 0.0 0.0 0.0
387 1 36.210654126577396 7.1892894795142475 0.0 0.0 0.0 0.0
388 2 37.34376881423056 7.229314642069423 0.0 0.0 0.0 0.0
389 2 38.58960141779124 6.671053462420448 0.0 0.0 0.0 0.0
390 1 39.50839651051163 7.2497437859353075 0.0 0.0 0.0 0.0
391 1 40.16698130862607 7.129095698008761 0.0 0.0 0.0 0.0
392 1 40.503580507349845 6.5558541194214595 0.0 0.0 0.0 0.0
393 2 41.287483039231965 7.317358460554518 0.0 0.0 0.0 0.0
394 1 42.385299098653995 6.7306356770331925 0.0 0.0 0.0 0.0
395 2 43.4073551967848 7.178541425629483 0.0 0.0 0.0 0.0
396 2 44.62096386932492 6.736696649760567 0.0 0.0 0.0 0.0
397 1 45.39636743001649 7.597403219778716 0.0 0.0 0.0 0.0
398 2 46.11129188647234 6.773822517505914 0.0 0.0 0.0 0.0
399 1 47.975661661426614 7.77384773789572 0.0 0.0 0.0 0.0
400 1 48.3806124131359 7.246582291428081 0.0 0.0 0.0 0.0
401 2 0.5623393170635808 8.131762952249703 0.0 0.0 0.0 0.0
402 1 2.6319644144579515 8.757216084661442 0.0 0.0 0.0 0.0
403 1 2.8758874596136192 8.152684941768662 0.0 0.0 0.0 0.0
404 1 3.397861637616201 7.7545317961455185 0.0 0.0 0.0 0.0
405 1 4.600592577042504 8.036957469705843 0.0 0.0 0.0 0.0
406 2 5.678984875496845 7.973074993817893 0.0 0.0 0.0 0.0
407 1 6.596085290438683 8.558730428992073 0.0 0.0 0.0 0.0
408 2 7.645419174297939 8.792771715989621 0.0 0.0 0.0 0.0
409 2 8.883355997562504 8.52142527482624 0.0 0.0 0.0 0.0
410 1 9.984907590295794 8.555944325301114 0.0 0.0 0.0 0.0
411 1 10.659395296097555 8.460989443256322 0.0 0.0 0.0 0.0
412 1 11.881671487941544 8.12055276981111 0.0 0.0 0.0 0.0
413 1 12.398133893162372 7.699201997053144 0.0 0.0 0.0 0.0
414 2 13.448920896909375 7.908078191039539 0.0 0.0 0.0 0.0
415 1 14.552387535491006 8.204186884198732 0.0 0.0 0.0 0.0
416 1 15.165929672845348 7.928383042100447 0.0 0.0 0.0 0.0
417 1 16.614274433383866 7.370995627883078 0.0 0.0 0.0 0.0
418 2 17.447288902551385 8.153581239335475 0.0 0.0 0.0 0.0
419 1 18.264302259274725 8.919629715487844 0.0 0.0 0.0 0.0
420 2 18.699798356680542 7.889462667970262 0.0 0.0 0.0 0.0
421 1 19.743028938474392 7.402947186865115 0.0 0.0 0.0 0.0
422 1 19.94763215613809 8.031665612687895 0.0 0.0 0.0 0.0
423 1 21.84229248756693 8.879908749781887 0.0 0.0 0.0 0.0
424 1 23.686835547797823 8.641834395447512 0.0 0.0 0.0 0.0
425 1 24.344137350186998 8.482830851511515 0.0 0.0 0.0 0.0
426 1 25.318755498940373 8.019093508811471 0.0 0.0 0.0 0.0
427 1 25.95006545520233 8.288996093525371 0.0 0.0 0.0 0.0
428 1 26.61329387728973 8.201322348173335 0.0 0.0 0.0 0.0
429 2 27.664993884851594 8.578770450426077 0.0 0.0 0.0 0.0
430 1 28.804926918602487 8.529629186276066 0.0 0.0 0.0 0.0
431 2 30.524171701003866 8.043081225800572 0.0 0.0 0.0 0.0
432 1 31.612903315848023 8.376824176275385 0.0 0.0 0.0 0.0
433 1 32.25850778848114 8.203401173444538 0.0 0.0 0.0 0.0
434 1 32.893513618998654 8.44737394216041 0.0 0.0 0.0 0.0
435 2 33.94266135040554 8.1527663488651 0.0 0.0 0.0 0.0
436 2 35.220137304122275 7.8954895418094315 0.0 0.0 0.0 0.0
437 2 36.46838373076572 8.229932636265582 0.0 0.0 0.0 0.0
438 1 37.52684159346643 8.358967528222816 0.0 0.0 0.0 0.0
439 2 38.50148774689666 7.869882863771928 0.0 0.0 0.0 0.0
440 1 39.5894238424761 7.9179757481221 0.0 0.0 0.0 0.0
441 1 40.019276065898204 8.42342009798112 0.0 0.0 0.0 0.0
442 1 40.26176643045677 7.791910240504146 0.0 0.0 0.0 0.0
443 1 42.13134360573085 8.05762055895066 0.0 0.0 0.0 0.0
444 1 42.368254094267535 7.433386733930377 0.0 0.0 0.0 0.0
445 2 43.21020717751079 8.446614598521741 0.0 0.0 0.0 0.0
446 2 44.373461079564606 7.929811453675201 0.0 0.0 0.0 0.0
447 1 46.008821786340896 7.879600340993334 0.0 0.0 0.0 0.0
448 1 46.66081606615551 7.725328853216025 0.0 0.0 0.0 0.0
449 1 47.29407934309516 7.928920988690342 0.0 0.0 0.0 0.0
450 1 48.687115833610434 7.85740278360098 0.0 0.0 0.0 0.0
451 1 0.6049060788215707 9.329804423508154 0.0 0.0 0.0 0.0
452 2 1.689363466392807 9.312240386397004 0.0 0.0 0.0 0.0
453 1 2.820224403510242 9.379466091177797 0.0 0.0 0.0 0.0
454 2 3.7600965066087437 8.776267496252807 0.0 0.0 0.0 0.0
455 2 4.952659823379165 9.090464098798115 0.0 0.0 0.0 0.0
456 1 6.061715747989131 8.962768507453202 0.0 0.0 0.0 0.0
457 1 6.650520907083054 9.270070663614002 0.0 0.0 0.0 0.0
458 1 7.124022442468394 9.755214392670943 0.0 0.0 0.0 0.0
459 1 8.424235342525153 9.58981758027552 0.0 0.0 0.0 0.0
460 2 9.505002727522502 9.60069155877816 0.0 0.0 0.0 0.0
461 1 10.42571095098623 9.073220455272562 0.0 0.0 0.0 0.0
462 2 11.502175026012758 9.162032142375526 0.0 0.0 0.0 0.0
463 2 12.68989867883715 8.893043370517683 0.0 0.0 0.0 0.0
464 2 13.930099329606701 9.085643730678758 0.0 0.0 0.0 0.0
465 2 15.191949518762073 9.103083735958606 0.0 0.0 0.0 0.0
466 2 16.179942004934844 8.346042904682443 0.0 0.0 0.0 0.0
467 2 16.57483607285582 9.52811951279141 0.0 0.0 0.0 0.0
468 1 17.61838574980462 9.901104953883088 0.0 0.0 0.0 0.0
469 1 17.65131744214348 9.227267283239629 0.0 0.0 0.0 0.0
470 2 19.373585754160782 8.941473306450234 0.0 0.0 0.0 0.0
471 1 20.148998248948203 9.753388049522407 0.0 0.0 0.0 0.0
472 1 20.744827529712314 10.011363674625295 0.0 0.0 0.0 0.0
473 2 20.72443141901255 8.838961312023246 0.0 0.0 0.0 0.0
474 2 22.871788253917423 9.374688375143913 0.0 0.0 0.0 0.0
475 2 24.118531631395975 9.628109116660692 0.0 0.0 0.0 0.0
476 2 25.242011390776682 9.10484332838657 0.0 0.0 0.0 0.0
477 2 26.470544378129286 9.272201444208413 0.0 0.0 0.0 0.0
478 1 27.43963615692031 9.677115938762237 0.0 0.0 0.0 0.0
479 1 28.089876795246816 9.588631659870224 0.0 0.0 0.0 0.0
480 1 28.606078370839004 9.168205562405442 0.0 0.0 0.0 0.0
481 2 29.700692692629474 9.177981538890547 0.0 0.0 0.0 0.0
482 2 30.94095873063126 9.218100010147806 0.0 0.0 0.0 0.0
483 2 32.246008422717665 9.322887176320767 0.0 0.0 0.0 0.0
484 1 33.29749024791888 9.014167250404816 0.0 0.0 0.0 0.0
485 1 33.96672397134008 9.281533893956302 0.0 0.0 0.0 0.0
486 1 34.61017934227616 8.989092779329205 0.0 0.0 0.0 0.0
487 2 35.68074965519158 9.159042598904449 0.0 0.0 0.0 0.0
488 2 36.99188957780963 9.424701730162534 0.0 0.0 0.0 0.0
489 1 37.963232876858996 8.853447456957028 0.0 0.0 0.0 0.0
490 2 39.06508914337279 8.953650725916372 0.0 0.0 0.0 0.0
491 1 40.14398532653674 9.080973533270082 0.0 0.0 0.0 0.0
492 2 41.09738421825083 8.526001856225072 0.0 0.0 0.0 0.0
493 1 41.855553467335014 9.285884709104955 0.0 0.0 0.0 0.0
494 1 42.179380395072016 8.722686337522749 0.0 0.0 0.0 0.0
495 1 44.56239884533014 9.508999662196665 0.0 0.0 0.0 0.0
496 1 44.19457278415639 8.96893569255159 0.0 0.0 0.0 0.0
497 2 45.332267806077624 8.74182940950711 0.0 0.0 0.0 0.0
498 2 46.59469262430099 8.832364203788238 0.0 0.0 0.0 0.0
499 2 47.84352706154193 8.84796909006337 0.0 0.0 0.0 0.0
500 2 49.024817243694805 8.908752568775974 0.0 0.0 0.0 0.0
501 1 0.8042143166263023 9.97687985788403 0.0 0.0 0.0 0.0
502 1 2.010464084166858 10.366109159014234 0.0 0.0 0.0 0.0
503 1 2.5630171902528938 9.983273387539294 0.0 0.0 0.0 0.0
504 2 3.6975975717661975 10.013353450186608 0.0 0.0 0.0 0.0
505 1 4.742781271207099 10.260164731595207 0.0 0.0 0.0 0.0
506 2 5.783985308361852 9.990032521747708 0.0 0.0 0.0 0.0
507 1 6.7765020576634 10.32390029758202 0.0 0.0 0.0 0.0
508 1 7.407794527784502 10.373414735514851 0.0 0.0 0.0 0.0
509 1 7.813980476046008 9.856419294717508 0.0 0.0 0.0 0.0