ITEM: TIMESTEP
1
ITEM: NUMBER OF ATOMS
2500
ITEM: BOX BOUNDS xy xz yz pp pp pp
0.0 49.402249999999995 0.0
0.0 49.402249999999995 0.0
0.0 10.0 0.0
ITEM: ATOMS id type x y z vx vy vz
1 1 0.5263079992440525 0.3550337577579197 0.0 0.0 0.0 0.0
2 2 1.5428805299088117 0.7784714493011611 0.0 0.0 0.0 0.0
3 1 2.6425381699857504 1.1320264019507693 0.0 0.0 0.0 0.0
4 1 3.29660316296266 0.890868757564911 0.0 0.0 0.0 0.0
5 2 4.425836261698218 0.8552335825933965 0.0 0.0 0.0 0.0
6 2 5.509867641279631 0.2510477936162756 0.0 0.0 0.0 0.0
7 1 6.453227699227162 0.7437683568651904 0.0 0.0 0.0 0.0
8 2 7.502545110538913 0.5149539091230568 0.0 0.0 0.0 0.0
9 2 8.643646241512647 0.09980581908557172 0.0 0.0 0.0 0.0
10 2 9.607453258396506 1.5402038887131437 0.0 0.0 0.0 0.0
11 2 10.644836080560479 0.7764608132888705 0.0 0.0 0.0 0.0
12 1 11.672870262092474 1.1779644883507705 0.0 0.0 0.0 0.0
13 2 12.715642292238567 0.8732342110425879 0.0 0.0 0.0 0.0
14 1 13.787374763902248 0.6286070420222523 0.0 0.0 0.0 0.0
15 1 14.294697413925999 1.0736567917016338 0.0 0.0 0.0 0.0
16 1 15.011563968792766 1.2230840456027592 0.0 0.0 0.0 0.0
17 2 15.983363849097394 0.5960763865038688 0.0 0.0 0.0 0.0
18 1 17.096063716453255 0.6535900634780237 0.0 0.0 0.0 0.0
19 2 18.205651627077785 0.7512241726348813 0.0 0.0 0.0 0.0
20 1 19.306776762195245 0.7071280827799441 0.0 0.0 0.0 0.0
21 1 19.82792623735306 0.2881178970397967 0.0 0.0 0.0 0.0
22 2 20.881648555566 49.39679829959959 0.0 0.0 0.0 0.0
23 2 22.27350255105191 0.14183080116338387 0.0 0.0 0.0 0.0
24 1 23.393868868909014 0.16908750154186214 0.0 0.0 0.0 0.0
25 1 23.961822785186172 49.17476260514459 0.0 0.0 0.0 0.0
26 1 25.35681521305721 0.8913639675541958 0.0 0.0 0.0 0.0
27 2 26.45074570394184 0.6175855409182835 0.0 0.0 0.0 0.0
28 1 27.314670335420523 49.32319419549315 0.0 0.0 0.0 0.0
29 1 27.887060556782203 0.3363700556575285 0.0 0.0 0.0 0.0
30 2 29.90451685075819 0.8557615839371486 0.0 0.0 0.0 0.0
31 2 31.16674968855785 0.8947781998220417 0.0 0.0 0.0 0.0
32 1 32.22742495117486 0.8262562192720567 0.0 0.0 0.0 0.0
33 1 32.84943208043815 1.071225334841539 0.0 0.0 0.0 0.0
34 1 33.52849311476209 0.9539404368362017 0.0 0.0 0.0 0.0
35 2 34.70923186585563 1.123451659684048 0.0 0.0 0.0 0.0
36 1 35.66821766775433 0.46790056429613913 0.0 0.0 0.0 0.0
37 2 36.73566436308847 0.20218545484082168 0.0 0.0 0.0 0.0
38 2 37.9518052781998 49.36009103911183 0.0 0.0 0.0 0.0
39 1 39.03087883229029 0.30126479739385487 0.0 0.0 0.0 0.0
40 1 39.70436472958757 0.31316120776736306 0.0 0.0 0.0 0.0
41 1 40.30310061748548 49.315520405617804 0.0 0.0 0.0 0.0
42 2 41.500262413018575 0.020551447607036106 0.0 0.0 0.0 0.0
43 1 42.70497760374374 49.384969246276306 0.0 0.0 0.0 0.0
44 2 43.5789088175741 0.6630747212806715 0.0 0.0 0.0 0.0
45 1 44.66186389335504 0.8084741738706677 0.0 0.0 0.0 0.0
46 1 45.302728862772796 0.49666896893018825 0.0 0.0 0.0 0.0
47 1 45.96959776418503 0.7860654349489232 0.0 0.0 0.0 0.0
48 1 47.68670243925118 1.3495312971032334 0.0 0.0 0.0 0.0
49 1 48.12661683938855 0.8742658783784761 0.0 0.0 0.0 0.0
50 1 49.198841883367486 0.14800786591042328 0.0 0.0 0.0 0.0
51 1 0.017223081096836283 0.7904522143662772 0.0 0.0 0.0 0.0
52 2 0.6720926415237704 1.663486503824996 0.0 0.0 0.0 0.0
53 2 1.9001465854862996 1.9502996822983347 0.0 0.0 0.0 0.0
54 2 3.17719688930966 2.109436882094972 0.0 0.0 0.0 0.0
55 2 4.5190245145420125 2.0560496140374336 0.0 0.0 0.0 0.0
56 2 5.645988120309404 1.4877280965050106 0.0 0.0 0.0 0.0
57 1 6.743335956741857 1.3327170270073514 0.0 0.0 0.0 0.0
58 1 7.344789461510213 1.6116726429769022 0.0 0.0 0.0 0.0
59 2 8.41137019002495 1.389339216069615 0.0 0.0 0.0 0.0
60 1 8.933470505563925 2.4247003725007965 0.0 0.0 0.0 0.0
61 1 10.613031890692456 1.8862653210386267 0.0 0.0 0.0 0.0
62 1 11.25049715433988 1.6880780498145453 0.0 0.0 0.0 0.0
63 2 12.2681543997763 2.1120653285056625 0.0 0.0 0.0 0.0
64 2 13.473055878390662 1.798224189240004 0.0 0.0 0.0 0.0
65 1 14.524954295216437 1.6883426024071737 0.0 0.0 0.0 0.0
66 1 15.066739402884107 2.0284126474384334 0.0 0.0 0.0 0.0
67 1 15.578807442420684 1.5970681234286614 0.0 0.0 0.0 0.0
68 2 16.7010162861194 1.6614866237870045 0.0 0.0 0.0 0.0
69 1 17.798522852746476 1.7788857566040954 0.0 0.0 0.0 0.0
70 2 18.998565949556948 1.7521993533786582 0.0 0.0 0.0 0.0
71 2 20.217509572131007 1.340600906062156 0.0 0.0 0.0 0.0
72 2 21.473290506641646 1.132090954236792 0.0 0.0 0.0 0.0
73 1 22.61315925769614 1.1592207365352507 0.0 0.0 0.0 0.0
74 1 23.172712171213018 0.803313965645994 0.0 0.0 0.0 0.0
75 2 24.2683948843882 0.8168329608653865 0.0 0.0 0.0 0.0
76 1 25.73517167335671 1.4366980911367453 0.0 0.0 0.0 0.0
77 1 26.375038760964348 1.7208440428021496 0.0 0.0 0.0 0.0
78 1 27.510007511012034 0.8780291718412297 0.0 0.0 0.0 0.0
79 2 28.56759267812394 1.2392250106234755 0.0 0.0 0.0 0.0
80 1 29.487739325083645 1.8772320578139683 0.0 0.0 0.0 0.0
81 2 30.57382004369996 1.9432908989573634 0.0 0.0 0.0 0.0
82 1 31.685504995737283 1.8378905959444365 0.0 0.0 0.0 0.0
83 1 32.29179427705016 1.503755701298849 0.0 0.0 0.0 0.0
84 2 33.33269014517681 2.0408832696670727 0.0 0.0 0.0 0.0
85 1 34.4440993081772 2.1869907422873998 0.0 0.0 0.0 0.0
86 1 35.12406976587696 2.183255106720306 0.0 0.0 0.0 0.0
87 2 35.9818741395778 1.5146285130446429 0.0 0.0 0.0 0.0
88 2 37.23349173607626 1.310529018189283 0.0 0.0 0.0 0.0
89 1 38.59865899461622 0.8183033492458595 0.0 0.0 0.0 0.0
90 2 39.49243415386825 1.4614665177526498 0.0 0.0 0.0 0.0
91 2 40.582387882634585 0.9419169640285894 0.0 0.0 0.0 0.0
92 2 41.69663651330512 1.3318603858619613 0.0 0.0 0.0 0.0
93 1 42.4826297162863 0.6061434996904528 0.0 0.0 0.0 0.0
94 2 42.86694590419159 1.6833913254561197 0.0 0.0 0.0 0.0
95 2 44.105703185687204 1.8525103495746622 0.0 0.0 0.0 0.0
96 2 45.33586205253054 1.642720668066347 0.0 0.0 0.0 0.0
97 2 46.64732781014515 1.668875362874539 0.0 0.0 0.0 0.0
98 1 47.764299742033344 1.9956896708552605 0.0 0.0 0.0 0.0
99 2 48.82002788144451 1.728649915800564 0.0 0.0 0.0 0.0
100 1 0.10711877195915065 2.6030159450734445 0.0 0.0 0.0 0.0
101 2 1.172777670476876 3.0302020501410465 0.0 0.0 0.0 0.0
102 1 2.3170007641660884 2.930568239841338 0.0 0.0 0.0 0.0
103 1 2.9082559462376945 3.224095912899646 0.0 0.0 0.0 0.0
104 2 3.9804233984106703 3.1349317720365923 0.0 0.0 0.0 0.0
105 1 5.059795414781921 3.0147344086158916 0.0 0.0 0.0 0.0
106 1 5.521615729247045 2.560597519068399 0.0 0.0 0.0 0.0
107 2 6.5891523356294455 2.4135491814670784 0.0 0.0 0.0 0.0
108 1 7.670733583218731 2.196296982551874 0.0 0.0 0.0 0.0
109 1 8.272896927752189 2.5011633344414475 0.0 0.0 0.0 0.0
110 1 8.654216288730918 3.078513993932233 0.0 0.0 0.0 0.0
111 2 9.961895908138228 2.8242996860013045 0.0 0.0 0.0 0.0
112 2 11.209900871955307 2.771299883049208 0.0 0.0 0.0 0.0
113 1 13.112801729809926 2.820584898129458 0.0 0.0 0.0 0.0
114 1 13.310163250239249 3.452116516759036 0.0 0.0 0.0 0.0
115 2 14.237892231665251 2.7849857886184437 0.0 0.0 0.0 0.0
116 1 15.11843825043615 3.4262619893671706 0.0 0.0 0.0 0.0
117 2 15.935950334082488 2.6282482498362727 0.0 0.0 0.0 0.0
118 2 17.179546387934717 2.8470281915082367 0.0 0.0 0.0 0.0
119 1 18.12014413294691 2.358744229448012 0.0 0.0 0.0 0.0
120 1 18.586518220835398 2.824671551788504 0.0 0.0 0.0 0.0
121 2 19.71230538285442 2.792815345308792 0.0 0.0 0.0 0.0
122 2 20.959008636966857 2.4610308184491982 0.0 0.0 0.0 0.0
123 2 22.201461542796906 2.1384615430515566 0.0 0.0 0.0 0.0
124 2 23.460845323590004 1.8816733232361795 0.0 0.0 0.0 0.0
125 2 24.737216945152348 1.937689831529647 0.0 0.0 0.0 0.0
126 1 25.80545844528605 2.0869062195290584 0.0 0.0 0.0 0.0
127 2 26.575224456389044 2.818136780382551 0.0 0.0 0.0 0.0
128 2 27.47280483800678 1.96387172674047 0.0 0.0 0.0 0.0
129 2 28.617982953181023 2.5208533735957928 0.0 0.0 0.0 0.0
130 1 29.685367033295574 2.5589488608026243 0.0 0.0 0.0 0.0
131 1 30.201342523774688 2.983654336234426 0.0 0.0 0.0 0.0
132 2 31.33599481227159 2.8820241539933664 0.0 0.0 0.0 0.0
133 1 32.242365872084626 2.1903113722923444 0.0 0.0 0.0 0.0
134 1 33.57330036527648 3.090914722653178 0.0 0.0 0.0 0.0
135 1 34.15298538199639 2.7930285663587613 0.0 0.0 0.0 0.0
136 1 34.80541212796682 2.774379497017874 0.0 0.0 0.0 0.0
137 1 36.68565313535118 2.3625462852845613 0.0 0.0 0.0 0.0
138 1 37.34813144683196 2.3898653737741493 0.0 0.0 0.0 0.0
139 2 38.325515134208075 1.8600161208681678 0.0 0.0 0.0 0.0
140 1 39.19540084345807 2.5361633331521714 0.0 0.0 0.0 0.0
141 1 39.79686653201732 2.83150588051051 0.0 0.0 0.0 0.0
142 2 40.67917162097834 2.2131002697978173 0.0 0.0 0.0 0.0
143 2 41.89395154203065 2.532872907464551 0.0 0.0 0.0 0.0
144 2 43.23412119963031 2.894335569426498 0.0 0.0 0.0 0.0
145 1 44.31958211975313 2.983886535042262 0.0 0.0 0.0 0.0
146 1 44.87344360016136 2.6386625968596995 0.0 0.0 0.0 0.0
147 2 45.94238508204477 2.6943337072209146 0.0 0.0 0.0 0.0
148 2 47.145323316103024 2.855296877958446 0.0 0.0 0.0 0.0
149 1 48.3319047431933 3.9761879882773763 0.0 0.0 0.0 0.0
150 2 48.40974577492015 2.90454963821405 0.0 0.0 0.0 0.0
151 2 0.023631885272540697 3.6883649108886294 0.0 0.0 0.0 0.0
152 1 1.0269502415814749 4.146433794332873 0.0 0.0 0.0 0.0
153 2 2.1216912051558054 4.0038731621516375 0.0 0.0 0.0 0.0
154 2 3.4322742215540636 4.220216969760044 0.0 0.0 0.0 0.0
155 2 4.847536766954491 4.061898650325068 0.0 0.0 0.0 0.0
156 2 6.031991795540429 3.5632193147531654 0.0 0.0 0.0 0.0
157 2 7.496560799584837 3.275100619237716 0.0 0.0 0.0 0.0
158 2 8.307797372378772 4.200726441718708 0.0 0.0 0.0 0.0
159 1 9.341250254276057 4.609854825216101 0.0 0.0 0.0 0.0
160 1 9.162532876460247 3.5469519131734955 0.0 0.0 0.0 0.0
161 1 9.704972056088765 3.9684043722463604 0.0 0.0 0.0 0.0
162 2 10.872620873209279 3.934420715958461 0.0 0.0 0.0 0.0
163 2 12.205763382461118 3.4551706499049373 0.0 0.0 0.0 0.0
164 1 13.082137318300504 4.099049473446672 0.0 0.0 0.0 0.0
165 2 14.183062091329885 4.085711429468419 0.0 0.0 0.0 0.0
166 1 15.244565018612597 4.092449977983508 0.0 0.0 0.0 0.0
167 1 15.742191491389827 3.6734059891213646 0.0 0.0 0.0 0.0
168 1 16.397957388912555 3.601356075138632 0.0 0.0 0.0 0.0
169 1 18.14142477176877 3.3883234872662564 0.0 0.0 0.0 0.0
170 1 18.803815859951243 3.4477531039625275 0.0 0.0 0.0 0.0
171 2 19.67693030948273 4.066383604518255 0.0 0.0 0.0 0.0
172 2 20.899127396678356 3.8811451311420964 0.0 0.0 0.0 0.0
173 2 21.97806629518093 3.318411529716401 0.0 0.0 0.0 0.0
174 1 22.98780435330228 2.9092105215218513 0.0 0.0 0.0 0.0
175 2 24.056919148925044 3.048607522736406 0.0 0.0 0.0 0.0
176 2 25.30197176561983 3.0604614100238425 0.0 0.0 0.0 0.0
177 1 26.726145000794705 3.866639298689451 0.0 0.0 0.0 0.0
178 2 27.739746976083016 3.3416620083343136 0.0 0.0 0.0 0.0
179 1 28.939987326134517 3.579845969147808 0.0 0.0 0.0 0.0
180 1 29.55585888592083 3.2524661708719327 0.0 0.0 0.0 0.0
181 1 30.424457075418385 3.6064303559464945 0.0 0.0 0.0 0.0
182 1 31.02265638171451 3.8968169342815817 0.0 0.0 0.0 0.0
183 2 32.51877539837224 3.2403116332024036 0.0 0.0 0.0 0.0
184 1 33.49171133915012 3.741949917943523 0.0 0.0 0.0 0.0
185 1 34.119221718297176 3.4767348811799934 0.0 0.0 0.0 0.0
186 1 34.784514584798266 3.4601019390030756 0.0 0.0 0.0 0.0
187 2 35.83675994622927 3.0797485980294534 0.0 0.0 0.0 0.0
188 2 37.05366908674647 3.4528747199935963 0.0 0.0 0.0 0.0
189 2 38.199757856566755 3.058111598774339 0.0 0.0 0.0 0.0
190 1 39.252428023624326 3.219850031752809 0.0 0.0 0.0 0.0
191 2 40.07127134380299 3.9166337116156758 0.0 0.0 0.0 0.0
192 1 41.023201733262304 3.307203623718691 0.0 0.0 0.0 0.0
193 1 41.64264442816131 3.594519581207966 0.0 0.0 0.0 0.0
194 1 42.3293053704021 3.501567206137181 0.0 0.0 0.0 0.0
195 1 44.104779974484664 3.614595718857335 0.0 0.0 0.0 0.0
196 2 45.21936771815319 3.7143013070783275 0.0 0.0 0.0 0.0
197 1 46.35025451994234 3.680521168476763 0.0 0.0 0.0 0.0
198 1 46.98102540826795 3.903076199919926 0.0 0.0 0.0 0.0
199 1 47.68601291664958 3.804697491869284 0.0 0.0 0.0 0.0
200 1 48.71633656603883 4.509806725682609 0.0 0.0 0.0 0.0
201 1 0.573321469592707 4.659874502854495 0.0 0.0 0.0 0.0
202 2 1.5543174454372686 5.1288295495388185 0.0 0.0 0.0 0.0
203 1 2.643752805740608 4.975388746193024 0.0 0.0 0.0 0.0
204 1 3.2416571020066174 5.29222505559761 0.0 0.0 0.0 0.0
205 2 4.339547092429022 5.156786522072034 0.0 0.0 0.0 0.0
206 2 5.785940690991881 4.929336345883411 0.0 0.0 0.0 0.0
207 2 6.959143590962975 4.423013053253078 0.0 0.0 0.0 0.0
208 2 7.766814831902286 5.357834605526168 0.0 0.0 0.0 0.0
209 1 8.875344186704522 5.133566402693819 0.0 0.0 0.0 0.0
210 2 9.851580158498058 5.644957633315594 0.0 0.0 0.0 0.0
211 1 10.012519750146344 4.576719427759026 0.0 0.0 0.0 0.0
212 2 10.981767437472067 5.188635928432284 0.0 0.0 0.0 0.0
213 1 11.846142721368555 4.496819987176535 0.0 0.0 0.0 0.0
214 1 12.533219526247391 4.514688634945238 0.0 0.0 0.0 0.0
215 2 13.465674267160802 5.123604659429827 0.0 0.0 0.0 0.0
216 2 14.960358421208085 5.140356173503405 0.0 0.0 0.0 0.0
217 2 16.167093689070533 4.664328731102317 0.0 0.0 0.0 0.0
218 2 17.315988401778068 4.151507563267339 0.0 0.0 0.0 0.0
219 2 18.46448525873626 4.499517103673789 0.0 0.0 0.0 0.0
220 1 19.345440875435898 5.099925605541618 0.0 0.0 0.0 0.0
221 2 20.414516875784823 5.080605528918184 0.0 0.0 0.0 0.0
222 1 21.475865553875387 4.82871622989948 0.0 0.0 0.0 0.0
223 1 21.96496751083831 4.386103347133702 0.0 0.0 0.0 0.0
224 2 23.042514265528133 4.046321641138989 0.0 0.0 0.0 0.0
225 2 24.333176643134077 4.279917396979179 0.0 0.0 0.0 0.0
226 1 25.461791804901704 4.150310918254725 0.0 0.0 0.0 0.0
227 1 26.062511497148893 3.827708202742907 0.0 0.0 0.0 0.0
228 2 27.55172931537044 4.529462009343817 0.0 0.0 0.0 0.0
229 1 28.589332094479868 4.152869400498899 0.0 0.0 0.0 0.0
230 2 29.705025906133223 4.446094454924934 0.0 0.0 0.0 0.0
231 1 30.603637537493714 5.109890260788935 0.0 0.0 0.0 0.0
232 1 30.897526630841227 4.5321913791376875 0.0 0.0 0.0 0.0
233 2 32.019405584617 4.3575437982765015 0.0 0.0 0.0 0.0
234 1 33.096087852676305 4.2685506129216755 0.0 0.0 0.0 0.0
235 2 34.16912253853212 4.582890791968147 0.0 0.0 0.0 0.0
236 1 35.154625181592976 4.016788207223807 0.0 0.0 0.0 0.0
237 2 36.20652162598999 4.335767980578238 0.0 0.0 0.0 0.0
238 2 37.395331731768714 4.744416319351813 0.0 0.0 0.0 0.0
239 1 38.30540243970765 4.129944504980039 0.0 0.0 0.0 0.0
240 1 38.95538415705498 3.851709862582818 0.0 0.0 0.0 0.0
241 1 40.12392950051269 5.024750658496372 0.0 0.0 0.0 0.0
242 2 41.117758007335674 4.560666601239011 0.0 0.0 0.0 0.0
243 1 42.08656236792599 4.105777976147298 0.0 0.0 0.0 0.0
244 2 43.17091838055679 4.191091720189132 0.0 0.0 0.0 0.0
245 1 44.0030083450829 4.886814786309678 0.0 0.0 0.0 0.0
246 1 44.27024213023363 4.269437700305323 0.0 0.0 0.0 0.0
247 2 46.310917685277225 4.760241195652432 0.0 0.0 0.0 0.0
248 1 47.394267350211884 4.4051092669603324 0.0 0.0 0.0 0.0
249 1 48.035130224123236 4.5795295117698 0.0 0.0 0.0 0.0
250 1 49.32290948710881 4.796978147318738 0.0 0.0 0.0 0.0
251 2 0.38434385882813427 5.7981334269212805 0.0 0.0 0.0 0.0
252 1 1.3939486701114299 6.191389444393475 0.0 0.0 0.0 0.0
253 2 2.460025498785624 6.054713224118397 0.0 0.0 0.0 0.0
254 1 3.5398698002764495 5.893969217249974 0.0 0.0 0.0 0.0
255 1 4.116648020517324 6.230543613176994 0.0 0.0 0.0 0.0
256 2 5.205698345186067 6.062456914968792 0.0 0.0 0.0 0.0
257 2 6.595595005873272 6.020915036665959 0.0 0.0 0.0 0.0
258 1 8.76549999300406 5.803024652933457 0.0 0.0 0.0 0.0
259 1 9.074455605006907 6.405990184251677 0.0 0.0 0.0 0.0
260 1 9.721111968587874 6.714845179148664 0.0 0.0 0.0 0.0
261 2 10.858224788098795 6.775969804815165 0.0 0.0 0.0 0.0
262 1 12.008011479120634 6.671624583923351 0.0 0.0 0.0 0.0
263 2 12.168962720869299 5.562477904398678 0.0 0.0 0.0 0.0
264 2 13.128467249003164 6.3259151702354846 0.0 0.0 0.0 0.0
265 1 14.190207327840051 5.950310387438034 0.0 0.0 0.0 0.0
266 1 15.477726501541337 6.124649999334706 0.0 0.0 0.0 0.0
267 1 15.985775528122979 5.708605584759123 0.0 0.0 0.0 0.0
268 2 17.097205947395462 5.482677005717111 0.0 0.0 0.0 0.0
269 1 18.193581457023637 5.615285958422739 0.0 0.0 0.0 0.0
270 1 18.855584379435108 5.547217305923512 0.0 0.0 0.0 0.0
271 1 19.512966703683627 5.734867204828598 0.0 0.0 0.0 0.0
272 2 21.30070606400488 5.909897224080351 0.0 0.0 0.0 0.0
273 2 22.454966282859676 5.361140353674488 0.0 0.0 0.0 0.0
274 1 23.5124035748784 5.056912760991736 0.0 0.0 0.0 0.0
275 1 24.097786993154113 5.379509477226398 0.0 0.0 0.0 0.0
276 2 25.17274002795609 5.205813054538146 0.0 0.0 0.0 0.0
277 2 26.332080572712787 4.886856774955089 0.0 0.0 0.0 0.0
278 2 27.237405898530128 5.698306393934125 0.0 0.0 0.0 0.0
279 2 28.48730932333929 5.272025190311722 0.0 0.0 0.0 0.0
280 1 29.478999600175136 5.595523443856043 0.0 0.0 0.0 0.0
281 1 30.11200401520081 5.525576478864749 0.0 0.0 0.0 0.0
282 1 31.267471659174735 5.111337563781315 0.0 0.0 0.0 0.0
283 1 31.862829229122642 5.448515100514326 0.0 0.0 0.0 0.0
284 2 32.98950684059469 5.365567558890285 0.0 0.0 0.0 0.0
285 2 34.33200709709804 5.936218692637866 0.0 0.0 0.0 0.0
286 2 35.27697819812681 5.119931384859806 0.0 0.0 0.0 0.0
287 2 36.437077417828746 5.654434861759386 0.0 0.0 0.0 0.0
288 1 37.514401050365606 5.861729612041494 0.0 0.0 0.0 0.0
289 1 38.11963342524666 5.562935093792867 0.0 0.0 0.0 0.0
290 2 39.020803363824875 4.952653575408896 0.0 0.0 0.0 0.0
291 1 39.84789460618971 5.640090751244753 0.0 0.0 0.0 0.0
292 2 40.937749673761644 5.7919078927623735 0.0 0.0 0.0 0.0
293 1 42.21123078164238 4.7543593648520215 0.0 0.0 0.0 0.0
294 2 43.037201420347564 5.463021758257157 0.0 0.0 0.0 0.0
295 1 44.13125912656988 5.534938925769426 0.0 0.0 0.0 0.0
296 2 45.105233471590545 4.996331637828596 0.0 0.0 0.0 0.0
297 2 46.17981885071148 6.024772568114352 0.0 0.0 0.0 0.0
298 2 47.31885914424724 5.4649756246336265 0.0 0.0 0.0 0.0
299 1 47.82899950112661 6.43569952508239 0.0 0.0 0.0 0.0
300 2 48.53099214748842 5.562687859022212 0.0 0.0 0.0 0.0
301 1 1.0121026332828091 6.722779524388957 0.0 0.0 0.0 0.0
302 1 1.678327421508865 6.796392768916983 0.0 0.0 0.0 0.0
303 1 2.224909479142269 7.183851009095108 0.0 0.0 0.0 0.0
304 2 3.2892718205778593 6.959777529963388 0.0 0.0 0.0 0.0
305 2 4.550713813587414 7.2286545628694485 0.0 0.0 0.0 0.0
306 2 5.560371453441467 7.9457240343916125 0.0 0.0 0.0 0.0
307 1 5.880266900743946 6.902304357386143 0.0 0.0 0.0 0.0
308 2 7.976813440818432 6.579389627718327 0.0 0.0 0.0 0.0
309 1 9.145992088379472 7.064392803344939 0.0 0.0 0.0 0.0
310 1 9.834191927840573 7.373430879296557 0.0 0.0 0.0 0.0
311 1 10.384941634589632 7.753495314623636 0.0 0.0 0.0 0.0
312 1 11.815228573648488 7.343261197253763 0.0 0.0 0.0 0.0
313 1 12.462353833789004 7.1873040383133695 0.0 0.0 0.0 0.0
314 1 13.09649715764226 7.41917673468438 0.0 0.0 0.0 0.0
315 2 14.125544776584869 7.053841757554734 0.0 0.0 0.0 0.0
316 1 14.814504648280188 6.2201310949630715 0.0 0.0 0.0 0.0
317 2 15.344679287244858 7.199329586399726 0.0 0.0 0.0 0.0
318 2 16.46779730274874 6.677203597319464 0.0 0.0 0.0 0.0
319 2 17.682575818453145 6.597757133110386 0.0 0.0 0.0 0.0
320 2 18.885183981886993 6.6390480104384055 0.0 0.0 0.0 0.0
321 2 20.153540156450244 6.602713321427738 0.0 0.0 0.0 0.0
322 1 21.177070997954235 6.977184996641196 0.0 0.0 0.0 0.0
323 2 22.25884544118948 6.697616551975669 0.0 0.0 0.0 0.0
324 2 23.373366179870324 6.206497594478466 0.0 0.0 0.0 0.0
325 1 24.423996852342285 5.979414852436639 0.0 0.0 0.0 0.0
326 2 25.416854708676006 6.441197362644282 0.0 0.0 0.0 0.0
327 1 26.484254047617966 6.450161048643213 0.0 0.0 0.0 0.0
328 1 27.058888870298265 6.805626044495134 0.0 0.0 0.0 0.0
329 2 28.137782654567154 6.47692841676529 0.0 0.0 0.0 0.0
330 1 29.187382549974767 6.196151271045415 0.0 0.0 0.0 0.0
331 1 29.858520948971186 6.158444105718004 0.0 0.0 0.0 0.0
332 2 30.986541407212155 6.149675991985939 0.0 0.0 0.0 0.0
333 1 32.08169315093726 6.082942117059014 0.0 0.0 0.0 0.0
334 1 33.34586513084336 6.439004097706763 0.0 0.0 0.0 0.0
335 1 33.85849995527867 6.923728119978983 0.0 0.0 0.0 0.0
336 1 35.44977928650193 6.186095393711133 0.0 0.0 0.0 0.0
337 1 35.9395652370442 6.654463581348378 0.0 0.0 0.0 0.0
338 1 37.2068929454743 6.473137062035239 0.0 0.0 0.0 0.0
339 2 38.30843009039348 6.635730523995578 0.0 0.0 0.0 0.0
340 1 39.298589705681614 6.070994968869124 0.0 0.0 0.0 0.0
341 1 39.95796900735321 6.288969500804708 0.0 0.0 0.0 0.0
342 1 41.077777306858465 6.857841795514156 0.0 0.0 0.0 0.0
343 1 41.93229836093056 5.355751817004029 0.0 0.0 0.0 0.0
344 2 43.679576924310574 6.535729491728939 0.0 0.0 0.0 0.0
345 1 44.6269163019073 5.973119044849382 0.0 0.0 0.0 0.0
346 2 45.24992673496082 6.838117623283008 0.0 0.0 0.0 0.0
347 2 46.50267784480274 7.3628233594758745 0.0 0.0 0.0 0.0
348 1 47.17326695878301 6.532212619147223 0.0 0.0 0.0 0.0
349 1 47.59368833505977 7.076296541701112 0.0 0.0 0.0 0.0
350 2 48.86856400363342 6.713318638455236 0.0 0.0 0.0 0.0
351 1 0.47060072674535136 7.078877591150792 0.0 0.0 0.0 0.0
352 2 1.2954092444630092 7.806819045686884 0.0 0.0 0.0 0.0
353 1 2.4030016517961017 7.84106430199546 0.0 0.0 0.0 0.0
354 2 3.4438269106627484 8.152114980179851 0.0 0.0 0.0 0.0
355 1 4.547450931962157 8.33590430170775 0.0 0.0 0.0 0.0
356 1 5.568257372168964 9.034457398887298 0.0 0.0 0.0 0.0
357 2 6.8866733790692685 7.331174908271459 0.0 0.0 0.0 0.0
358 1 7.945757765376166 7.662441506880725 0.0 0.0 0.0 0.0
359 1 8.610443005111588 7.46874355753332 0.0 0.0 0.0 0.0
360 1 9.260978320829421 7.717494856557008 0.0 0.0 0.0 0.0
361 1 10.830847679846185 8.24656307698648 0.0 0.0 0.0 0.0
362 1 11.38769714468347 7.865265873361705 0.0 0.0 0.0 0.0
363 2 12.462744684581315 8.30255516284155 0.0 0.0 0.0 0.0
364 1 13.51108647738735 7.953945859901154 0.0 0.0 0.0 0.0
365 1 14.170509129645405 8.135305146916059 0.0 0.0 0.0 0.0
366 2 15.277393688178236 8.40864438149074 0.0 0.0 0.0 0.0
367 2 16.435185074443023 7.935445859820905 0.0 0.0 0.0 0.0
368 1 17.51230524984509 7.681282038491353 0.0 0.0 0.0 0.0
369 1 18.189748511317603 7.586526770584713 0.0 0.0 0.0 0.0
370 1 19.503332315833813 7.529214177762508 0.0 0.0 0.0 0.0
371 1 20.14217051025465 7.725165186165834 0.0 0.0 0.0 0.0
372 1 20.77374830851849 7.513720073807832 0.0 0.0 0.0 0.0
373 2 21.814278017032063 7.83823875847434 0.0 0.0 0.0 0.0
374 2 23.13693698618127 7.752236325191614 0.0 0.0 0.0 0.0
375 2 24.294694943536477 7.072580229882463 0.0 0.0 0.0 0.0
376 2 25.487818536040518 7.675889157347265 0.0 0.0 0.0 0.0
377 1 26.440953832014372 7.114690949225216 0.0 0.0 0.0 0.0
378 1 26.650175517023264 7.758703944721708 0.0 0.0 0.0 0.0
379 2 27.774384676613195 7.641061100531804 0.0 0.0 0.0 0.0
380 2 29.041232416903977 7.2903843154011065 0.0 0.0 0.0 0.0
381 2 30.284946337801724 7.159111416120139 0.0 0.0 0.0 0.0
382 2 31.69150691944869 7.152595757243532 0.0 0.0 0.0 0.0
383 1 32.65416233936672 6.409902764228392 0.0 0.0 0.0 0.0
384 2 32.89397335604124 7.450490608906449 0.0 0.0 0.0 0.0
385 1 33.9851103081824 7.594870107806793 0.0 0.0 0.0 0.0
386 2 34.966909468713084 7.158552915235353 0.0 0.0 0.0 0.0
387 1 36.59724831534632 6.77213145795016 0.0 0.0 0.0 0.0
388 2 37.32978114774936 7.592252246547283 0.0 0.0 0.0 0.0
389 1 38.41950129839976 7.724014139902671 0.0 0.0 0.0 0.0
390 2 39.41633812923095 7.214834541252769 0.0 0.0 0.0 0.0
391 1 40.418588725674105 6.788187077448158 0.0 0.0 0.0 0.0
392 1 40.674085739867046 7.425493752229814 0.0 0.0 0.0 0.0
393 2 42.14483382347924 6.440583967443648 0.0 0.0 0.0 0.0
394 2 43.00589876388244 7.581021642258221 0.0 0.0 0.0 0.0
395 2 44.26746025939987 7.65533894272609 0.0 0.0 0.0 0.0
396 2 45.49365673695486 8.022267346410864 0.0 0.0 0.0 0.0
397 1 47.05993504285983 8.297152382591454 0.0 0.0 0.0 0.0
398 1 47.514968941106055 7.787062517419779 0.0 0.0 0.0 0.0
399 1 48.12156494148576 7.493408749455028 0.0 0.0 0.0 0.0
400 2 49.16107759408297 7.895976037213177 0.0 0.0 0.0 0.0
401 2 0.5832758813242243 8.836191425516859 0.0 0.0 0.0 0.0
402 1 1.6820446934153035 8.80871480578217 0.0 0.0 0.0 0.0
403 1 2.333741556198371 8.552154680582595 0.0 0.0 0.0 0.0
404 2 3.1911663551504605 9.344125598426842 0.0 0.0 0.0 0.0
405 1 4.217181279709312 8.904431862733649 0.0 0.0 0.0 0.0
406 1 4.894663186473592 8.964427200832827 0.0 0.0 0.0 0.0
407 2 6.573920711677182 8.625774729511527 0.0 0.0 0.0 0.0
408 1 7.557489619853985 8.210612081973855 0.0 0.0 0.0 0.0
409 2 8.574414330063629 8.54929422279386 0.0 0.0 0.0 0.0
410 2 9.800322985426487 8.678688851243455 0.0 0.0 0.0 0.0
411 1 10.861406573115909 8.922039762103958 0.0 0.0 0.0 0.0
412 1 11.422065474031866 8.568525536378104 0.0 0.0 0.0 0.0
413 1 12.702236524626706 9.377161568379488 0.0 0.0 0.0 0.0
414 1 13.592809191615304 8.616838868483127 0.0 0.0 0.0 0.0
415 1 14.255812435437193 8.78454795707797 0.0 0.0 0.0 0.0
416 2 15.008557944268384 9.5874248663189 0.0 0.0 0.0 0.0
417 1 16.216793984216903 9.047413625641582 0.0 0.0 0.0 0.0
418 2 17.360059664730436 8.77919350468926 0.0 0.0 0.0 0.0
419 1 18.38100538276978 8.247437900148167 0.0 0.0 0.0 0.0
420 1 18.848834302220123 7.743730006157537 0.0 0.0 0.0 0.0
421 2 19.501894580038908 8.628072508638542 0.0 0.0 0.0 0.0
422 2 20.79982463428601 8.621790505822696 0.0 0.0 0.0 0.0
423 2 22.331517947158858 8.900126416463293 0.0 0.0 0.0 0.0
424 1 23.43530824409527 8.838380854716773 0.0 0.0 0.0 0.0
425 2 24.375084236267305 8.312304274793687 0.0 0.0 0.0 0.0
426 2 25.443172139121838 8.971718672422618 0.0 0.0 0.0 0.0
427 1 26.328535750452357 8.353193371529793 0.0 0.0 0.0 0.0
428 1 26.98349390961022 8.368374660836555 0.0 0.0 0.0 0.0
429 1 27.55559612055712 8.71527222740416 0.0 0.0 0.0 0.0
430 2 28.690671155878725 8.549874760151244 0.0 0.0 0.0 0.0
431 1 29.73010807392302 8.120318620238388 0.0 0.0 0.0 0.0
432 2 30.820101474798804 8.274565722266777 0.0 0.0 0.0 0.0
433 2 32.06594311325567 8.393643099800098 0.0 0.0 0.0 0.0
434 2 33.438898096328 8.528959454599363 0.0 0.0 0.0 0.0
435 1 34.45422727894302 8.118470167261133 0.0 0.0 0.0 0.0
436 1 35.1078962610778 8.336471882984295 0.0 0.0 0.0 0.0
437 2 36.069461459242405 7.778339710971644 0.0 0.0 0.0 0.0
438 1 36.798592595187124 8.625662283647134 0.0 0.0 0.0 0.0
439 2 37.928176285081506 8.723778515496816 0.0 0.0 0.0 0.0
440 1 38.90105859947854 8.178738591134687 0.0 0.0 0.0 0.0
441 2 40.007096442212315 8.30833935673065 0.0 0.0 0.0 0.0
442 2 41.77950431872655 7.651566924756584 0.0 0.0 0.0 0.0
443 1 42.42593711115722 8.529269562994738 0.0 0.0 0.0 0.0
444 2 43.51880243194361 8.76201490484632 0.0 0.0 0.0 0.0
445 1 44.62372144666089 8.684200720093983 0.0 0.0 0.0 0.0
446 1 45.207625615790704 9.03812987133251 0.0 0.0 0.0 0.0
447 1 46.43223345325004 8.590968600369347 0.0 0.0 0.0 0.0
448 1 47.62987865900414 8.660740666635894 0.0 0.0 0.0 0.0
449 1 48.0763481602607 8.158461733125105 0.0 0.0 0.0 0.0
450 2 48.72335248790323 9.028537570413159 0.0 0.0 0.0 0.0
451 2 0.5248843746063648 10.070209423531443 0.0 0.0 0.0 0.0
452 1 1.4816699712666535 9.475663528286807 0.0 0.0 0.0 0.0
453 1 2.1264313866999607 9.283717694591614 0.0 0.0 0.0 0.0
454 1 2.2742015606017274 9.940029771517437 0.0 0.0 0.0 0.0
455 2 4.248856419923852 9.968222906036619 0.0 0.0 0.0 0.0
456 1 5.25771191012476 9.614791824209354 0.0 0.0 0.0 0.0
457 2 6.322940168059223 9.857370437958286 0.0 0.0 0.0 0.0
458 2 7.594911374532659 9.36075253353056 0.0 0.0 0.0 0.0
459 2 8.837123086472667 9.708953391350793 0.0 0.0 0.0 0.0
460 1 9.942318090751296 9.780831149096823 0.0 0.0 0.0 0.0
461 1 10.550714023257774 9.509424125151048 0.0 0.0 0.0 0.0
462 2 11.648640852311562 9.684482389768329 0.0 0.0 0.0 0.0
463 1 12.694895417395564 10.060695983018546 0.0 0.0 0.0 0.0
464 2 13.738096873853078 9.720072387872557 0.0 0.0 0.0 0.0
465 1 14.455468622169851 10.54319892303414 0.0 0.0 0.0 0.0
466 1 15.110264342128332 10.665668557009127 0.0 0.0 0.0 0.0
467 2 16.106923536302702 10.165471735363434 0.0 0.0 0.0 0.0
468 2 17.422008146506585 10.08071769691848 0.0 0.0 0.0 0.0
469 2 18.483403688919314 9.350836429217079 0.0 0.0 0.0 0.0
470 1 19.529262360947502 9.735485251623524 0.0 0.0 0.0 0.0
471 1 20.16160820285477 9.526041347925295 0.0 0.0 0.0 0.0
472 1 20.79731600785133 9.745583447692654 0.0 0.0 0.0 0.0
473 1 21.41849645044664 9.528983107771799 0.0 0.0 0.0 0.0
474 1 23.248510751531597 9.473233755664433 0.0 0.0 0.0 0.0
475 2 24.346917925769997 9.607200925202957 0.0 0.0 0.0 0.0
476 2 25.514689690301463 10.224189740207951 0.0 0.0 0.0 0.0
477 2 26.644471921740102 9.410572641295856 0.0 0.0 0.0 0.0
478 1 27.183351591994768 10.339509798526874 0.0 0.0 0.0 0.0
479 2 28.06788704264201 9.661617757019632 0.0 0.0 0.0 0.0
480 2 29.21712920692908 10.316582559539897 0.0 0.0 0.0 0.0
481 2 29.855177736898693 9.19372028938123 0.0 0.0 0.0 0.0
482 2 31.20005281529345 9.464690282098648 0.0 0.0 0.0 0.0
483 2 32.616505996023044 9.499061594060482 0.0 0.0 0.0 0.0
484 1 33.56509819029652 10.186618651694332 0.0 0.0 0.0 0.0
485 1 33.689354459875965 9.548316296201996 0.0 0.0 0.0 0.0
486 1 34.58731190885891 8.785295457674168 0.0 0.0 0.0 0.0
487 2 35.81197104914847 9.2569619588752 0.0 0.0 0.0 0.0
488 2 37.104939769089675 9.708962468444858 0.0 0.0 0.0 0.0
489 1 38.22871214839359 9.785065684307302 0.0 0.0 0.0 0.0
490 2 39.1605381481345 9.226363695080066 0.0 0.0 0.0 0.0
491 2 40.334543632184534 9.667122531896457 0.0 0.0 0.0 0.0
492 2 41.17651362693224 8.704473299879199 0.0 0.0 0.0 0.0
493 2 42.064958707541415 9.548739921296388 0.0 0.0 0.0 0.0
494 2 43.22285345019927 10.007217593624052 0.0 0.0 0.0 0.0
495 2 44.402571154687436 9.743087309939826 0.0 0.0 0.0 0.0
496 1 45.8991208821296 9.050675903336964 0.0 0.0 0.0 0.0
497 2 46.52006175009562 9.962981367038935 0.0 0.0 0.0 0.0
498 1 46.995248599062755 8.961571687755505 0.0 0.0 0.0 0.0
499 2 47.737200893415874 9.754482776326851 0.0 0.0 0.0 0.0
500 1 48.79891494335551 10.094036242180792 0.0 0.0 0.0 0.0
501 1 0.14340673147497784 11.084281729111062 0.0 0.0 0.0 0.0
502 1 1.6169686634209577 10.138138148991782 0.0 0.0 0.0 0.0
503 1 2.1140876987964203 10.581080525766144 0.0 0.0 0.0 0.0
504 2 3.2118936562881806 10.640539310223405 0.0 0.0 0.0 0.0
505 2 4.360652693509171 11.190860138182423 0.0 0.0 0.0 0.0
506 1 5.278149328341598 10.30746621804536 0.0 0.0 0.0 0.0
507 2 6.024001776965044 11.095599993907083 0.0 0.0 0.0 0.0
508 2 7.327534483182825 10.609168780193764 0.0 0.0 0.0 0.0
509 1 8.411759331513368 10.694181072511414 0.0 0.0 0.0 0.0