ITEM: TIMESTEP
1
ITEM: NUMBER OF ATOMS
2500
ITEM: BOX BOUNDS xy xz yz pp pp pp
0.0 49.402249999999995 0.0
0.0 49.402249999999995 0.0
0.0 10.0 0.0
ITEM: ATOMS id type x y z vx vy vz
1 1 0.9092203656198582 49.15944436860154 0.0 0.0 0.0 0.0
2 2 1.658481095352224 0.5411700548884235 0.0 0.0 0.0 0.0
3 1 2.8183874634499517 0.69024839260958 0.0 0.0 0.0 0.0
4 1 3.525825526593828 0.7298016668329985 0.0 0.0 0.0 0.0
5 2 4.582675876577425 0.8411334198394658 0.0 0.0 0.0 0.0
6 1 5.543356127520185 1.3376290994440185 0.0 0.0 0.0 0.0
7 1 5.700344132739693 0.6186922003125814 0.0 0.0 0.0 0.0
8 1 7.696651855759545 1.0282173456063652 0.0 0.0 0.0 0.0
9 2 8.30435289564516 0.02546002266528896 0.0 0.0 0.0 0.0
10 2 9.411350030387231 0.6689778669893146 0.0 0.0 0.0 0.0
11 1 10.866798990595916 1.051191535465915 0.0 0.0 0.0 0.0
12 1 11.435497454893598 0.7301456613788213 0.0 0.0 0.0 0.0
13 2 12.492189216404437 0.9853030818921052 0.0 0.0 0.0 0.0
14 1 13.67536746428977 1.31374426117524 0.0 0.0 0.0 0.0
15 2 14.827022831480205 1.6200303472179396 0.0 0.0 0.0 0.0
16 2 15.172243954197222 0.38335226322196025 0.0 0.0 0.0 0.0
17 2 16.408629046773182 0.30470053965438065 0.0 0.0 0.0 0.0
18 1 17.083530259556866 1.166409455502069 0.0 0.0 0.0 0.0
19 1 18.035914376496812 0.3714266122088786 0.0 0.0 0.0 0.0
20 2 19.05683663938951 0.745979578830799 0.0 0.0 0.0 0.0
21 1 20.101636719257964 0.5122812667116284 0.0 0.0 0.0 0.0
22 2 21.12452064187909 0.8659672666828603 0.0 0.0 0.0 0.0
23 1 22.16087323689088 0.47980056056314874 0.0 0.0 0.0 0.0
24 2 23.963461709937373 49.28154183115122 0.0 0.0 0.0 0.0
25 2 25.20919218815727 0.22990810414652488 0.0 0.0 0.0 0.0
26 1 25.539948811030122 1.2944099354361518 0.0 0.0 0.0 0.0
27 2 26.448859604083914 0.3249084686207654 0.0 0.0 0.0 0.0
28 2 27.675520360813902 0.03561999179825814 0.0 0.0 0.0 0.0
29 2 28.581513373951918 0.8163170454543861 0.0 0.0 0.0 0.0
30 2 29.71287462440579 0.38186804018246356 0.0 0.0 0.0 0.0
31 2 30.91406930124268 0.20374652862194106 0.0 0.0 0.0 0.0
32 2 32.05510479265143 49.174937537295435 0.0 0.0 0.0 0.0
33 1 33.14178926722341 49.204158120831885 0.0 0.0 0.0 0.0
34 1 33.84086893949495 0.9116202547823301 0.0 0.0 0.0 0.0
35 1 34.44748755601943 1.2383885027298875 0.0 0.0 0.0 0.0
36 1 35.128788135596224 1.1841019706426892 0.0 0.0 0.0 0.0
37 1 35.666951943301086 0.7488935820210469 0.0 0.0 0.0 0.0
38 2 37.50243234518156 0.2074006785364206 0.0 0.0 0.0 0.0
39 2 38.62355482054427 49.11064840476924 0.0 0.0 0.0 0.0
40 1 39.69001686469044 49.006021132129035 0.0 0.0 0.0 0.0
41 1 40.31342758977928 49.220613613622994 0.0 0.0 0.0 0.0
42 1 40.60667394111967 0.4149903906509724 0.0 0.0 0.0 0.0
43 2 42.19726826793046 49.30531557320111 0.0 0.0 0.0 0.0
44 2 43.38939839412016 0.1477324640450169 0.0 0.0 0.0 0.0
45 2 44.607403998245665 0.3809511834159508 0.0 0.0 0.0 0.0
46 1 45.605789386725334 49.365533653855564 0.0 0.0 0.0 0.0
47 1 46.256736894682206 0.1156020911107344 0.0 0.0 0.0 0.0
48 1 46.858521247114005 49.19093826020542 0.0 0.0 0.0 0.0
49 2 47.94207330477701 49.28143542120887 0.0 0.0 0.0 0.0
50 1 49.03150815947701 49.37614992021357 0.0 0.0 0.0 0.0
51 2 0.40868370803809073 0.7579050483557339 0.0 0.0 0.0 0.0
52 1 1.1315978276626033 1.56512791836926 0.0 0.0 0.0 0.0
53 2 2.1985637266015523 1.6329747305916975 0.0 0.0 0.0 0.0
54 1 3.1884108802671416 1.2862452208646533 0.0 0.0 0.0 0.0
55 1 3.769339132424673 1.5756683772612787 0.0 0.0 0.0 0.0
56 2 4.70712060121241 2.075191120768833 0.0 0.0 0.0 0.0
57 2 6.614870157366128 1.2396369565322194 0.0 0.0 0.0 0.0
58 1 7.990122743238947 1.6476839839202602 0.0 0.0 0.0 0.0
59 1 8.360854563637734 1.089564641723723 0.0 0.0 0.0 0.0
60 2 9.107460117326328 1.849273480841371 0.0 0.0 0.0 0.0
61 2 10.323494359474534 1.9591720750648225 0.0 0.0 0.0 0.0
62 1 11.41643706822106 1.4807054310725727 0.0 0.0 0.0 0.0
63 1 13.19554672809473 1.8284849973451158 0.0 0.0 0.0 0.0
64 1 13.822778251874363 2.0233300162468955 0.0 0.0 0.0 0.0
65 1 14.245508121583754 2.5521873948462743 0.0 0.0 0.0 0.0
66 2 15.9044861585418 2.3389721427457446 0.0 0.0 0.0 0.0
67 1 15.838077731777668 1.241715219137212 0.0 0.0 0.0 0.0
68 1 16.473018831159134 1.4086585192798806 0.0 0.0 0.0 0.0
69 2 18.11585522524563 1.4870823813432554 0.0 0.0 0.0 0.0
70 2 19.297128994561096 2.058569936374695 0.0 0.0 0.0 0.0
71 1 20.056582712565266 1.2065612823556215 0.0 0.0 0.0 0.0
72 2 20.75402431998911 2.0687727672203597 0.0 0.0 0.0 0.0
73 2 22.156583855528027 1.592367027494599 0.0 0.0 0.0 0.0
74 2 23.17313010234866 0.8280594800511075 0.0 0.0 0.0 0.0
75 2 24.379947838547555 1.1312440770534444 0.0 0.0 0.0 0.0
76 1 26.21480902378821 1.3793742717823652 0.0 0.0 0.0 0.0
77 1 26.529517662483357 1.968891398429346 0.0 0.0 0.0 0.0
78 2 27.355191677485916 1.2645206359480639 0.0 0.0 0.0 0.0
79 1 28.315014079530467 1.8500029919964387 0.0 0.0 0.0 0.0
80 2 29.435181862378833 1.7174960837675666 0.0 0.0 0.0 0.0
81 1 30.426908922507803 1.2091996479156726 0.0 0.0 0.0 0.0
82 2 31.50894409657498 1.4191647594051344 0.0 0.0 0.0 0.0
83 2 32.711816122531715 0.8409916287198411 0.0 0.0 0.0 0.0
84 1 33.632553468264284 2.2326523339623536 0.0 0.0 0.0 0.0
85 1 33.55826095472898 1.5437978955469407 0.0 0.0 0.0 0.0
86 1 34.86266185833824 1.7981373291474239 0.0 0.0 0.0 0.0
87 2 36.05091134226907 1.741008483810535 0.0 0.0 0.0 0.0
88 1 36.85645455338448 1.0467120459074162 0.0 0.0 0.0 0.0
89 1 38.40066558749789 0.828735120226333 0.0 0.0 0.0 0.0
90 2 39.49902548375189 0.6470939185351146 0.0 0.0 0.0 0.0
91 1 40.492303918667 1.0940850504957726 0.0 0.0 0.0 0.0
92 2 41.55271417092314 0.9558378175199231 0.0 0.0 0.0 0.0
93 1 42.6171319745633 0.9167165182564025 0.0 0.0 0.0 0.0
94 1 43.19106444612324 1.2252058519251814 0.0 0.0 0.0 0.0
95 1 43.86215845032818 1.165701603092132 0.0 0.0 0.0 0.0
96 1 44.47989169086889 1.4660257382649857 0.0 0.0 0.0 0.0
97 2 45.67547182052773 1.1115298738809103 0.0 0.0 0.0 0.0
98 2 47.04841087217514 0.8735478590382839 0.0 0.0 0.0 0.0
99 1 48.13442151594943 0.9524989038665619 0.0 0.0 0.0 0.0
100 1 48.73359382389558 0.6054226348262325 0.0 0.0 0.0 0.0
101 2 0.49080632404020513 2.4341061474695285 0.0 0.0 0.0 0.0
102 2 1.693816449425211 2.757927699157907 0.0 0.0 0.0 0.0
103 1 2.8145285877712802 2.5215352786605885 0.0 0.0 0.0 0.0
104 1 3.254655193409309 2.003181544554969 0.0 0.0 0.0 0.0
105 1 4.931860291184332 3.1311353494797096 0.0 0.0 0.0 0.0
106 2 5.88097601980196 2.412190255258807 0.0 0.0 0.0 0.0
107 2 7.138588773031139 2.3363312994109364 0.0 0.0 0.0 0.0
108 2 8.286849336102948 2.728033746626319 0.0 0.0 0.0 0.0
109 1 8.809302010111004 3.661295149099088 0.0 0.0 0.0 0.0
110 2 9.61149154931752 2.9759948763014354 0.0 0.0 0.0 0.0
111 1 11.362551647408637 2.204074177426858 0.0 0.0 0.0 0.0
112 1 11.955619282213501 1.9345284834922039 0.0 0.0 0.0 0.0
113 1 12.594054606017924 2.117520653098673 0.0 0.0 0.0 0.0
114 2 13.262371590748515 2.9953301918752993 0.0 0.0 0.0 0.0
115 1 14.883196139384802 2.716257659907165 0.0 0.0 0.0 0.0
116 2 15.584724594647106 3.5417568538391277 0.0 0.0 0.0 0.0
117 2 17.158675372679763 2.2613959218069812 0.0 0.0 0.0 0.0
118 1 18.26878402659905 2.551368291047333 0.0 0.0 0.0 0.0
119 1 18.73297031521721 3.0294603979977404 0.0 0.0 0.0 0.0
120 1 19.372931325512987 3.1949599117713716 0.0 0.0 0.0 0.0
121 1 19.986489541748384 2.916900079402763 0.0 0.0 0.0 0.0
122 1 21.269504697863166 3.03121811443684 0.0 0.0 0.0 0.0
123 1 21.7920942194967 2.6225047394389103 0.0 0.0 0.0 0.0
124 2 23.431010069338534 2.0614918097276207 0.0 0.0 0.0 0.0
125 1 24.571896471011385 2.194433790966477 0.0 0.0 0.0 0.0
126 1 25.180002443735127 1.87615197096375 0.0 0.0 0.0 0.0
127 1 25.853261316854883 1.9550315526516833 0.0 0.0 0.0 0.0
128 1 26.38240223059652 2.6108017233624774 0.0 0.0 0.0 0.0
129 2 27.478864438276833 2.5424961982298027 0.0 0.0 0.0 0.0
130 1 28.592775670394957 2.451133764710449 0.0 0.0 0.0 0.0
131 2 30.560599992771866 2.3016065457030805 0.0 0.0 0.0 0.0
132 1 31.604861019817385 2.591067263241538 0.0 0.0 0.0 0.0
133 2 32.56485092460104 2.0882366380225803 0.0 0.0 0.0 0.0
134 1 33.308941830631476 2.863296499228543 0.0 0.0 0.0 0.0
135 1 34.16598779963339 1.8328512172834739 0.0 0.0 0.0 0.0
136 1 35.19402111843961 2.3886714188570877 0.0 0.0 0.0 0.0
137 1 36.92132980434743 2.3638115122474828 0.0 0.0 0.0 0.0
138 1 37.196634626094465 1.637500926735875 0.0 0.0 0.0 0.0
139 1 37.87835408271876 1.2965445976985868 0.0 0.0 0.0 0.0
140 2 38.97285369154699 1.7667859274869802 0.0 0.0 0.0 0.0
141 1 40.06080139290158 1.5946239745900768 0.0 0.0 0.0 0.0
142 2 41.05145887710251 2.0901247564962055 0.0 0.0 0.0 0.0
143 2 42.33359957695515 1.9865499142197565 0.0 0.0 0.0 0.0
144 1 42.80846892604185 2.9812023477533596 0.0 0.0 0.0 0.0
145 2 43.58425280176004 2.217737154812481 0.0 0.0 0.0 0.0
146 2 44.76901218104745 2.514683420179035 0.0 0.0 0.0 0.0
147 1 45.831495296579384 2.6516838129744453 0.0 0.0 0.0 0.0
148 2 46.756854542247964 2.07703818091369 0.0 0.0 0.0 0.0
149 1 47.87747239668648 2.1254346336935703 0.0 0.0 0.0 0.0
150 2 48.9214509033571 1.6823203541909733 0.0 0.0 0.0 0.0
151 2 0.4314505449263193 3.6633525056041885 0.0 0.0 0.0 0.0
152 1 1.2421987685571894 4.514340828216752 0.0 0.0 0.0 0.0
153 1 1.505772451700029 3.8381563689834786 0.0 0.0 0.0 0.0
154 2 2.641719825942532 3.589439673841661 0.0 0.0 0.0 0.0
155 2 3.822527582985392 2.9782492382892034 0.0 0.0 0.0 0.0
156 1 5.505825262477261 3.461453524368757 0.0 0.0 0.0 0.0
157 2 6.599953624385004 3.4507753744909913 0.0 0.0 0.0 0.0
158 2 7.739989206346587 3.8472167708532856 0.0 0.0 0.0 0.0
159 1 8.735683869369453 4.299750417225592 0.0 0.0 0.0 0.0
160 1 9.363191570957545 4.050343365486408 0.0 0.0 0.0 0.0
161 2 10.811479722094106 3.1639151829658196 0.0 0.0 0.0 0.0
162 2 12.03576539425643 3.082317225196431 0.0 0.0 0.0 0.0
163 1 12.705240213524537 3.960420608321797 0.0 0.0 0.0 0.0
164 1 13.351010480568739 4.129934398422791 0.0 0.0 0.0 0.0
165 2 14.33514538504674 3.6697567443284034 0.0 0.0 0.0 0.0
166 1 15.071489740076366 4.489697374324402 0.0 0.0 0.0 0.0
167 1 16.611969459494052 3.2048514639208214 0.0 0.0 0.0 0.0
168 1 17.85385224479379 3.073876657441588 0.0 0.0 0.0 0.0
169 1 18.313604228029458 3.5384879704853702 0.0 0.0 0.0 0.0
170 1 18.952222331851214 3.7626962862112907 0.0 0.0 0.0 0.0
171 1 20.606718320356087 3.1498552982474957 0.0 0.0 0.0 0.0
172 1 21.03644528342716 3.653017294660871 0.0 0.0 0.0 0.0
173 1 22.47085629298747 2.6479399663035177 0.0 0.0 0.0 0.0
174 2 23.322062990659735 3.338617567305128 0.0 0.0 0.0 0.0
175 1 24.26620961162137 2.7794826987938612 0.0 0.0 0.0 0.0
176 2 25.369527902751802 2.965006832440003 0.0 0.0 0.0 0.0
177 2 26.830483507950067 3.614765922977772 0.0 0.0 0.0 0.0
178 1 27.943918542539535 3.552458036443169 0.0 0.0 0.0 0.0
179 1 28.44206962619669 3.1054871515470723 0.0 0.0 0.0 0.0
180 2 29.544399476009602 2.9884524018930962 0.0 0.0 0.0 0.0
181 1 30.595428145342524 3.501196321140736 0.0 0.0 0.0 0.0
182 1 31.225870274785976 3.158974901718999 0.0 0.0 0.0 0.0
183 1 32.07053720022115 3.08994999444256 0.0 0.0 0.0 0.0
184 1 32.6761450678427 3.4431886895366817 0.0 0.0 0.0 0.0
185 1 33.98636238688975 2.788652944913511 0.0 0.0 0.0 0.0
186 1 34.522119862448065 2.390384141207448 0.0 0.0 0.0 0.0
187 1 35.75382952108815 2.78391920313456 0.0 0.0 0.0 0.0
188 1 36.42105118095183 2.796926451635471 0.0 0.0 0.0 0.0
189 2 37.97205457953101 2.422146805472337 0.0 0.0 0.0 0.0
190 1 39.50012003459609 2.729271483519394 0.0 0.0 0.0 0.0
191 1 39.96180815569783 2.248216457326482 0.0 0.0 0.0 0.0
192 2 40.47658394190466 3.207872435430888 0.0 0.0 0.0 0.0
193 2 41.72087955358309 3.2086651757409386 0.0 0.0 0.0 0.0
194 1 42.74164876521947 3.6409318476771686 0.0 0.0 0.0 0.0
195 2 43.84379207637414 3.422569421276378 0.0 0.0 0.0 0.0
196 1 44.38729686668927 4.353751196239737 0.0 0.0 0.0 0.0
197 2 45.29607841508592 3.658396729889133 0.0 0.0 0.0 0.0
198 2 46.64437154994919 3.375719091733099 0.0 0.0 0.0 0.0
199 1 47.6083471689122 2.775279796629243 0.0 0.0 0.0 0.0
200 2 48.70508580817975 2.8985963115092037 0.0 0.0 0.0 0.0
201 2 0.19061703884403491 4.861992164130291 0.0 0.0 0.0 0.0
202 1 1.7689879556769617 4.999082189512237 0.0 0.0 0.0 0.0
203 1 1.9008578405254564 4.362308965323907 0.0 0.0 0.0 0.0
204 1 3.618238868782595 4.073895332816225 0.0 0.0 0.0 0.0
205 2 4.676629984688804 4.212977877535614 0.0 0.0 0.0 0.0
206 1 5.74599307604756 4.092715840381954 0.0 0.0 0.0 0.0
207 1 6.269173538212639 4.5167628090242955 0.0 0.0 0.0 0.0
208 2 7.2441035516499515 4.979995801611235 0.0 0.0 0.0 0.0
209 1 8.307941848101796 4.791889143128236 0.0 0.0 0.0 0.0
210 2 9.348989255101365 5.16899798319534 0.0 0.0 0.0 0.0
211 2 10.39989725878951 4.398010864396444 0.0 0.0 0.0 0.0
212 1 11.445951445953312 4.052023779757836 0.0 0.0 0.0 0.0
213 1 12.086514273497 4.221324492727772 0.0 0.0 0.0 0.0
214 2 12.784088572848011 5.07884758215423 0.0 0.0 0.0 0.0
215 1 13.805709479054634 4.644763492106926 0.0 0.0 0.0 0.0
216 1 14.47084281305447 4.798811587439524 0.0 0.0 0.0 0.0
217 2 16.201966781512606 4.615519266000877 0.0 0.0 0.0 0.0
218 2 17.31398179503743 4.030325662804082 0.0 0.0 0.0 0.0
219 1 18.394573172771292 4.184034456098477 0.0 0.0 0.0 0.0
220 2 19.128207942976474 4.946793988866602 0.0 0.0 0.0 0.0
221 2 20.017881379752907 4.075945372433244 0.0 0.0 0.0 0.0
222 2 21.11818199199579 4.719483791657089 0.0 0.0 0.0 0.0
223 2 22.127998497871932 3.7169437942274923 0.0 0.0 0.0 0.0
224 2 23.476554038199087 4.604105962555489 0.0 0.0 0.0 0.0
225 2 24.480236343742025 3.8410847916922104 0.0 0.0 0.0 0.0
226 2 25.690037564017256 4.22570819425589 0.0 0.0 0.0 0.0
227 1 26.25701362659821 5.13321159314433 0.0 0.0 0.0 0.0
228 1 26.725011435346815 4.688514149284011 0.0 0.0 0.0 0.0
229 2 27.793158969679077 4.634001405162055 0.0 0.0 0.0 0.0
230 2 28.935572254044693 4.096836493667446 0.0 0.0 0.0 0.0
231 1 30.02759787331306 3.9457100701579084 0.0 0.0 0.0 0.0
232 1 30.6223234047379 4.213250440922529 0.0 0.0 0.0 0.0
233 2 31.70325843218749 4.128426158793664 0.0 0.0 0.0 0.0
234 2 32.81293003342564 4.598052644446078 0.0 0.0 0.0 0.0
235 2 33.749845779129714 3.845498586648211 0.0 0.0 0.0 0.0
236 2 34.88514589553817 3.420749336047768 0.0 0.0 0.0 0.0
237 2 36.08599373543738 3.8371409922553643 0.0 0.0 0.0 0.0
238 2 37.29870834339506 3.470793371255484 0.0 0.0 0.0 0.0
239 1 38.8861385824858 2.9689205461594788 0.0 0.0 0.0 0.0
240 2 38.47680984779832 3.9936047089546434 0.0 0.0 0.0 0.0
241 1 39.39885666527005 3.400245708884839 0.0 0.0 0.0 0.0
242 1 41.01408517386832 4.135553690704886 0.0 0.0 0.0 0.0
243 1 41.64191731577894 4.325807965110423 0.0 0.0 0.0 0.0
244 1 42.295071821815654 4.150339822475587 0.0 0.0 0.0 0.0
245 2 43.31042630964973 4.567817271288807 0.0 0.0 0.0 0.0
246 1 44.931864244546944 4.7144202293786135 0.0 0.0 0.0 0.0
247 1 45.59718583868861 4.710895833146877 0.0 0.0 0.0 0.0
248 1 46.18266970751889 4.366516747162832 0.0 0.0 0.0 0.0
249 1 47.73021273592226 3.4470092587732015 0.0 0.0 0.0 0.0
250 2 48.5833982702836 4.122025216277093 0.0 0.0 0.0 0.0
251 1 49.347882059317435 5.943782888089328 0.0 0.0 0.0 0.0
252 2 1.0076805384027598 5.752217092419491 0.0 0.0 0.0 0.0
253 2 2.881527183722258 4.863478971078577 0.0 0.0 0.0 0.0
254 2 4.083363572701233 5.356414390686185 0.0 0.0 0.0 0.0
255 1 5.174692065035013 5.222433101358002 0.0 0.0 0.0 0.0
256 1 5.638610904210872 4.7486095648626305 0.0 0.0 0.0 0.0
257 2 6.224601435412028 5.66302325645644 0.0 0.0 0.0 0.0
258 2 7.486348356161244 6.225670264534645 0.0 0.0 0.0 0.0
259 1 8.248843196088599 5.443109519422943 0.0 0.0 0.0 0.0
260 2 8.851271839290304 6.333145400025828 0.0 0.0 0.0 0.0
261 1 9.963556294410585 6.0484612819823385 0.0 0.0 0.0 0.0
262 1 10.39661802471774 5.506093331471679 0.0 0.0 0.0 0.0
263 2 11.46779434392204 5.170396701529618 0.0 0.0 0.0 0.0
264 2 12.255923817945597 6.226279764602668 0.0 0.0 0.0 0.0
265 2 13.896968698488855 5.7584258391435394 0.0 0.0 0.0 0.0
266 2 15.334962315821208 5.532145895901696 0.0 0.0 0.0 0.0
267 2 15.840880402636069 6.680590264442032 0.0 0.0 0.0 0.0
268 2 16.730280075569468 5.771681186860759 0.0 0.0 0.0 0.0
269 2 17.87035626637723 5.155707196760461 0.0 0.0 0.0 0.0
270 2 19.114753188574426 6.210674953006003 0.0 0.0 0.0 0.0
271 2 20.213746421214193 5.528208078933373 0.0 0.0 0.0 0.0
272 2 21.425833204143714 6.08615864594282 0.0 0.0 0.0 0.0
273 2 22.29478030220536 4.97350441228812 0.0 0.0 0.0 0.0
274 1 23.785282033205945 5.662829534684612 0.0 0.0 0.0 0.0
275 2 24.689576544341264 5.055611973438743 0.0 0.0 0.0 0.0
276 1 25.681178823197385 5.456599303323391 0.0 0.0 0.0 0.0
277 1 26.302391458214103 5.7786806453584525 0.0 0.0 0.0 0.0
278 1 26.902596149378276 5.373508306893585 0.0 0.0 0.0 0.0
279 2 27.930292905711685 5.863899089308307 0.0 0.0 0.0 0.0
280 1 28.764985755060298 5.192714059222538 0.0 0.0 0.0 0.0
281 2 29.828947503032133 5.044048955918542 0.0 0.0 0.0 0.0
282 1 30.877727733208665 4.8373852734614085 0.0 0.0 0.0 0.0
283 1 32.04844236896008 5.350495286381388 0.0 0.0 0.0 0.0
284 2 32.99669176191494 5.882669003573938 0.0 0.0 0.0 0.0
285 2 33.972586790473805 5.063135463114604 0.0 0.0 0.0 0.0
286 2 35.109953539882696 4.611797326105883 0.0 0.0 0.0 0.0
287 1 36.13782434011134 4.939061567091129 0.0 0.0 0.0 0.0
288 1 36.93441476966352 4.518542285762067 0.0 0.0 0.0 0.0
289 2 37.86493241855928 5.093396373023133 0.0 0.0 0.0 0.0
290 1 38.976447170773504 4.986435072191644 0.0 0.0 0.0 0.0
291 2 39.93359815193139 4.359573354018671 0.0 0.0 0.0 0.0
292 1 41.04321368110055 5.488729004470315 0.0 0.0 0.0 0.0
293 1 41.09931552306194 4.806449971941366 0.0 0.0 0.0 0.0
294 2 42.20047254709385 5.254726976263072 0.0 0.0 0.0 0.0
295 2 43.45078814193243 5.784913305799569 0.0 0.0 0.0 0.0
296 1 44.32014185305939 5.043464221548787 0.0 0.0 0.0 0.0
297 2 45.17929452034243 5.76644410404463 0.0 0.0 0.0 0.0
298 2 46.38111543678499 5.449220024611329 0.0 0.0 0.0 0.0
299 2 47.31440498997932 4.5129772822348135 0.0 0.0 0.0 0.0
300 2 48.43249675497825 5.3450582518168845 0.0 0.0 0.0 0.0
301 2 0.45388557856371253 6.938451505531416 0.0 0.0 0.0 0.0
302 1 2.0047566375345625 6.257136988764756 0.0 0.0 0.0 0.0
303 1 2.086079783738717 5.595465108775505 0.0 0.0 0.0 0.0
304 2 3.0577849145120477 6.122044637295422 0.0 0.0 0.0 0.0
305 1 4.0698169891791025 6.487027399148158 0.0 0.0 0.0 0.0
306 2 5.158481549574744 6.313175484058491 0.0 0.0 0.0 0.0
307 2 6.410970192554756 6.913075480251168 0.0 0.0 0.0 0.0
308 1 7.426325730301026 7.320493048968276 0.0 0.0 0.0 0.0
309 1 8.111551016212827 7.146580183491572 0.0 0.0 0.0 0.0
310 1 8.791300740103427 7.450781088750237 0.0 0.0 0.0 0.0
311 1 9.443612217872097 7.236976878412131 0.0 0.0 0.0 0.0
312 1 9.886735046619965 6.710516153436596 0.0 0.0 0.0 0.0
313 2 10.983474107827119 6.4286377174389795 0.0 0.0 0.0 0.0
314 2 13.197471174326235 7.086971312351399 0.0 0.0 0.0 0.0
315 1 14.231148997026882 6.808670471030009 0.0 0.0 0.0 0.0
316 1 14.77457458222754 6.445940591886138 0.0 0.0 0.0 0.0
317 1 16.621845395477607 7.45207091715602 0.0 0.0 0.0 0.0
318 1 16.916188813758417 6.863855014911481 0.0 0.0 0.0 0.0
319 2 17.88166713425706 6.403950460336008 0.0 0.0 0.0 0.0
320 1 19.311692556601045 7.336526732761384 0.0 0.0 0.0 0.0
321 2 20.24052356934851 6.754057220389922 0.0 0.0 0.0 0.0
322 1 21.211087521975635 7.2313231096558725 0.0 0.0 0.0 0.0
323 1 22.55619590070961 6.030438679588552 0.0 0.0 0.0 0.0
324 1 23.124365961102736 5.669890195526097 0.0 0.0 0.0 0.0
325 2 24.661141158864062 6.313234029772109 0.0 0.0 0.0 0.0
326 1 25.73084549975889 6.118778991555452 0.0 0.0 0.0 0.0
327 1 26.33363155418769 6.447844799261689 0.0 0.0 0.0 0.0
328 1 26.888716245095644 6.0811806525272045 0.0 0.0 0.0 0.0
329 1 27.196107691234026 6.688419130382154 0.0 0.0 0.0 0.0
330 2 29.289070032847654 6.226671040546999 0.0 0.0 0.0 0.0
331 1 30.8059101544815 5.524503317748001 0.0 0.0 0.0 0.0
332 1 31.40989511474809 5.222549053951566 0.0 0.0 0.0 0.0
333 2 31.542174433352876 6.336862574411423 0.0 0.0 0.0 0.0
334 1 32.55219721535341 6.862409663147329 0.0 0.0 0.0 0.0
335 1 34.06703187480021 6.120328926012795 0.0 0.0 0.0 0.0
336 2 35.11733217936425 5.829476100223022 0.0 0.0 0.0 0.0
337 1 36.22307548969121 5.605896922824298 0.0 0.0 0.0 0.0
338 1 36.758585376163595 5.165639512263769 0.0 0.0 0.0 0.0
339 1 38.29133223400261 6.1342460172270945 0.0 0.0 0.0 0.0
340 1 38.79994850730744 5.662298145095933 0.0 0.0 0.0 0.0
341 2 39.89971889546867 5.5834205443023635 0.0 0.0 0.0 0.0
342 1 40.80531316316067 6.140555694982723 0.0 0.0 0.0 0.0
343 1 41.45666777602809 6.032897022275576 0.0 0.0 0.0 0.0
344 1 43.527281860123914 6.881533886135654 0.0 0.0 0.0 0.0
345 1 44.16595228761604 7.083844457308314 0.0 0.0 0.0 0.0
346 1 44.31048515038173 6.437458564444938 0.0 0.0 0.0 0.0
347 1 46.312520962625584 6.551666183415832 0.0 0.0 0.0 0.0
348 1 46.88505326750302 6.947238710638752 0.0 0.0 0.0 0.0
349 2 47.43561066435944 6.025959110275091 0.0 0.0 0.0 0.0
350 2 48.55932476387665 6.684913860585357 0.0 0.0 0.0 0.0
351 1 1.5557280464977163 7.319783300363548 0.0 0.0 0.0 0.0
352 1 1.5217482873966104 6.68451879397322 0.0 0.0 0.0 0.0
353 1 2.181036097043685 6.943929617006451 0.0 0.0 0.0 0.0
354 2 3.2741043302305557 7.355483435003918 0.0 0.0 0.0 0.0
355 1 4.368447666871153 7.078571080953662 0.0 0.0 0.0 0.0
356 2 5.379400470835079 7.561800234983953 0.0 0.0 0.0 0.0
357 1 6.336622476277517 8.174946335037417 0.0 0.0 0.0 0.0
358 1 6.958689899681688 7.8626245812258455 0.0 0.0 0.0 0.0
359 2 8.00558700036685 8.229910397185556 0.0 0.0 0.0 0.0
360 1 9.031544134854533 8.487933211049093 0.0 0.0 0.0 0.0
361 1 9.347879435998172 7.900537379847776 0.0 0.0 0.0 0.0
362 2 10.454625072251938 7.63488776606706 0.0 0.0 0.0 0.0
363 2 11.738323617890087 7.408545179512954 0.0 0.0 0.0 0.0
364 1 13.831303465103842 7.998865065634492 0.0 0.0 0.0 0.0
365 1 14.260919927024661 7.478885511815752 0.0 0.0 0.0 0.0
366 1 14.830180710693686 7.121532542232515 0.0 0.0 0.0 0.0
367 1 17.317212790097376 7.431015001159873 0.0 0.0 0.0 0.0
368 1 18.01481471343873 7.484760262541811 0.0 0.0 0.0 0.0
369 1 18.645245562626677 7.194328584598706 0.0 0.0 0.0 0.0
370 1 18.590004854914806 7.85185318561306 0.0 0.0 0.0 0.0
371 1 19.261807433563693 8.00489591917241 0.0 0.0 0.0 0.0
372 2 20.388202036350453 7.98266168218775 0.0 0.0 0.0 0.0
373 2 22.279013147114384 7.074224351869343 0.0 0.0 0.0 0.0
374 2 23.454050542053928 6.717966464975212 0.0 0.0 0.0 0.0
375 2 24.309531300386904 7.616242095510001 0.0 0.0 0.0 0.0
376 2 25.537932199746688 7.1841962299518904 0.0 0.0 0.0 0.0
377 1 26.626116999704205 7.04673089385085 0.0 0.0 0.0 0.0
378 1 27.209941826339723 7.3684220340413615 0.0 0.0 0.0 0.0
379 2 28.27258770687483 7.035172781097775 0.0 0.0 0.0 0.0
380 1 29.36627918142102 7.361616996063498 0.0 0.0 0.0 0.0
381 2 30.48768883897105 7.206723402067742 0.0 0.0 0.0 0.0
382 1 30.405952764988672 6.076580848857641 0.0 0.0 0.0 0.0
383 1 33.187760372059486 7.0493641999779895 0.0 0.0 0.0 0.0
384 1 33.7443386475644 6.693433670182234 0.0 0.0 0.0 0.0
385 1 34.42073814579224 6.673758525022353 0.0 0.0 0.0 0.0
386 2 35.344700528256865 7.235138884533106 0.0 0.0 0.0 0.0
387 1 36.08998192804638 6.267911592686247 0.0 0.0 0.0 0.0
388 2 37.20208083226253 6.15813926064242 0.0 0.0 0.0 0.0
389 1 38.08654963433335 6.84570585319019 0.0 0.0 0.0 0.0
390 2 39.22086516654376 6.6974578446448705 0.0 0.0 0.0 0.0
391 1 40.307093515511596 6.612873186104345 0.0 0.0 0.0 0.0
392 2 41.270803539820854 7.112010951921769 0.0 0.0 0.0 0.0
393 2 42.42844708812878 6.5454941415817185 0.0 0.0 0.0 0.0
394 1 43.095446952101625 7.393355311224567 0.0 0.0 0.0 0.0
395 1 43.71090727376893 7.572432138823408 0.0 0.0 0.0 0.0
396 2 45.25713989771823 7.00209952570459 0.0 0.0 0.0 0.0
397 1 46.29273420062424 7.236702912069215 0.0 0.0 0.0 0.0
398 1 47.549420809876395 7.105710451631415 0.0 0.0 0.0 0.0
399 2 48.29367743750939 7.922319802941163 0.0 0.0 0.0 0.0
400 2 0.09518509311990186 8.182602243958437 0.0 0.0 0.0 0.0
401 1 1.1262259919303619 7.811809187844606 0.0 0.0 0.0 0.0
402 1 1.2034516804164461 8.460211633329946 0.0 0.0 0.0 0.0
403 2 2.2613116461624703 8.113030298597492 0.0 0.0 0.0 0.0
404 1 3.2662189608667607 8.519308701406462 0.0 0.0 0.0 0.0
405 2 4.2734032966379605 8.152961415718126 0.0 0.0 0.0 0.0
406 2 5.317232200845696 8.788774142459186 0.0 0.0 0.0 0.0
407 1 6.396133280568443 8.877022907238638 0.0 0.0 0.0 0.0
408 1 6.966310393679503 8.551408212333966 0.0 0.0 0.0 0.0
409 1 7.388802688113004 9.133675288178887 0.0 0.0 0.0 0.0
410 1 8.73171264975743 9.092117787279506 0.0 0.0 0.0 0.0
411 2 10.027250921288042 8.844861055966835 0.0 0.0 0.0 0.0
412 2 11.241844164757513 8.58569867526991 0.0 0.0 0.0 0.0
413 2 12.373549712174942 9.029370969090962 0.0 0.0 0.0 0.0
414 1 12.633209995760096 7.998337618937796 0.0 0.0 0.0 0.0
415 1 13.23327459714906 8.297824414187957 0.0 0.0 0.0 0.0
416 1 14.50197180313079 8.104688566176673 0.0 0.0 0.0 0.0
417 2 15.594494961177201 7.908699217392728 0.0 0.0 0.0 0.0
418 1 16.679941130346485 8.102050145159792 0.0 0.0 0.0 0.0
419 2 17.67547991263237 8.528944015883898 0.0 0.0 0.0 0.0
420 1 18.77529414601453 8.486010891554422 0.0 0.0 0.0 0.0
421 2 19.715593502835468 9.014741600873483 0.0 0.0 0.0 0.0
422 2 21.00654222862749 9.18196439013059 0.0 0.0 0.0 0.0
423 2 21.767546455509674 8.202322861459773 0.0 0.0 0.0 0.0
424 2 23.09540642136186 8.061621031781913 0.0 0.0 0.0 0.0
425 2 24.37839249741545 8.930276219231514 0.0 0.0 0.0 0.0
426 1 25.222820927132155 8.202614791441427 0.0 0.0 0.0 0.0
427 2 26.380192557473066 8.12363178466476 0.0 0.0 0.0 0.0
428 1 27.615860586593598 7.896118326524231 0.0 0.0 0.0 0.0
429 1 28.24570510504422 8.17876134858393 0.0 0.0 0.0 0.0
430 1 28.919180745797334 7.89023884437031 0.0 0.0 0.0 0.0
431 2 29.895756034885437 8.380001634851036 0.0 0.0 0.0 0.0
432 1 30.96342671103432 8.264061354022772 0.0 0.0 0.0 0.0
433 2 31.770556327739396 7.576584203663398 0.0 0.0 0.0 0.0
434 2 32.957617027316175 8.11950840976095 0.0 0.0 0.0 0.0
435 2 34.116839587882744 7.713928210568822 0.0 0.0 0.0 0.0
436 1 35.006844756680216 8.32178285980747 0.0 0.0 0.0 0.0
437 2 36.57774469796893 7.210622446861508 0.0 0.0 0.0 0.0
438 2 37.433812037030265 8.029615971089775 0.0 0.0 0.0 0.0
439 1 38.404529041969866 7.464447465781643 0.0 0.0 0.0 0.0
440 1 39.028919664749694 7.767220354455167 0.0 0.0 0.0 0.0
441 2 40.12421342443759 7.727955404094513 0.0 0.0 0.0 0.0
442 1 41.14127256657006 8.190136076141984 0.0 0.0 0.0 0.0
443 2 42.179834156403196 7.91262318176194 0.0 0.0 0.0 0.0
444 1 42.87779231891921 8.72676123313477 0.0 0.0 0.0 0.0
445 1 43.27774997134667 8.103365112578564 0.0 0.0 0.0 0.0
446 2 44.637029822491016 8.07971268327003 0.0 0.0 0.0 0.0
447 2 45.811435302711814 8.243111135096424 0.0 0.0 0.0 0.0
448 2 47.01020545158782 8.041800814398167 0.0 0.0 0.0 0.0
449 2 47.70697513004946 9.006317600171347 0.0 0.0 0.0 0.0
450 1 48.83054588616289 9.170316801024416 0.0 0.0 0.0 0.0
451 2 0.5515453044682302 9.3169348468456 0.0 0.0 0.0 0.0
452 1 1.6086550935179904 8.987167732780753 0.0 0.0 0.0 0.0
453 2 2.625461441002167 9.406696985989463 0.0 0.0 0.0 0.0
454 1 3.6790852251487314 9.075895280647561 0.0 0.0 0.0 0.0
455 1 4.335459797515075 9.278347051260837 0.0 0.0 0.0 0.0
456 2 5.147133595821527 10.082547716283324 0.0 0.0 0.0 0.0
457 1 6.115672343120371 9.489873799965423 0.0 0.0 0.0 0.0
458 1 6.785179261397323 9.441709035553608 0.0 0.0 0.0 0.0
459 1 8.0974614464446 9.308790352857516 0.0 0.0 0.0 0.0
460 1 9.202996505467476 9.555870043751407 0.0 0.0 0.0 0.0
461 1 10.76374666189569 9.645144071562399 0.0 0.0 0.0 0.0
462 1 11.450065682064258 9.651545211419947 0.0 0.0 0.0 0.0
463 1 11.99936712575344 10.04907833098194 0.0 0.0 0.0 0.0
464 1 13.464478633930641 8.938675026393737 0.0 0.0 0.0 0.0
465 1 14.057280273433536 8.635106710045582 0.0 0.0 0.0 0.0
466 1 14.01487409064248 9.341708756924215 0.0 0.0 0.0 0.0
467 2 15.077981032284777 9.036361185795032 0.0 0.0 0.0 0.0
468 2 16.423430575371746 9.151689306765482 0.0 0.0 0.0 0.0
469 1 18.103094756451746 9.570320873565919 0.0 0.0 0.0 0.0
470 1 18.61011860265905 9.133434296088812 0.0 0.0 0.0 0.0
471 1 20.242741024422926 9.950710080974401 0.0 0.0 0.0 0.0
472 1 22.158678889790984 9.93511902607945 0.0 0.0 0.0 0.0
473 1 22.097857758807443 9.257319021077125 0.0 0.0 0.0 0.0
474 2 23.180116667498496 9.329839856383503 0.0 0.0 0.0 0.0
475 1 24.085816990561547 10.01094607869945 0.0 0.0 0.0 0.0
476 2 25.634224199755806 9.176076912093421 0.0 0.0 0.0 0.0
477 2 26.809705804907704 9.414658361033618 0.0 0.0 0.0 0.0
478 1 27.39527507260573 8.50497741226576 0.0 0.0 0.0 0.0
479 2 28.07880335691356 9.324662179605744 0.0 0.0 0.0 0.0
480 1 28.81913439000307 8.545003508632552 0.0 0.0 0.0 0.0
481 1 30.41477045041398 9.393806287279489 0.0 0.0 0.0 0.0
482 1 30.874230077833893 8.923550763575715 0.0 0.0 0.0 0.0
483 2 31.954811458390584 8.819205828113455 0.0 0.0 0.0 0.0
484 1 32.991734175160126 9.25478869634617 0.0 0.0 0.0 0.0
485 2 34.05847748668001 8.985826276920443 0.0 0.0 0.0 0.0
486 1 35.168798879043685 8.968010850651764 0.0 0.0 0.0 0.0
487 2 36.103222340226424 8.361871713613313 0.0 0.0 0.0 0.0
488 1 37.63502607382749 9.11366661830992 0.0 0.0 0.0 0.0
489 1 38.22445639986217 8.786718999713042 0.0 0.0 0.0 0.0
490 1 38.490162460371955 8.149324854982355 0.0 0.0 0.0 0.0
491 2 39.311169573845525 8.841538051852172 0.0 0.0 0.0 0.0
492 2 40.5104134124943 9.043474890200303 0.0 0.0 0.0 0.0
493 2 41.812328662022196 9.114672815437066 0.0 0.0 0.0 0.0
494 1 42.882229608464556 9.404175807682131 0.0 0.0 0.0 0.0
495 2 43.91584751547243 9.021418504784453 0.0 0.0 0.0 0.0
496 1 45.07527447033527 9.155640762845248 0.0 0.0 0.0 0.0
497 1 45.437233203356406 9.763100626658291 0.0 0.0 0.0 0.0
498 2 46.46187886486758 9.286030283265587 0.0 0.0 0.0 0.0
499 1 48.43339179575194 9.760993029634651 0.0 0.0 0.0 0.0
500 1 49.05834291509475 9.86809648105729 0.0 0.0 0.0 0.0
501 2 0.3946841093193208 10.643803008365815 0.0 0.0 0.0 0.0
502 2 1.5094181361234493 10.062949594067247 0.0 0.0 0.0 0.0
503 2 2.5557894063429862 10.6679296352877 0.0 0.0 0.0 0.0
504 2 3.71988279418254 10.18773754853995 0.0 0.0 0.0 0.0
505 2 4.482268457539017 11.186830175503056 0.0 0.0 0.0 0.0
506 1 5.550052793254242 11.169102346736667 0.0 0.0 0.0 0.0
507 2 6.379726298142276 10.516373944265725 0.0 0.0 0.0 0.0
508 2 7.562569001109882 10.233826229931308 0.0 0.0 0.0 0.0
509 1 8.662374819467797 10.541412449384195 0.0 0.0 0.0 0.0
510 1 8.589147167002734 9.820960390768535 0.0 0.0 0.0 0.0