ITEM: TIMESTEP
0
ITEM: NUMBER OF ATOMS
2232
ITEM: BOX BOUNDS xy xz yz pp pp pp
0.0 82.68810555352132 0
0.0 83.16 0
-10.0 10.0 0
ITEM: ATOMS id type x y z vx vy vz
1 1 1.787455278688525 0.7861472786885246 5.76166474612e-05 0.0 0.0 0.0
2 1 4.49836524590164 0.7789219016393444 3.59693988222e-05 0.0 0.0 0.0
3 1 7.36624918032787 0.7083899016393442 5.55075968611e-05 0.0 0.0 0.0
4 1 10.055998032786887 0.8945329836065575 5.34231564663e-05 0.0 0.0 0.0
5 1 12.808861639344265 0.7602399344262296 5.66467938905e-05 0.0 0.0 0.0
6 1 15.519110163934428 0.5473816393442624 5.41417630881e-05 0.0 0.0 0.0
7 1 18.226177704918033 1.0060441311475412 2.61118626477e-05 0.0 0.0 0.0
8 1 20.807217704918035 1.1994580327868853 4.95226770685e-05 0.0 0.0 0.0
9 1 23.484242622950823 1.2288190163934427 9.08659569805e-05 0.0 0.0 0.0
10 1 26.22589704918033 1.1213421639344263 5.41075650747e-05 0.0 0.0 0.0
11 1 28.92756196721312 0.7039617704918033 9.60560830151e-05 0.0 0.0 0.0
12 1 31.65598754098361 1.0371420327868852 7.67803118119e-05 0.0 0.0 0.0
13 1 34.17653836065574 1.1419630163934429 7.22288983396e-05 0.0 0.0 0.0
14 1 36.64730426229508 0.7475715409836067 7.20357993646e-07 0.0 0.0 0.0
15 1 39.311756721311475 0.3489018950819673 6.66415907759e-05 0.0 0.0 0.0
16 1 41.97676459016394 0.49690801311475413 9.79468636116e-05 0.0 0.0 0.0
17 1 44.48519737704919 0.7603712131147542 3.1838973078e-06 0.0 0.0 0.0
18 1 47.10996327868853 0.8425617704918034 5.42702619431e-06 0.0 0.0 0.0
19 1 49.7145324590164 0.9251815081967214 3.71262847575e-07 0.0 0.0 0.0
20 1 52.31758688524591 0.890700655737705 4.70210115101e-05 0.0 0.0 0.0
21 1 54.90882622950821 0.30972833442622955 7.35977049474e-05 0.0 0.0 0.0
22 1 56.990603278688525 1.7159336393442624 1.76653341234e-05 0.0 0.0 0.0
23 1 59.76512786885247 0.8784109508196722 9.01202261753e-05 0.0 0.0 0.0
24 1 62.38514754098362 0.9505586885245902 1.40624793346e-05 0.0 0.0 0.0
25 1 65.14755409836067 0.7978563278688525 8.18708209757e-07 0.0 0.0 0.0
26 1 67.79736393442624 0.46863361311475416 7.2130567302e-05 0.0 0.0 0.0
27 1 70.38557377049182 0.3706936524590164 8.98847819348e-05 0.0 0.0 0.0
28 1 72.92026229508197 0.5664574426229508 1.60225291736e-05 0.0 0.0 0.0
29 1 75.42516065573771 0.8481411147540984 9.2564667422e-05 0.0 0.0 0.0
30 1 78.4092262295082 0.9031064918032788 9.55579211385e-05 0.0 0.0 0.0
31 1 81.73310163934427 0.8874439344262296 4.32776901742e-05 0.0 0.0 0.0
32 1 0.3483742557377049 3.0520073442622953 9.54168841882e-05 0.0 0.0 0.0
33 1 2.984338229508197 3.070164196721312 8.51858331955e-05 0.0 0.0 0.0
34 1 5.72228655737705 2.886949639344263 8.21728970322e-05 0.0 0.0 0.0
35 1 8.527156721311476 3.0509672131147547 4.79270885182e-05 0.0 0.0 0.0
36 1 11.277293770491806 3.051764983606558 4.1753219791e-05 0.0 0.0 0.0
37 1 14.982079344262296 2.743169180327869 9.42428447498e-05 0.0 0.0 0.0
38 1 16.517535081967214 2.9605919344262297 3.20882456816e-05 0.0 0.0 0.0
39 1 19.21738229508197 3.463510491803279 4.72638120655e-05 0.0 0.0 0.0
40 1 22.013113442622952 3.5196270819672137 9.26663269838e-05 0.0 0.0 0.0
41 1 24.781276065573774 3.4250003934426236 3.35864370258e-05 0.0 0.0 0.0
42 1 27.49177704918033 3.1911072131147544 6.47293478021e-05 0.0 0.0 0.0
43 1 30.196622950819673 3.1491283278688527 2.57490562384e-05 0.0 0.0 0.0
44 1 32.88687672131148 3.4919070819672138 8.81474593179e-05 0.0 0.0 0.0
45 1 35.473672786885246 3.367268065573771 5.70803214293e-05 0.0 0.0 0.0
46 1 39.02849770491804 2.4696550819672134 4.10118630638e-05 0.0 0.0 0.0
47 1 40.54224196721312 2.6753182950819676 6.50333808669e-05 0.0 0.0 0.0
48 1 43.024368524590166 3.031376393442623 9.98483412041e-05 0.0 0.0 0.0
49 1 45.72613442622951 3.1363185573770496 9.56342403343e-05 0.0 0.0 0.0
50 1 48.475817049180336 3.2396146885245907 1.82487449236e-05 0.0 0.0 0.0
51 1 51.190609836065576 3.2728231475409837 1.53919410259e-05 0.0 0.0 0.0
52 1 53.84395409836066 2.907777508196722 7.85452200716e-05 0.0 0.0 0.0
53 1 56.501337704918036 3.1713497704918034 2.99942076113e-05 0.0 0.0 0.0
54 1 58.81840655737705 3.2438963934426233 4.15981440721e-05 0.0 0.0 0.0
55 1 60.98702950819673 4.43877986885246 5.56474309945e-05 0.0 0.0 0.0
56 1 63.81103606557378 3.245300065573771 6.57228696015e-05 0.0 0.0 0.0
57 1 67.43382295081967 2.7472236721311476 3.35987550625e-05 0.0 0.0 0.0
58 1 68.99805901639344 2.772484721311476 4.97978947954e-05 0.0 0.0 0.0
59 1 71.62110819672132 2.8355287868852463 5.23766999617e-05 0.0 0.0 0.0
60 1 74.3168655737705 3.819866491803279 6.26386876131e-05 0.0 0.0 0.0
61 1 77.06210491803279 2.82729862295082 9.92287405267e-05 0.0 0.0 0.0
62 1 79.26859672131148 2.1874412459016397 2.20217845874e-05 0.0 0.0 0.0
63 1 1.2039669508196722 5.352131147540984 9.45406240915e-05 0.0 0.0 0.0
64 1 4.33950793442623 5.237363278688525 6.18625397591e-05 0.0 0.0 0.0
65 1 7.087029508196721 5.123302295081968 3.490073737e-05 0.0 0.0 0.0
66 1 9.681449836065575 5.25947868852459 4.81173023012e-05 0.0 0.0 0.0
67 1 12.176300327868855 5.4738668852459025 7.28635833911e-05 0.0 0.0 0.0
68 1 14.600310819672133 5.355514098360656 9.25176463998e-05 0.0 0.0 0.0
69 1 17.37655213114754 5.459072786885247 8.30386340255e-05 0.0 0.0 0.0
70 1 20.683714754098364 5.718701639344263 2.99362788938e-05 0.0 0.0 0.0
71 1 23.429862950819675 5.715924590163935 3.25707061606e-05 0.0 0.0 0.0
72 1 26.07957180327869 5.600601311475411 5.34155364595e-05 0.0 0.0 0.0
73 1 28.763564590163938 5.457305573770492 3.66607238485e-05 0.0 0.0 0.0
74 1 31.52819278688525 5.6013586885245905 9.39008811263e-06 0.0 0.0 0.0
75 1 34.113827540983614 5.8194832786885256 8.96698963193e-05 0.0 0.0 0.0
76 1 37.494001311475415 5.384193442622951 8.83139413607e-05 0.0 0.0 0.0
77 1 38.99996983606558 5.220801967213116 2.32295775211e-05 0.0 0.0 0.0
78 1 41.507493770491806 5.281897049180329 1.49629062663e-06 0.0 0.0 0.0
79 1 44.20380655737705 5.355514098360656 4.78386138702e-05 0.0 0.0 0.0
80 1 46.97858360655738 5.419739672131148 6.97441540461e-05 0.0 0.0 0.0
81 1 49.755885245901645 5.548948196721312 7.3577625009e-05 0.0 0.0 0.0
82 1 53.33651147540984 5.233626885245902 5.51777195946e-05 0.0 0.0 0.0
83 1 54.87954098360656 5.311838688524591 6.56537761309e-06 0.0 0.0 0.0
84 1 57.41069508196722 5.738544918032787 7.08870804289e-05 0.0 0.0 0.0
85 1 60.053940983606566 5.696838688524591 1.7935697455e-05 0.0 0.0 0.0
86 1 62.35535737704918 5.698656393442624 1.29159316734e-05 0.0 0.0 0.0
87 1 64.88297704918034 5.607064262295083 6.43835704944e-05 0.0 0.0 0.0
88 1 67.68931147540984 5.348748196721312 4.36223487425e-05 0.0 0.0 0.0
89 1 70.51230819672132 5.222922622950819 8.13578615316e-05 0.0 0.0 0.0
90 1 74.4360262295082 5.333247213114754 5.6332309867e-05 0.0 0.0 0.0
91 1 75.95835409836067 5.24948131147541 4.30950655292e-06 0.0 0.0 0.0
92 1 78.52788196721313 5.042631540983607 3.99445237293e-06 0.0 0.0 0.0
93 1 81.17516721311476 4.978895737704918 8.51706213516e-05 0.0 0.0 0.0
94 1 82.39151475409837 7.385688524590164 9.69124819039e-05 0.0 0.0 0.0
95 1 1.9251413770491805 6.70980524590164 5.14767295467e-05 0.0 0.0 0.0
96 1 5.684821639344263 7.360089180327869 5.02328401094e-05 0.0 0.0 0.0
97 1 8.275859016393444 7.527419016393444 9.96869745448e-05 0.0 0.0 0.0
98 1 10.790047868852461 7.76124655737705 7.71424259457e-05 0.0 0.0 0.0
99 1 13.348164590163936 7.853798032786886 6.69669175176e-06 0.0 0.0 0.0
100 1 15.874976393442624 7.575588196721313 4.66350488285e-05 0.0 0.0 0.0
101 1 18.06899672131148 6.837448524590165 5.06651156298e-05 0.0 0.0 0.0
102 1 21.707335081967216 7.913226885245902 3.41326692972e-05 0.0 0.0 0.0
103 1 24.778246557377052 8.010928524590165 1.96105521306e-05 0.0 0.0 0.0
104 1 27.485061639344266 7.8307232786885255 2.79833679447e-05 0.0 0.0 0.0
105 1 30.122652459016393 7.726053770491804 9.1339717269e-05 0.0 0.0 0.0
106 1 32.76190950819672 8.096966557377051 7.81330384903e-05 0.0 0.0 0.0
107 1 35.86397442622952 8.260307540983607 3.19387355212e-05 0.0 0.0 0.0
108 1 37.37721377049181 8.066065573770492 8.56366000056e-05 0.0 0.0 0.0
109 1 40.07307213114754 7.695657704918034 2.1363196971e-05 0.0 0.0 0.0
110 1 42.676883934426236 7.602045901639345 7.00891946765e-05 0.0 0.0 0.0
111 1 45.42697049180328 7.589120000000001 3.07903646327e-05 0.0 0.0 0.0
112 1 48.07733573770493 7.6782380327868855 8.12158517205e-05 0.0 0.0 0.0
113 1 50.66852459016393 7.95952786885246 1.71806701069e-05 0.0 0.0 0.0
114 1 53.25925901639344 7.930495081967214 6.00874706834e-05 0.0 0.0 0.0
115 1 55.965114754098366 7.954680655737706 3.341186488e-05 0.0 0.0 0.0
116 1 58.51242622950821 8.07853704918033 9.33015547146e-05 0.0 0.0 0.0
117 1 61.017829508196726 8.222741639344262 2.0286709399e-05 0.0 0.0 0.0
118 1 63.489908196721316 7.991135737704918 7.62726584576e-05 0.0 0.0 0.0
119 1 65.60248524590165 6.951509508196722 8.75579815459e-06 0.0 0.0 0.0
120 1 69.08389508196723 7.495558688524591 7.47541428582e-05 0.0 0.0 0.0
121 1 71.67361967213115 7.69272918032787 6.39578449548e-05 0.0 0.0 0.0
122 1 74.24011803278688 7.646478688524591 8.96815872169e-05 0.0 0.0 0.0
123 1 77.07977704918032 7.516512786885246 9.47070381813e-05 0.0 0.0 0.0
124 1 79.772 7.360392131147542 7.52213936785e-05 0.0 0.0 0.0
125 1 1.2791139016393445 9.56466229508197 6.27533211125e-05 0.0 0.0 0.0
126 1 4.021015737704919 9.321342295081967 6.00552110152e-05 0.0 0.0 0.0
127 1 6.756207213114755 9.757944918032788 5.02220834795e-05 0.0 0.0 0.0
128 1 9.358100327868852 10.032165901639345 6.05635587043e-05 0.0 0.0 0.0
129 1 11.975393442622952 10.169655081967214 3.25440688495e-05 0.0 0.0 0.0
130 1 14.633029508196724 10.087504918032788 8.67877324725e-05 0.0 0.0 0.0
131 1 17.245525901639343 9.722247213114754 3.62828234102e-05 0.0 0.0 0.0
132 1 19.887105573770494 9.716794098360657 2.8403775501e-05 0.0 0.0 0.0
133 1 22.316064262295086 9.316697049180329 7.87677202873e-05 0.0 0.0 0.0
134 1 25.906637377049183 10.145520000000001 9.95573953627e-05 0.0 0.0 0.0
135 1 29.425007213114757 9.97117180327869 9.40955482534e-05 0.0 0.0 0.0
136 1 30.950061639344263 10.13633049180328 6.65048325717e-05 0.0 0.0 0.0
137 1 33.42855278688525 10.836702295081968 8.92214054567e-05 0.0 0.0 0.0
138 1 36.04236196721312 10.903654426229508 3.53498122943e-05 0.0 0.0 0.0
139 1 38.75089377049181 10.1486 8.82662766555e-05 0.0 0.0 0.0
140 1 41.41403344262295 10.029843278688526 1.15917249415e-07 0.0 0.0 0.0
141 1 44.0058786885246 9.808739672131148 9.9338093516e-05 0.0 0.0 0.0
142 1 46.627413114754106 9.940169836065573 7.50993041098e-05 0.0 0.0 0.0
143 1 49.15356852459016 10.143348852459017 5.80432738612e-05 0.0 0.0 0.0
144 1 51.86972459016394 10.278565901639345 2.38790139162e-05 0.0 0.0 0.0
145 1 54.67605901639345 10.265640000000001 8.07580810004e-05 0.0 0.0 0.0
146 1 57.24003278688525 10.478260983606559 7.71212504453e-05 0.0 0.0 0.0
147 1 59.84238032786886 10.583586885245902 7.49868469639e-06 0.0 0.0 0.0
148 1 62.6512393442623 10.486238688524592 2.9851704734e-05 0.0 0.0 0.0
149 1 65.3156918032787 9.828532459016394 8.45692638114e-05 0.0 0.0 0.0
150 1 67.62367213114756 10.763388196721312 8.37845180208e-07 0.0 0.0 0.0
151 1 70.44060983606558 9.943956721311476 9.5503524015e-05 0.0 0.0 0.0
152 1 73.14798032786886 10.029439344262295 4.89948711124e-05 0.0 0.0 0.0
153 1 75.82808524590165 9.777838688524591 5.51619246202e-05 0.0 0.0 0.0
154 1 78.50011147540985 9.747291147540984 7.76942936023e-05 0.0 0.0 0.0
155 1 81.21808524590165 9.723055081967214 5.28701141517e-05 0.0 0.0 0.0
156 1 82.53491147540984 11.920155409836067 5.75685989843e-05 0.0 0.0 0.0
157 1 3.524499540983607 11.475070163934427 6.05280938815e-05 0.0 0.0 0.0
158 1 5.061399344262296 11.699001311475412 6.34008379887e-05 0.0 0.0 0.0
159 1 7.797954098360657 12.212805901639346 7.50430782893e-06 0.0 0.0 0.0
160 1 10.515220983606559 12.429163278688526 8.24543876228e-05 0.0 0.0 0.0
161 1 13.189468852459017 12.426537704918035 2.00193898918e-05 0.0 0.0 0.0
162 1 15.874925901639346 12.23189180327869 1.83017913997e-05 0.0 0.0 0.0
163 1 18.51706098360656 12.049919344262298 5.52708006645e-06 0.0 0.0 0.0
164 1 21.197418360655742 11.974232131147541 9.57697611939e-05 0.0 0.0 0.0
165 1 23.939981639344264 12.125101639344264 2.02015343935e-05 0.0 0.0 0.0
166 1 26.38762229508197 12.602047213114755 9.18579965794e-05 0.0 0.0 0.0
167 1 29.129125245901644 12.6149731147541 7.64626882454e-05 0.0 0.0 0.0
168 1 31.832658360655742 12.830421639344264 8.94404442291e-05 0.0 0.0 0.0
169 1 34.5746662295082 13.206989508196722 7.74817604835e-05 0.0 0.0 0.0
170 1 38.29873967213115 12.52105836065574 8.20258607395e-05 0.0 0.0 0.0
171 1 39.843435409836076 12.379176393442624 4.14137520109e-05 0.0 0.0 0.0
172 1 43.43148393442624 12.130756721311478 9.9990906688e-05 0.0 0.0 0.0
173 1 44.97496786885247 12.15756786885246 3.6800009966e-05 0.0 0.0 0.0
174 1 47.58761573770492 12.425174426229509 4.0616655765e-05 0.0 0.0 0.0
175 1 50.212331147540986 12.430173114754101 1.53106958619e-05 0.0 0.0 0.0
176 1 52.976504918032795 12.408007213114756 5.1668498065e-05 0.0 0.0 0.0
177 1 55.73891147540984 12.814314754098362 1.91940721712e-05 0.0 0.0 0.0
178 1 58.67955409836066 12.947057704918034 8.47918773111e-05 0.0 0.0 0.0
179 1 61.47982950819673 12.71853180327869 4.77265071371e-06 0.0 0.0 0.0
180 1 64.16952786885247 12.445371147540984 3.82380560274e-05 0.0 0.0 0.0
181 1 66.8789180327869 12.104248524590165 6.90507548714e-05 0.0 0.0 0.0
182 1 69.40855737704919 12.286019016393443 8.32846129617e-06 0.0 0.0 0.0
183 1 71.94779016393443 12.246180983606557 5.84084792869e-05 0.0 0.0 0.0
184 1 74.61022295081968 12.19881967213115 5.37172483341e-05 0.0 0.0 0.0
185 1 77.21206557377049 12.099249836065576 1.66716841884e-05 0.0 0.0 0.0
186 1 79.83864918032788 12.024875409836067 8.61065201088e-05 0.0 0.0 0.0
187 1 0.873301180327869 14.293320655737705 9.20881921339e-05 0.0 0.0 0.0
188 1 3.493093639344263 14.035206557377052 7.39177525741e-05 0.0 0.0 0.0
189 1 6.402158688524591 14.18112786885246 3.81909667945e-05 0.0 0.0 0.0
190 1 9.099430819672131 14.587182950819674 5.17314214166e-05 0.0 0.0 0.0
191 1 11.775395409836067 14.737749508196723 5.39465757438e-05 0.0 0.0 0.0
192 1 14.407482622950821 14.614095081967214 4.73373760669e-05 0.0 0.0 0.0
193 1 17.172110819672135 14.46645704918033 4.74445877067e-05 0.0 0.0 0.0
194 1 19.673777704918034 14.309124590163936 7.48771981708e-05 0.0 0.0 0.0
195 1 22.313640655737707 14.278829508196722 5.31381068048e-07 0.0 0.0 0.0
196 1 24.94456655737705 14.791472786885247 3.66965185537e-05 0.0 0.0 0.0
197 1 27.671376393442625 14.779405245901641 3.27777713678e-05 0.0 0.0 0.0
198 1 30.203944262295085 14.976474754098362 4.11193799225e-05 0.0 0.0 0.0
199 1 32.880413770491806 15.223076721311477 1.73833919947e-05 0.0 0.0 0.0
200 1 35.552843934426235 15.50320524590164 1.92593790196e-05 0.0 0.0 0.0
201 1 38.06672983606558 15.200708852459018 3.13628534844e-05 0.0 0.0 0.0
202 1 40.76395147540984 14.931436065573772 4.09234738607e-05 0.0 0.0 0.0
203 1 43.33751868852459 14.713563934426231 5.25898435968e-07 0.0 0.0 0.0
204 1 46.20944196721312 14.652468852459018 2.96995001682e-05 0.0 0.0 0.0
205 1 48.85299081967214 14.772790819672132 9.13284683109e-05 0.0 0.0 0.0
206 1 51.390052459016395 14.591121311475412 3.16845730231e-05 0.0 0.0 0.0
207 1 54.08227540983607 14.735931803278689 6.35789555405e-05 0.0 0.0 0.0
208 1 56.31906229508197 14.270649836065576 8.08878236936e-05 0.0 0.0 0.0
209 1 60.098373770491804 14.999751475409838 8.0089049408e-05 0.0 0.0 0.0
210 1 62.787062295081974 14.896697704918035 8.07168932742e-05 0.0 0.0 0.0
211 1 66.24979016393443 14.394203278688526 4.87830542772e-06 0.0 0.0 0.0
212 1 67.7796918032787 14.516393442622952 9.99182445741e-05 0.0 0.0 0.0
213 1 70.41435409836066 14.618083934426231 9.42371612249e-05 0.0 0.0 0.0
214 1 73.18685901639346 14.524674098360657 6.44777358022e-05 0.0 0.0 0.0
215 1 75.91594098360657 14.525280000000002 1.43287085323e-05 0.0 0.0 0.0
216 1 78.502131147541 14.427426885245902 5.45396090173e-05 0.0 0.0 0.0
217 1 81.03480000000002 14.2682262295082 1.93466615751e-05 0.0 0.0 0.0
218 1 82.28800655737706 16.68133049180328 2.14982535722e-05 0.0 0.0 0.0
219 1 2.2693187540983613 16.45189573770492 6.89797859055e-05 0.0 0.0 0.0
220 1 4.999849836065574 16.14581442622951 1.92902223183e-05 0.0 0.0 0.0
221 1 7.727972459016394 16.668152131147544 4.96639863534e-05 0.0 0.0 0.0
222 1 10.403280655737706 16.988068196721315 2.65207465423e-05 0.0 0.0 0.0
223 1 13.061623606557378 17.038055081967215 3.21536608233e-05 0.0 0.0 0.0
224 1 15.780607213114754 16.738083278688528 8.52715304805e-05 0.0 0.0 0.0
225 1 18.52922950819672 16.829978360655737 9.22706214443e-06 0.0 0.0 0.0
226 1 21.59973704918033 16.46482163934426 3.92926297682e-05 0.0 0.0 0.0
227 1 22.90828262295082 15.687904262295083 3.75326369671e-05 0.0 0.0 0.0
228 1 26.34223016393443 16.960802622950823 8.72381211713e-05 0.0 0.0 0.0
229 1 28.366598032786886 18.340036721311478 6.82401462165e-05 0.0 0.0 0.0
230 1 31.144556065573774 17.343278032786888 7.41162090898e-05 0.0 0.0 0.0
231 1 33.90161049180328 17.61770098360656 1.38859606529e-05 0.0 0.0 0.0
232 1 37.14272983606558 17.715958032786887 2.22271739446e-05 0.0 0.0 0.0
233 1 39.732504918032795 17.316365901639347 5.77170285406e-05 0.0 0.0 0.0
234 1 42.265123278688534 17.173171147540987 9.67365563155e-06 0.0 0.0 0.0
235 1 44.93432196721312 16.795240000000003 3.65118923301e-05 0.0 0.0 0.0
236 1 47.69778885245902 17.05557573770492 1.33895225097e-05 0.0 0.0 0.0
237 1 50.76748852459017 16.963226229508198 9.82082604227e-05 0.0 0.0 0.0
238 1 53.49657049180328 17.77043868852459 4.98319654252e-05 0.0 0.0 0.0
239 1 55.8560524590164 18.2260262295082 5.38929467831e-05 0.0 0.0 0.0
240 1 58.5624131147541 17.186198032786887 2.57719017293e-05 0.0 0.0 0.0
241 1 61.227875409836074 17.233660327868854 8.79426034649e-05 0.0 0.0 0.0
242 1 63.83274754098361 17.335653770491803 7.05762038045e-05 0.0 0.0 0.0
243 1 66.31997377049181 17.101927213114756 5.11418167667e-05 0.0 0.0 0.0
244 1 68.97685245901641 16.900868852459016 7.61363988082e-06 0.0 0.0 0.0
245 1 71.56809180327869 16.747727213114754 4.07447856555e-05 0.0 0.0 0.0
246 1 74.28859016393443 16.7575731147541 2.60686232582e-05 0.0 0.0 0.0
247 1 77.42716065573771 16.861737704918035 7.05371586134e-05 0.0 0.0 0.0
248 1 79.93508852459017 16.76645967213115 6.90182938123e-05 0.0 0.0 0.0
249 1 1.1395545573770494 18.811377704918037 2.89441395138e-05 0.0 0.0 0.0
250 1 3.8934885901639347 18.465306885245905 9.03145635128e-05 0.0 0.0 0.0
251 1 6.21816655737705 19.643735081967215 7.67230857486e-05 0.0 0.0 0.0
252 1 9.066358688524591 19.153611147540985 3.2594170844e-05 0.0 0.0 0.0
253 1 11.58655606557377 19.38143016393443 9.37077142671e-06 0.0 0.0 0.0
254 1 15.18955016393443 18.974213770491804 3.48921270997e-05 0.0 0.0 0.0
255 1 16.733488524590165 18.949270819672133 5.26871979219e-05 0.0 0.0 0.0
256 1 19.377390819672133 19.391225573770495 3.48344571088e-05 0.0 0.0 0.0
257 1 21.959087213114756 19.31053967213115 9.63813534395e-05 0.0 0.0 0.0
258 1 24.654592131147542 19.1846131147541 9.46108693207e-05 0.0 0.0 0.0
259 1 27.38705704918033 19.526493114754103 2.00043846811e-05 0.0 0.0 0.0
260 1 30.031312786885252 19.76021967213115 5.26498267399e-05 0.0 0.0 0.0
261 1 32.6150793442623 19.631869508196726 3.84551078133e-05 0.0 0.0 0.0
262 1 34.693776393442626 18.928013770491805 8.26323650135e-05 0.0 0.0 0.0
263 1 38.39578491803279 19.81596262295082 5.22450888253e-05 0.0 0.0 0.0
264 1 41.26700131147541 19.63691868852459 8.96159885911e-05 0.0 0.0 0.0
265 1 43.9193862295082 19.22111868852459 3.99257819164e-06 0.0 0.0 0.0
266 1 46.46301180327869 19.085851147540986 7.23598027305e-05 0.0 0.0 0.0
267 1 48.669604590163935 18.274498360655738 4.8955806206e-05 0.0 0.0 0.0
268 1 52.75232131147542 19.140028852459018 6.1545327535e-05 0.0 0.0 0.0
269 1 55.22036065573771 19.632727868852463 5.94295514312e-05 0.0 0.0 0.0
270 1 57.503600000000006 19.76976262295082 6.34235102912e-05 0.0 0.0 0.0
271 1 60.03273442622952 19.54623540983607 6.0104698241e-05 0.0 0.0 0.0
272 1 62.66891147540984 19.61611606557377 3.12601293883e-05 0.0 0.0 0.0
273 1 65.3308393442623 19.613793442622953 5.69138581915e-05 0.0 0.0 0.0
274 1 67.91450491803279 19.308873442622954 2.65381656577e-05 0.0 0.0 0.0
275 1 70.4320262295082 19.176887868852464 8.97484058364e-05 0.0 0.0 0.0
276 1 72.90915409836066 18.963711475409838 2.66824883009e-06 0.0 0.0 0.0
277 1 75.10352786885247 18.049405901639346 3.97986853986e-05 0.0 0.0 0.0
278 1 78.64653770491803 19.233691147540984 8.26433296083e-05 0.0 0.0 0.0
279 1 81.18779016393444 19.266712786885247 4.59928179091e-05 0.0 0.0 0.0
280 1 0.7639005901639345 21.10648262295082 1.96156683855e-05 0.0 0.0 0.0
281 1 2.2847995409836064 20.790858360655736 9.05377199913e-05 0.0 0.0 0.0
282 1 5.172834754098361 20.756725901639346 2.71577145754e-05 0.0 0.0 0.0
283 1 7.769224262295083 21.433316065573774 1.7469747308e-05 0.0 0.0 0.0
284 1 10.117194098360656 21.73672131147541 8.93907749368e-05 0.0 0.0 0.0
285 1 12.493944262295082 21.882137704918037 8.81637731058e-05 0.0 0.0 0.0
286 1 15.087304262295085 21.56398885245902 1.28673668394e-05 0.0 0.0 0.0
287 1 17.944080000000003 21.456794754098365 5.3877139499e-05 0.0 0.0 0.0
288 1 20.760714754098363 21.72101836065574 1.05126596555e-05 0.0 0.0 0.0
289 1 23.320800655737706 21.625184918032787 9.22204394246e-05 0.0 0.0 0.0
290 1 25.85675147540984 21.61609639344263 8.76323571156e-05 0.0 0.0 0.0
291 1 28.64793836065574 21.903445245901644 6.63038879969e-05 0.0 0.0 0.0
292 1 31.51592327868853 22.00160131147541 8.71433572829e-05 0.0 0.0 0.0
293 1 34.15765442622951 21.81725573770492 3.03174645657e-05 0.0 0.0 0.0
294 1 36.79862819672131 21.78494098360656 5.74420540221e-05 0.0 0.0 0.0
295 1 39.10004459016394 21.168638032786887 7.00869811593e-05 0.0 0.0 0.0
296 1 42.801952131147544 21.666032786885246 7.98906838466e-05 0.0 0.0 0.0
297 1 45.40692524590164 21.51273967213115 1.65284639346e-05 0.0 0.0 0.0
298 1 48.064561311475416 21.14566426229508 6.31806650303e-05 0.0 0.0 0.0
299 1 50.852819672131155 21.0788131147541 7.20695356212e-05 0.0 0.0 0.0
300 1 53.555140983606556 21.777872131147543 8.36083928837e-05 0.0 0.0 0.0
301 1 56.03933770491803 22.246486557377054 3.30389138938e-05 0.0 0.0 0.0
302 1 58.76185573770493 22.057697704918034 8.31881786621e-05 0.0 0.0 0.0
303 1 61.50002622950821 21.902940327868855 3.11522287192e-05 0.0 0.0 0.0
304 1 64.20941639344264 21.90036524590164 4.85002979349e-05 0.0 0.0 0.0
305 1 66.89659016393443 21.797816393442623 7.46443859393e-05 0.0 0.0 0.0
306 1 69.52872786885247 21.63588918032787 2.51711316966e-05 0.0 0.0 0.0
307 1 72.12602622950821 21.44407081967213 3.12993662369e-05 0.0 0.0 0.0
308 1 74.74503606557377 20.869171147540985 7.89956145658e-05 0.0 0.0 0.0
309 1 76.67584262295082 22.3908931147541 7.85664176777e-06 0.0 0.0 0.0
310 1 79.67505573770492 21.69016786885246 1.30785196662e-05 0.0 0.0 0.0
311 1 0.627244524590164 23.81183344262295 4.07222762781e-05 0.0 0.0 0.0
312 1 4.216252393442623 22.753777704918036 1.08605757214e-05 0.0 0.0 0.0
313 1 5.683811803278689 23.166952131147543 7.29632149766e-05 0.0 0.0 0.0
314 1 8.203504262295082 23.99173573770492 6.72946880738e-05 0.0 0.0 0.0
315 1 11.32596786885246 24.35623606557377 7.22078413918e-05 0.0 0.0 0.0
316 1 13.961993442622953 24.035411147540987 3.09537841695e-05 0.0 0.0 0.0
317 1 16.636796721311477 23.624256393442625 1.94399111606e-05 0.0 0.0 0.0
318 1 19.333917377049183 23.74260918032787 2.05781254525e-05 0.0 0.0 0.0
319 1 21.951361967213117 24.120944262295083 9.66699796487e-05 0.0 0.0 0.0
320 1 24.793040655737705 24.072724590163936 4.24983086001e-05 0.0 0.0 0.0
321 1 27.424622950819675 23.88969180327869 3.72312055315e-05 0.0 0.0 0.0
322 1 30.152341639344264 23.993401967213117 1.14453883443e-06 0.0 0.0 0.0
323 1 32.886220327868855 24.222230819672134 1.45017625116e-05 0.0 0.0 0.0
324 1 35.64004327868853 24.110643934426232 8.49261223124e-05 0.0 0.0 0.0
325 1 38.438652459016396 23.926096393442624 3.3390739632e-05 0.0 0.0 0.0
326 1 41.23544393442623 23.856367213114755 1.29755480105e-05 0.0 0.0 0.0
327 1 43.97447278688525 23.90670754098361 9.75606559042e-05 0.0 0.0 0.0
328 1 46.61807213114755 23.612289836065578 7.49668964672e-05 0.0 0.0 0.0
329 1 49.16523213114754 23.31645836065574 8.98036098142e-06 0.0 0.0 0.0
330 1 51.80862950819673 23.59911147540984 8.37585345028e-05 0.0 0.0 0.0
331 1 54.872472131147546 25.805148852459016 9.22182891405e-05 0.0 0.0 0.0
332 1 57.55611147540984 24.424753442622954 4.12427799454e-05 0.0 0.0 0.0
333 1 60.3685049180328 24.202942950819672 2.46231141214e-05 0.0 0.0 0.0
334 1 63.085468852459016 24.1550262295082 6.06438929915e-05 0.0 0.0 0.0
335 1 65.76759344262295 24.127104262295084 9.05828005342e-05 0.0 0.0 0.0
336 1 68.46284590163935 24.037784262295084 7.5961780578e-05 0.0 0.0 0.0
337 1 71.19394754098361 23.882925901639346 9.41046573667e-05 0.0 0.0 0.0
338 1 73.86799344262296 23.42774229508197 7.56023310114e-05 0.0 0.0 0.0
339 1 75.72457704918033 24.911292459016394 2.18792429504e-05 0.0 0.0 0.0
340 1 78.3400524590164 23.93518491803279 5.59112564718e-05 0.0 0.0 0.0
341 1 81.14537704918034 23.95533114754099 5.70449223772e-05 0.0 0.0 0.0
342 1 82.42635409836068 26.509711475409837 5.91623931593e-05 0.0 0.0 0.0
343 1 2.73774131147541 25.8914393442623 4.42136699377e-05 0.0 0.0 0.0
344 1 4.171839803278688 25.354560000000003 4.6720118766e-07 0.0 0.0 0.0
345 1 6.526217049180328 26.784235409836068 5.80716542733e-05 0.0 0.0 0.0
346 1 8.955832131147542 25.338251147540984 5.69814732252e-05 0.0 0.0 0.0
347 1 13.033954098360658 26.46270360655738 8.24551704941e-05 0.0 0.0 0.0
348 1 15.56142229508197 26.04846885245902 8.12304475369e-05 0.0 0.0 0.0
349 1 18.048699016393446 25.92410754098361 7.85502346238e-05 0.0 0.0 0.0
350 1 20.56723016393443 26.236197377049184 6.17825634933e-05 0.0 0.0 0.0
351 1 22.625276065573775 25.52673704918033 1.75799968305e-06 0.0 0.0 0.0
352 1 26.417361967213115 26.255889180327873 5.16162573496e-06 0.0 0.0 0.0
353 1 29.079693770491808 26.111482622950824 4.29575313079e-05 0.0 0.0 0.0
354 1 31.516226229508202 27.315762622950825 8.08410677043e-05 0.0 0.0 0.0
355 1 34.36770032786885 26.400851147540987 3.89488181932e-05 0.0 0.0 0.0
356 1 37.17953836065574 26.20635672131148 3.73190149772e-05 0.0 0.0 0.0
357 1 39.94194491803279 26.096688524590167 8.48014668172e-05 0.0 0.0 0.0
358 1 42.649163934426234 26.134658360655738 2.95549563246e-05 0.0 0.0 0.0
359 1 45.295136393442625 26.071745573770492 3.11226025677e-05 0.0 0.0 0.0
360 1 47.8644118032787 25.849682622950823 3.37872261253e-06 0.0 0.0 0.0
361 1 50.462215081967216 25.730723934426234 3.42634589252e-05 0.0 0.0 0.0
362 1 52.69274098360656 24.854438688524592 6.51546465322e-05 0.0 0.0 0.0
363 1 56.80176393442623 26.877190819672133 4.53710165039e-05 0.0 0.0 0.0
364 1 59.42834754098361 26.408525901639347 6.54379457649e-05 0.0 0.0 0.0
365 1 62.0236262295082 26.413373114754098 4.29739966795e-05 0.0 0.0 0.0
366 1 64.59870819672132 26.43099475409836 1.83125311874e-05 0.0 0.0 0.0
367 1 67.21569836065575 26.374342950819678 4.42802409739e-05 0.0 0.0 0.0
368 1 69.88620983606558 26.235440000000004 6.87502812767e-05 0.0 0.0 0.0
369 1 72.54005901639346 26.02185967213115 3.11473570975e-05 0.0 0.0 0.0
370 1 75.13028852459017 26.340361967213116 1.08600853445e-05 0.0 0.0 0.0
371 1 77.4200918032787 26.519254426229512 9.17162370708e-05 0.0 0.0 0.0
372 1 79.96336393442624 26.02428327868853 3.89346429757e-05 0.0 0.0 0.0
373 1 0.6195950163934427 29.166085245901645 9.71196439479e-06 0.0 0.0 0.0
374 1 3.2390188852459016 28.591539016393448 8.76192684275e-05 0.0 0.0 0.0
375 1 6.0180675409836075 28.2305731147541 9.61397573561e-05 0.0 0.0 0.0
376 1 8.620819016393442 27.992150819672133 7.62899316512e-05 0.0 0.0 0.0
377 1 10.872652459016395 27.1679731147541 7.8814310017e-05 0.0 0.0 0.0
378 1 14.535125901639345 28.582198032786888 6.754071715e-05 0.0 0.0 0.0
379 1 17.04522491803279 28.36755737704918 9.22072304685e-05 0.0 0.0 0.0
380 1 19.42212655737705 29.579815081967215 8.6925831309e-05 0.0 0.0 0.0
381 1 22.127477377049182 28.485253770491806 8.15240438316e-05 0.0 0.0 0.0
382 1 24.9195731147541 28.35341967213115 1.27790208622e-05 0.0 0.0 0.0
383 1 27.766200000000005 28.48596065573771 7.16020906038e-05 0.0 0.0 0.0
384 1 30.64685836065574 28.586540327868853 4.8633925773e-05 0.0 0.0 0.0
385 1 33.300253114754106 28.732916065573775 8.05831224214e-05 0.0 0.0 0.0
386 1 36.002523934426236 28.46429967213115 2.06622363865e-05 0.0 0.0 0.0
387 1 38.71080327868853 28.374727213114756 7.80081362629e-05 0.0 0.0 0.0
388 1 41.426807868852464 28.39608524590164 1.1538484482e-05 0.0 0.0 0.0
389 1 44.07570885245902 28.441477377049182 7.44191830719e-05 0.0 0.0 0.0
390 1 46.63094754098361 28.344684590163936 4.09365876169e-05 0.0 0.0 0.0
391 1 49.260106229508196 28.13357836065574 1.15736644688e-05 0.0 0.0 0.0
392 1 52.03129836065575 27.75170885245902 9.59860331223e-05 0.0 0.0 0.0
393 1 54.4700524590164 27.337120655737706 9.73945082656e-05 0.0 0.0 0.0
394 1 58.08375081967214 28.86131672131148 5.01334339508e-05 0.0 0.0 0.0
395 1 60.80273442622952 28.74564 4.35706548317e-05 0.0 0.0 0.0
396 1 63.36721311475411 28.796384262295085 8.91448199778e-05 0.0 0.0 0.0
397 1 65.89584262295084 28.7589193442623 9.22853306053e-05 0.0 0.0 0.0
398 1 68.51283278688526 28.62183409836066 3.10209177405e-05 0.0 0.0 0.0
399 1 71.15607868852459 28.474751475409835 9.23539288078e-05 0.0 0.0 0.0
400 1 73.7432786885246 28.557558032786886 6.23525990572e-05 0.0 0.0 0.0
401 1 76.39712786885248 28.957655081967214 2.08815155043e-05 0.0 0.0 0.0
402 1 79.88257704918034 28.13332590163935 7.95386906855e-05 0.0 0.0 0.0
403 1 80.57633442622952 30.35748983606558 3.41981482864e-05 0.0 0.0 0.0
404 1 0.05428676721311476 31.55768 7.8635227225e-05 0.0 0.0 0.0
405 1 2.6875575081967216 31.02337573770492 2.90853676594e-05 0.0 0.0 0.0
406 1 5.1174452459016395 30.55279213114754 3.04852013269e-05 0.0 0.0 0.0
407 1 7.7493809836065575 30.37652524590164 7.58886615882e-05 0.0 0.0 0.0
408 1 10.431152131147542 29.991070819672135 1.25063147037e-05 0.0 0.0 0.0
409 1 13.104390163934427 30.666802622950822 6.44577281899e-05 0.0 0.0 0.0
410 1 15.734407213114755 30.88139278688525 7.0608637169e-05 0.0 0.0 0.0
411 1 18.52433180327869 30.832567213114757 6.72149122713e-05 0.0 0.0 0.0
412 1 20.988028852459017 31.08876262295082 1.84848449053e-05 0.0 0.0 0.0