ITEM: TIMESTEP
0
ITEM: NUMBER OF ATOMS
2232
ITEM: BOX BOUNDS xy xz yz pp pp pp
0.0 82.68810555352132 0
0.0 83.16 0
-10.0 10.0 0
ITEM: ATOMS id type x y z vx vy vz
1 1 1.7094959344262297 0.7278040000000001 4.67198676789e-05 0.0 0.0 0.0
2 1 4.248486360655739 0.7277838032786885 6.50930008232e-05 0.0 0.0 0.0
3 1 7.069609836065575 0.8240868196721313 8.81544848847e-05 0.0 0.0 0.0
4 1 9.838176393442623 1.053784131147541 9.69721704544e-05 0.0 0.0 0.0
5 1 12.453954754098362 0.6474361967213115 9.73714511046e-05 0.0 0.0 0.0
6 1 15.162537049180328 0.5002440065573771 3.75648127263e-05 0.0 0.0 0.0
7 1 17.799471475409838 0.3553123344262295 5.21926665453e-05 0.0 0.0 0.0
8 1 20.55955540983607 0.31532030163934427 9.13233850533e-05 0.0 0.0 0.0
9 1 23.11120918032787 0.3455850885245902 4.99386072469e-05 0.0 0.0 0.0
10 1 25.80009967213115 0.31188382950819676 4.50759022152e-05 0.0 0.0 0.0
11 1 28.36412393442623 0.49238192786885254 4.31618063233e-05 0.0 0.0 0.0
12 1 31.082956065573775 0.5145114754098361 7.85712201091e-05 0.0 0.0 0.0
13 1 33.69797704918034 0.7297125901639345 4.04562246273e-05 0.0 0.0 0.0
14 1 36.535464918032794 0.9777990163934427 2.65338038664e-06 0.0 0.0 0.0
15 1 39.178559344262304 0.7249764590163935 2.1143008011e-05 0.0 0.0 0.0
16 1 41.48527737704919 1.82691462295082 4.33561008443e-05 0.0 0.0 0.0
17 1 44.27085967213115 0.6110013114754099 1.18912942468e-05 0.0 0.0 0.0
18 1 46.9323331147541 0.4275696393442623 6.12260476914e-05 0.0 0.0 0.0
19 1 49.11499278688525 1.8082982950819675 6.4157717422e-06 0.0 0.0 0.0
20 1 52.81543606557378 0.4819164918032787 2.21321388411e-05 0.0 0.0 0.0
21 1 54.37462295081968 0.590749049180328 3.40364511709e-05 0.0 0.0 0.0
22 1 57.15268196721312 0.671596524590164 6.33892247177e-06 0.0 0.0 0.0
23 1 59.975678688524596 0.41808222950819673 8.83465900737e-05 0.0 0.0 0.0
24 1 62.61034098360657 1.5976010491803279 3.8479094855e-05 0.0 0.0 0.0
25 1 65.13998032786886 2.292802491803279 3.67875316867e-05 0.0 0.0 0.0
26 1 67.98923278688525 1.572496524590164 3.85376582926e-05 0.0 0.0 0.0
27 1 70.8864524590164 1.2628353442622953 5.65315490897e-05 0.0 0.0 0.0
28 1 73.46506885245903 2.219887278688525 2.60686214099e-05 0.0 0.0 0.0
29 1 76.34360655737706 1.231616262295082 4.5014965855e-06 0.0 0.0 0.0
30 1 79.25395409836067 1.159513967213115 4.52774413532e-05 0.0 0.0 0.0
31 1 0.15294724590163936 0.7200333114754099 2.70244261443e-07 0.0 0.0 0.0
32 1 0.3754196852459017 3.370267278688525 9.66573964744e-05 0.0 0.0 0.0
33 1 3.196015016393443 3.198968786885246 5.600245911e-05 0.0 0.0 0.0
34 1 5.952175737704918 2.8715445901639347 7.90904737203e-05 0.0 0.0 0.0
35 1 8.247785573770493 4.219049639344263 5.51720368483e-05 0.0 0.0 0.0
36 1 12.078952131147542 2.97736531147541 3.54494241686e-05 0.0 0.0 0.0
37 1 13.626879344262296 2.8166650491803282 5.95116376522e-05 0.0 0.0 0.0
38 1 16.29067540983607 2.783911016393443 3.59538824536e-05 0.0 0.0 0.0
39 1 19.002287213114755 2.6068968524590166 1.62896417034e-05 0.0 0.0 0.0
40 1 21.666436721311477 2.710904918032787 7.67496315452e-05 0.0 0.0 0.0
41 1 24.3189731147541 2.6121328524590166 1.80637058838e-05 0.0 0.0 0.0
42 1 26.934448524590167 2.7396448524590165 1.90722407196e-05 0.0 0.0 0.0
43 1 29.681859016393446 2.7266331147540988 2.05763866088e-05 0.0 0.0 0.0
44 1 32.256739016393446 3.00724131147541 6.89661556113e-05 0.0 0.0 0.0
45 1 34.90932590163935 3.0585914754098362 7.62247630208e-05 0.0 0.0 0.0
46 1 37.76897967213115 3.1984992131147547 2.29003138049e-05 0.0 0.0 0.0
47 1 40.62812852459017 3.175050819672131 8.38264956972e-05 0.0 0.0 0.0
48 1 44.025267540983606 2.7977104262295085 2.24428457639e-05 0.0 0.0 0.0
49 1 45.56693377049181 2.8026434754098366 4.36538867017e-05 0.0 0.0 0.0
50 1 48.232345573770495 3.0800656393442627 1.88791639446e-05 0.0 0.0 0.0
51 1 50.66044590163935 3.567579147540984 7.44942000441e-05 0.0 0.0 0.0
52 1 53.1456524590164 3.072698885245902 5.03989913043e-05 0.0 0.0 0.0
53 1 56.014091803278696 2.867490098360656 7.12610314799e-05 0.0 0.0 0.0
54 1 58.89868852459017 2.6613472131147544 2.41383780542e-05 0.0 0.0 0.0
55 1 61.80499672131148 2.9246417704918035 2.06553404031e-05 0.0 0.0 0.0
56 1 64.36846557377051 3.622867672131148 8.87612108103e-05 0.0 0.0 0.0
57 1 66.83246557377049 3.9596782950819676 6.06672855242e-05 0.0 0.0 0.0
58 1 69.69787540983607 3.5189050491803284 5.50371356925e-05 0.0 0.0 0.0
59 1 72.61680655737705 3.510972786885246 5.98732218813e-05 0.0 0.0 0.0
60 1 75.19996721311476 3.559237901639345 6.43511469733e-05 0.0 0.0 0.0
61 1 77.93359344262295 3.291000196721312 5.1659509117e-05 0.0 0.0 0.0
62 1 80.53089180327869 3.515729114754099 8.41628641167e-05 0.0 0.0 0.0
63 1 1.8187753442622954 5.565156065573771 9.95412002435e-05 0.0 0.0 0.0
64 1 5.500476065573771 5.10396393442623 3.25263443766e-05 0.0 0.0 0.0
65 1 7.069205901639345 5.223074098360656 4.62354530366e-05 0.0 0.0 0.0
66 1 9.58541442622951 6.011200655737706 4.57183723917e-05 0.0 0.0 0.0
67 1 12.173927213114755 5.639833442622952 6.46763385649e-05 0.0 0.0 0.0
68 1 14.903514098360658 5.182377704918033 1.09929674008e-06 0.0 0.0 0.0
69 1 17.67298950819672 4.996532524590164 8.71316670726e-05 0.0 0.0 0.0
70 1 20.330575081967215 4.982248393442624 8.25794406815e-06 0.0 0.0 0.0
71 1 22.984121311475413 4.9772295081967215 9.76257478677e-05 0.0 0.0 0.0
72 1 25.716889180327872 4.9980573770491805 7.1372933181e-05 0.0 0.0 0.0
73 1 28.494291803278692 4.9049000000000005 7.83967280536e-05 0.0 0.0 0.0
74 1 30.593034098360658 6.431645901639345 3.28053306367e-05 0.0 0.0 0.0
75 1 33.32615540983607 5.4076721311475415 9.93950317467e-05 0.0 0.0 0.0
76 1 35.953647868852464 5.269980983606558 4.88483402456e-05 0.0 0.0 0.0
77 1 38.70166426229508 5.377680000000001 9.48057022926e-05 0.0 0.0 0.0
78 1 41.61347606557378 5.757024918032787 2.8315271206e-05 0.0 0.0 0.0
79 1 44.169421639344264 5.383940983606558 9.55477865515e-05 0.0 0.0 0.0
80 1 46.815495081967214 5.2645278688524595 1.86999792289e-05 0.0 0.0 0.0
81 1 49.328169180327876 5.713652459016394 7.39615073533e-05 0.0 0.0 0.0
82 1 51.95000655737706 5.668967213114755 9.27138430356e-05 0.0 0.0 0.0
83 1 54.4816655737705 5.099874098360656 8.2073925603e-05 0.0 0.0 0.0
84 1 58.32813114754099 4.6543596721311475 7.64227334857e-05 0.0 0.0 0.0
85 1 59.86914098360656 4.816160655737706 8.80568067722e-05 0.0 0.0 0.0
86 1 62.39070163934427 5.487247213114754 6.81918881321e-05 0.0 0.0 0.0
87 1 65.81253114754098 7.134895737704919 4.26911966072e-06 0.0 0.0 0.0
88 1 68.49364590163934 5.808829508196722 4.71198426336e-05 0.0 0.0 0.0
89 1 71.16163278688526 5.596309508196722 6.76988962373e-05 0.0 0.0 0.0
90 1 73.95534426229509 5.879720000000001 7.99343971426e-05 0.0 0.0 0.0
91 1 76.6768524590164 5.609891803278689 4.56766804189e-05 0.0 0.0 0.0
92 1 79.28020983606558 5.733091803278689 6.68954954809e-05 0.0 0.0 0.0
93 1 81.82398688524592 5.839831475409836 2.28822914041e-05 0.0 0.0 0.0
94 1 0.17297078032786886 7.975786229508198 5.15918899477e-05 0.0 0.0 0.0
95 1 2.802385967213115 7.9645770491803285 5.10797893629e-05 0.0 0.0 0.0
96 1 5.31764524590164 7.801589508196722 7.79552281746e-05 0.0 0.0 0.0
97 1 8.002294426229508 7.897675409836067 3.94361875856e-06 0.0 0.0 0.0
98 1 10.798177049180328 8.137713442622951 3.81036872457e-05 0.0 0.0 0.0
99 1 13.900342950819674 7.6914668852459025 7.33357273691e-06 0.0 0.0 0.0
100 1 16.587264262295083 7.311213114754099 5.2044558913e-06 0.0 0.0 0.0
101 1 19.17188918032787 7.319089836065574 8.67741554393e-05 0.0 0.0 0.0
102 1 21.711424918032787 7.312172459016394 8.36786595645e-05 0.0 0.0 0.0
103 1 24.305441311475413 7.229921311475411 2.51638413028e-05 0.0 0.0 0.0
104 1 27.07718885245902 7.150497704918033 3.37808917934e-05 0.0 0.0 0.0
105 1 29.75906098360656 7.741554754098361 1.80153185818e-06 0.0 0.0 0.0
106 1 32.10627344262296 7.972807213114755 3.16652720832e-05 0.0 0.0 0.0
107 1 34.579917377049185 7.705756065573771 7.16883789336e-05 0.0 0.0 0.0
108 1 37.09526754098361 7.537062950819673 7.16357584808e-05 0.0 0.0 0.0
109 1 39.26611213114755 6.816393442622951 8.24952126489e-05 0.0 0.0 0.0
110 1 43.02169245901639 7.87248 7.98472088093e-05 0.0 0.0 0.0
111 1 45.57531540983607 7.636632786885246 5.22757394459e-05 0.0 0.0 0.0
112 1 48.10848918032787 7.858796721311476 8.87390954725e-05 0.0 0.0 0.0
113 1 50.616013114754104 8.013958032786887 4.67240902453e-05 0.0 0.0 0.0
114 1 53.2532 7.7135822950819675 8.97279331248e-05 0.0 0.0 0.0
115 1 55.845954098360664 7.406339672131148 2.50373731159e-05 0.0 0.0 0.0
116 1 58.446786885245906 8.367653114754098 4.49785206467e-05 0.0 0.0 0.0
117 1 61.16678032786886 7.486571147540984 4.35428869809e-05 0.0 0.0 0.0
118 1 63.321770491803285 6.708441967213115 7.64326794139e-05 0.0 0.0 0.0
119 1 67.40504262295083 8.26288262295082 1.42308226103e-06 0.0 0.0 0.0
120 1 69.84682622950821 7.991236721311476 5.02701342801e-05 0.0 0.0 0.0
121 1 72.25629508196721 7.8655121311475416 9.9898450722e-07 0.0 0.0 0.0
122 1 76.18708196721312 7.743170491803279 8.23672723517e-06 0.0 0.0 0.0
123 1 77.70688524590165 7.973312131147542 7.95427150377e-05 0.0 0.0 0.0
124 1 80.2153180327869 8.166392786885247 8.07881320908e-05 0.0 0.0 0.0
125 1 1.4304024918032787 10.29381442622951 1.76119654141e-05 0.0 0.0 0.0
126 1 4.231627147540984 10.274526557377051 8.99601278124e-05 0.0 0.0 0.0
127 1 6.922729180327869 10.131129836065575 9.61521889266e-05 0.0 0.0 0.0
128 1 9.498215081967214 10.152790819672132 7.66986183723e-05 0.0 0.0 0.0
129 1 11.790340983606558 9.303417704918033 7.27747029689e-05 0.0 0.0 0.0
130 1 15.447613770491804 9.736384918032789 6.86407984822e-06 0.0 0.0 0.0
131 1 18.048396065573773 9.688872131147543 1.41385995495e-05 0.0 0.0 0.0
132 1 20.58106491803279 9.735021639344263 1.86020531781e-05 0.0 0.0 0.0
133 1 23.086417704918038 9.639491147540985 8.68018085391e-06 0.0 0.0 0.0
134 1 25.841654426229514 9.36446229508197 9.09384868606e-05 0.0 0.0 0.0
135 1 28.022799344262296 10.794289180327869 2.93536716979e-05 0.0 0.0 0.0
136 1 30.72648393442623 10.384750163934427 3.21619854876e-06 0.0 0.0 0.0
137 1 33.277380327868855 10.281645901639346 1.97072140139e-05 0.0 0.0 0.0
138 1 35.934460983606556 10.03736655737705 9.91401136004e-05 0.0 0.0 0.0
139 1 38.6258255737705 9.689478032786887 5.0207660521e-05 0.0 0.0 0.0
140 1 41.492144262295085 9.867663606557377 6.77665630488e-06 0.0 0.0 0.0
141 1 44.19885836065574 10.094220327868854 1.76729882082e-05 0.0 0.0 0.0
142 1 46.762933114754105 10.12709049180328 8.80040330765e-05 0.0 0.0 0.0
143 1 49.271971803278696 10.371470819672133 1.88475141984e-05 0.0 0.0 0.0
144 1 52.00706229508197 10.170412459016395 2.465116941e-05 0.0 0.0 0.0
145 1 54.74927213114755 9.868067540983608 9.37477975397e-05 0.0 0.0 0.0
146 1 57.59297049180328 9.633735081967213 8.29217617647e-05 0.0 0.0 0.0
147 1 60.222583606557386 9.986066885245902 5.57685799386e-05 0.0 0.0 0.0
148 1 62.916321311475414 9.64009704918033 7.68750343862e-05 0.0 0.0 0.0
149 1 65.57067540983607 10.145822950819674 9.45788483232e-05 0.0 0.0 0.0
150 1 68.31995409836067 10.489773114754101 3.97762412559e-05 0.0 0.0 0.0
151 1 70.986931147541 10.389849836065576 6.48059274698e-05 0.0 0.0 0.0
152 1 73.35499672131148 10.251199344262297 9.21186516114e-05 0.0 0.0 0.0
153 1 75.90836721311476 11.282191475409837 8.29618850594e-06 0.0 0.0 0.0
154 1 78.73338360655738 10.527389508196721 6.67825682052e-05 0.0 0.0 0.0
155 1 81.37915409836066 10.403280655737706 1.1357588482e-05 0.0 0.0 0.0
156 1 0.09241110819672131 12.590838032786886 8.78079901348e-05 0.0 0.0 0.0
157 1 2.921819278688525 12.443805901639346 1.83979610037e-05 0.0 0.0 0.0
158 1 5.822613770491804 12.462336393442623 1.42597320804e-05 0.0 0.0 0.0
159 1 8.562299016393442 12.496822295081968 6.3280481747e-05 0.0 0.0 0.0
160 1 11.319605901639346 12.087636721311478 3.71324913854e-05 0.0 0.0 0.0
161 1 14.107813770491804 12.040679344262298 9.02826151146e-05 0.0 0.0 0.0
162 1 16.709555409836067 12.052292459016396 1.57286822869e-05 0.0 0.0 0.0
163 1 19.33624 12.137421639344263 7.00907303531e-05 0.0 0.0 0.0
164 1 21.84845967213115 12.156154098360657 8.9470616767e-05 0.0 0.0 0.0
165 1 24.35633704918033 11.710008524590165 2.78066421649e-05 0.0 0.0 0.0
166 1 27.14106098360656 12.041133770491804 4.92373332658e-05 0.0 0.0 0.0
167 1 29.348512131147544 12.822191475409838 5.45805606603e-05 0.0 0.0 0.0
168 1 31.89047147540984 12.762611147540984 6.81825090355e-05 0.0 0.0 0.0
169 1 34.60263868852459 12.475312786885247 1.38437345371e-06 0.0 0.0 0.0
170 1 37.40473180327869 12.14489442622951 3.08947348539e-05 0.0 0.0 0.0
171 1 40.16269508196722 11.855121967213115 9.47786972699e-05 0.0 0.0 0.0
172 1 42.99518426229508 12.228912786885248 9.58506021527e-05 0.0 0.0 0.0
173 1 45.66110098360656 12.462841311475412 4.76881313605e-06 0.0 0.0 0.0
174 1 48.15761770491804 13.770023606557379 5.56318224294e-05 0.0 0.0 0.0
175 1 50.83615737704918 12.517725901639345 3.57115235458e-05 0.0 0.0 0.0
176 1 53.67733114754099 12.212755409836067 1.12341200013e-05 0.0 0.0 0.0
177 1 56.32411147540984 11.84648786885246 3.92411233349e-05 0.0 0.0 0.0
178 1 58.97392131147542 12.79750098360656 7.00544524724e-05 0.0 0.0 0.0
179 1 61.83933114754099 12.076478032786886 4.77566085239e-05 0.0 0.0 0.0
180 1 64.20992131147541 12.222904262295083 9.2450799963e-05 0.0 0.0 0.0
181 1 66.85619672131148 12.524592786885247 3.36747636599e-05 0.0 0.0 0.0
182 1 69.69383606557378 12.710756065573772 4.82276318054e-05 0.0 0.0 0.0
183 1 72.4688655737705 12.790684590163936 7.4786467033e-05 0.0 0.0 0.0
184 1 75.28580327868853 12.675967213114756 2.43164867331e-05 0.0 0.0 0.0
185 1 77.49431475409837 14.150832786885248 1.88703708435e-05 0.0 0.0 0.0
186 1 80.09464262295083 12.83713704918033 3.80118512257e-05 0.0 0.0 0.0
187 1 1.5715523278688528 14.645097049180329 5.88735667364e-05 0.0 0.0 0.0
188 1 4.361759672131148 14.495994754098362 5.67589030503e-05 0.0 0.0 0.0
189 1 7.075668852459017 14.756280000000002 3.31814181298e-05 0.0 0.0 0.0
190 1 10.886184262295084 14.285847868852459 9.48658118939e-05 0.0 0.0 0.0
191 1 12.452238032786886 14.263025573770493 2.19716520854e-06 0.0 0.0 0.0
192 1 16.097695737704917 14.305337704918035 8.16531828845e-05 0.0 0.0 0.0
193 1 17.663547540983608 14.39167868852459 3.73645441172e-06 0.0 0.0 0.0
194 1 20.326384262295083 14.606470819672133 4.99731403144e-05 0.0 0.0 0.0
195 1 23.888076065573774 14.210160655737706 3.0930310851e-05 0.0 0.0 0.0
196 1 25.40964655737705 13.964921967213117 4.80011951772e-05 0.0 0.0 0.0
197 1 27.2535062295082 15.973536393442624 4.48108823757e-05 0.0 0.0 0.0
198 1 30.151281311475415 15.181622950819673 1.35599387151e-05 0.0 0.0 0.0
199 1 33.305150819672136 14.909017704918034 3.10703151661e-05 0.0 0.0 0.0
200 1 36.033828852459024 14.478171147540984 3.98129686823e-06 0.0 0.0 0.0
201 1 39.629198688524596 13.99092524590164 2.88649810239e-05 0.0 0.0 0.0
202 1 41.15935278688525 14.087768524590166 6.42784641096e-05 0.0 0.0 0.0
203 1 43.81113180327869 14.644743606557379 1.17247163852e-05 0.0 0.0 0.0
204 1 47.23003278688525 15.038781639344265 7.39374111274e-05 0.0 0.0 0.0
205 1 50.960872131147546 14.570268196721313 5.45706084595e-05 0.0 0.0 0.0
206 1 52.503396721311475 14.466709508196722 1.36661007316e-05 0.0 0.0 0.0
207 1 55.14664262295082 14.34320655737705 8.36365566403e-06 0.0 0.0 0.0
208 1 58.834059016393454 14.301853770491805 6.76968002103e-06 0.0 0.0 0.0
209 1 60.343259016393446 14.29932918032787 5.58378182559e-05 0.0 0.0 0.0
210 1 62.78756721311476 14.69200393442623 4.08789601183e-06 0.0 0.0 0.0
211 1 65.53381639344263 14.699527213114756 5.39835063198e-05 0.0 0.0 0.0
212 1 68.31339016393443 14.736941639344264 7.78459728461e-05 0.0 0.0 0.0
213 1 70.93593442622952 14.951531803278689 5.65359420727e-05 0.0 0.0 0.0
214 1 73.74580327868854 14.923862295081967 5.39463220316e-05 0.0 0.0 0.0
215 1 76.57182950819673 15.381368524590165 9.45782089758e-05 0.0 0.0 0.0
216 1 79.07571803278688 15.493763278688526 2.64246555073e-05 0.0 0.0 0.0
217 1 81.59525901639346 15.00348786885246 2.46114760819e-05 0.0 0.0 0.0
218 1 0.5879366557377049 17.06355344262295 4.56792190227e-05 0.0 0.0 0.0
219 1 3.2492485245901643 16.687995409836066 1.6207499168e-05 0.0 0.0 0.0
220 1 5.384092459016394 18.01628327868853 1.82021789049e-05 0.0 0.0 0.0
221 1 8.091866885245903 17.11985180327869 1.04983897518e-05 0.0 0.0 0.0
222 1 10.53213573770492 16.8883468852459 8.77958955013e-05 0.0 0.0 0.0
223 1 13.174119344262296 16.782112131147542 7.4504527101e-05 0.0 0.0 0.0
224 1 15.724056393442625 17.024220327868854 8.47599246524e-05 0.0 0.0 0.0
225 1 18.764824262295082 16.92545836065574 9.57172023901e-05 0.0 0.0 0.0
226 1 21.44376786885246 16.88582229508197 7.20925346513e-05 0.0 0.0 0.0
227 1 23.848591475409837 17.069965901639346 9.41813422536e-05 0.0 0.0 0.0
228 1 26.48461704918033 17.3257068852459 6.44154682208e-05 0.0 0.0 0.0
229 1 28.942255081967218 17.44557442622951 3.26740600587e-05 0.0 0.0 0.0
230 1 30.988940327868857 16.480221639344265 5.14060813087e-05 0.0 0.0 0.0
231 1 34.519327213114764 16.856991475409835 3.595162301e-05 0.0 0.0 0.0
232 1 36.99711147540984 16.802308852459017 2.0270253937e-05 0.0 0.0 0.0
233 1 39.60844655737706 16.61049049180328 9.01701074816e-05 0.0 0.0 0.0
234 1 42.26608262295082 16.608672786885247 9.61972336031e-05 0.0 0.0 0.0
235 1 44.44253180327869 16.059826885245904 5.26354820258e-06 0.0 0.0 0.0
236 1 47.79018885245902 16.451239344262298 3.78503544663e-05 0.0 0.0 0.0
237 1 51.229993442622956 17.426942950819676 8.38296346384e-05 0.0 0.0 0.0
238 1 54.58062950819673 16.595241967213116 8.74203585147e-05 0.0 0.0 0.0
239 1 56.09992786885246 16.846438688524593 3.63991128529e-05 0.0 0.0 0.0
240 1 58.53413770491804 16.799380327868857 3.71023917036e-05 0.0 0.0 0.0
241 1 61.21979672131148 16.866382950819677 5.42561562316e-05 0.0 0.0 0.0
242 1 63.263200000000005 16.17010098360656 6.47937768847e-05 0.0 0.0 0.0
243 1 66.77490491803279 16.863302950819673 4.46392710733e-05 0.0 0.0 0.0
244 1 69.20507540983608 17.14600655737705 3.24856057432e-05 0.0 0.0 0.0
245 1 72.02100327868854 17.085971803278692 7.18210540616e-05 0.0 0.0 0.0
246 1 74.75260983606559 17.24184 7.23692790685e-05 0.0 0.0 0.0
247 1 77.46300983606558 17.823505573770493 2.38237901292e-05 0.0 0.0 0.0
248 1 80.53139672131148 17.610884590163938 6.39793760589e-05 0.0 0.0 0.0
249 1 2.016561836065574 19.14735016393443 8.43918738063e-05 0.0 0.0 0.0
250 1 4.6795197377049185 19.37168524590164 3.08491339235e-06 0.0 0.0 0.0
251 1 7.072538360655739 19.597585573770495 3.72687729227e-05 0.0 0.0 0.0
252 1 9.549363278688526 19.425862950819674 6.41805043367e-05 0.0 0.0 0.0
253 1 12.043405901639346 19.142099016393445 6.63691410894e-05 0.0 0.0 0.0
254 1 14.606369836065575 19.23045967213115 4.67574130381e-05 0.0 0.0 0.0
255 1 16.62785967213115 18.31034754098361 9.19376217083e-05 0.0 0.0 0.0
256 1 20.273923278688528 19.130031475409837 7.87719521961e-07 0.0 0.0 0.0
257 1 22.43603278688525 20.62943606557377 3.20173696606e-05 0.0 0.0 0.0
258 1 25.189603278688526 19.609047213114756 4.14694193989e-05 0.0 0.0 0.0
259 1 27.82941573770492 19.81914360655738 2.85108147975e-05 0.0 0.0 0.0
260 1 30.48356786885246 19.46060131147541 1.90679564467e-05 0.0 0.0 0.0
261 1 33.06541573770492 19.17456524590164 5.56640360943e-05 0.0 0.0 0.0
262 1 35.605759344262296 19.21773573770492 7.72365714074e-05 0.0 0.0 0.0
263 1 38.28520786885247 18.97628393442623 1.72363624037e-05 0.0 0.0 0.0
264 1 40.94309639344263 18.905292459016398 8.10101580403e-05 0.0 0.0 0.0
265 1 43.58821049180328 18.94780655737705 9.07603905841e-07 0.0 0.0 0.0
266 1 46.436554098360666 18.926751475409837 6.36340647907e-05 0.0 0.0 0.0
267 1 49.24738229508197 19.498924590163938 7.0341146607e-06 0.0 0.0 0.0
268 1 52.01615081967214 19.700538360655738 5.79973144349e-06 0.0 0.0 0.0
269 1 54.543770491803286 19.428438032786886 3.37428634838e-05 0.0 0.0 0.0
270 1 58.299855737704924 18.988603934426234 5.44154982247e-06 0.0 0.0 0.0
271 1 59.84944918032787 19.08650754098361 4.56987733702e-06 0.0 0.0 0.0
272 1 62.519455737704924 19.138110163934428 1.23359516736e-05 0.0 0.0 0.0
273 1 65.25712131147542 18.991481967213115 5.91124102246e-05 0.0 0.0 0.0
274 1 67.58529836065576 20.419895081967216 2.57360821449e-05 0.0 0.0 0.0
275 1 70.35174426229509 19.246718032786887 6.2775636198e-05 0.0 0.0 0.0
276 1 73.14545573770494 19.379612459016396 8.64522853156e-05 0.0 0.0 0.0
277 1 75.97501639344263 19.693721967213115 4.92965149052e-05 0.0 0.0 0.0
278 1 78.18857704918034 19.176584918032788 6.93545299655e-05 0.0 0.0 0.0
279 1 81.94819672131149 19.46570098360656 2.57623722706e-05 0.0 0.0 0.0
280 1 0.5458921311475411 21.452856393442627 6.48429264018e-05 0.0 0.0 0.0
281 1 3.2604072131147546 21.531270163934426 3.65767845267e-05 0.0 0.0 0.0
282 1 5.708148852459017 21.934245245901643 3.21428945044e-05 0.0 0.0 0.0
283 1 8.287876065573771 21.91192786885246 8.99726934198e-05 0.0 0.0 0.0
284 1 10.881892459016395 21.679867540983608 9.83435201413e-05 0.0 0.0 0.0
285 1 13.503628852459018 21.531371147540987 1.10368104285e-05 0.0 0.0 0.0
286 1 16.248514754098363 21.30855081967213 9.7842609694e-05 0.0 0.0 0.0
287 1 18.862525901639344 21.41226098360656 5.73650542404e-05 0.0 0.0 0.0
288 1 21.517687868852462 21.8765331147541 6.31636206441e-05 0.0 0.0 0.0
289 1 24.196883934426232 22.10980524590164 7.70465892653e-05 0.0 0.0 0.0
290 1 26.72677573770492 22.064665573770494 8.29187981761e-05 0.0 0.0 0.0
291 1 29.36477049180328 21.962672131147546 6.35525827184e-05 0.0 0.0 0.0
292 1 32.00528983606557 21.69557049180328 6.39886287848e-05 0.0 0.0 0.0
293 1 34.650504918032794 21.565756065573773 2.44327925403e-05 0.0 0.0 0.0
294 1 37.40256065573771 21.265329836065575 1.73411993612e-05 0.0 0.0 0.0
295 1 40.138610491803284 21.97706229508197 9.82305049584e-05 0.0 0.0 0.0
296 1 42.53641573770493 22.233914098360657 3.85540899887e-06 0.0 0.0 0.0
297 1 45.23878754098361 21.12001442622951 5.00032897183e-05 0.0 0.0 0.0
298 1 47.95327737704918 21.311327868852462 3.2045274337e-06 0.0 0.0 0.0
299 1 50.667009836065574 21.757473442622953 7.88023719897e-05 0.0 0.0 0.0
300 1 53.39255737704919 21.92263213114754 5.16037873005e-05 0.0 0.0 0.0
301 1 55.944413114754106 21.71768590163935 9.4331902082e-05 0.0 0.0 0.0
302 1 58.48364590163935 22.86299147540984 7.83478640349e-06 0.0 0.0 0.0
303 1 61.057718032786894 21.52475672131148 4.67157974176e-05 0.0 0.0 0.0
304 1 63.73277377049181 21.393478032786884 9.3485027898e-05 0.0 0.0 0.0
305 1 67.23236065573771 21.92540918032787 8.21801936045e-05 0.0 0.0 0.0
306 1 69.62668196721312 21.564392786885247 9.41893797684e-06 0.0 0.0 0.0
307 1 71.89527868852458 22.65880262295082 2.29894760199e-06 0.0 0.0 0.0
308 1 74.5743737704918 21.61367278688525 8.2639072231e-05 0.0 0.0 0.0
309 1 77.35243278688526 22.0144262295082 4.5342797874e-05 0.0 0.0 0.0
310 1 80.40971147540984 21.700367213114756 3.03950123847e-05 0.0 0.0 0.0
311 1 1.7761400655737707 23.693228196721314 8.41504494445e-06 0.0 0.0 0.0
312 1 4.2775645901639345 24.146644590163934 7.01969234372e-05 0.0 0.0 0.0
313 1 6.869662295081968 24.262826229508196 8.54276033841e-05 0.0 0.0 0.0
314 1 9.516644590163935 24.11867213114754 4.92658183459e-05 0.0 0.0 0.0
315 1 12.118436721311477 23.918371147540988 6.92335172221e-05 0.0 0.0 0.0
316 1 14.658073442622952 23.63561704918033 4.97391268997e-05 0.0 0.0 0.0
317 1 17.30970098360656 23.78880918032787 7.33625820587e-05 0.0 0.0 0.0
318 1 20.081196065573774 24.041217704918036 7.05185025701e-05 0.0 0.0 0.0
319 1 22.704901639344264 24.24550754098361 4.72418794629e-05 0.0 0.0 0.0
320 1 25.291243278688526 24.504076065573773 3.68177949855e-05 0.0 0.0 0.0
321 1 28.26717967213115 24.379108852459016 9.17908400849e-05 0.0 0.0 0.0
322 1 30.99600918032787 24.15805573770492 8.36695575156e-07 0.0 0.0 0.0
323 1 33.54236131147541 23.964520655737708 1.73428229272e-05 0.0 0.0 0.0
324 1 36.42453442622951 23.6006262295082 2.54098362081e-05 0.0 0.0 0.0
325 1 39.36194557377049 23.334332459016398 2.73970513247e-05 0.0 0.0 0.0
326 1 41.94071344262296 23.642887868852462 3.34626871477e-05 0.0 0.0 0.0
327 1 44.31847344262296 23.61143147540984 7.28683848692e-05 0.0 0.0 0.0
328 1 46.92930360655738 23.425318688524595 7.87628620925e-06 0.0 0.0 0.0
329 1 49.52296655737705 23.722059016393445 2.6010907134e-05 0.0 0.0 0.0
330 1 52.15651803278689 24.04833704918033 7.95713833131e-05 0.0 0.0 0.0
331 1 54.92144918032787 24.163003934426232 7.33594504547e-06 0.0 0.0 0.0
332 1 57.764642622950824 24.226775081967215 6.95132810052e-05 0.0 0.0 0.0
333 1 60.17764590163935 24.245356065573773 8.17285466686e-06 0.0 0.0 0.0
334 1 62.53460327868853 23.77896327868853 5.44230501022e-05 0.0 0.0 0.0
335 1 64.67495081967213 22.61952 9.91341139494e-05 0.0 0.0 0.0
336 1 68.72035409836066 24.182695737704922 4.6980298478e-06 0.0 0.0 0.0
337 1 71.45499016393444 24.112411147540985 9.43559343032e-05 0.0 0.0 0.0
338 1 73.86597377049182 24.024201967213116 6.88448466054e-05 0.0 0.0 0.0
339 1 76.18051803278689 25.10654426229508 3.01337128484e-05 0.0 0.0 0.0
340 1 78.10678032786886 23.381289836065577 5.62986188314e-05 0.0 0.0 0.0
341 1 81.797731147541 23.654349508196724 5.50757181379e-05 0.0 0.0 0.0
342 1 0.5181165901639345 25.90901049180328 6.72479530728e-05 0.0 0.0 0.0
343 1 2.722624065573771 27.385037377049184 8.62981168461e-05 0.0 0.0 0.0
344 1 5.489165901639344 26.552680000000002 4.54815841891e-06 0.0 0.0 0.0
345 1 8.148064262295083 26.484869508196724 4.05284494962e-05 0.0 0.0 0.0
346 1 10.791007213114755 26.343492459016396 3.1140136882e-05 0.0 0.0 0.0
347 1 13.319687213114754 26.148392131147542 7.02407441294e-05 0.0 0.0 0.0
348 1 15.74728262295082 25.98646491803279 5.58509954036e-05 0.0 0.0 0.0
349 1 17.86561573770492 25.246507540983607 8.31188324379e-05 0.0 0.0 0.0
350 1 21.345106885245904 26.44806098360656 8.19915350394e-05 0.0 0.0 0.0
351 1 23.883380327868853 26.694259016393445 2.24686001604e-05 0.0 0.0 0.0
352 1 25.96687409836066 25.887400000000003 6.96705022325e-05 0.0 0.0 0.0
353 1 29.450960000000006 26.48340524590164 5.34561259585e-05 0.0 0.0 0.0
354 1 32.43780262295083 26.514053770491806 9.99485178085e-07 0.0 0.0 0.0
355 1 35.16148196721312 25.858922622950825 6.05478575914e-06 0.0 0.0 0.0
356 1 37.891371803278695 25.54471213114754 2.53054849251e-05 0.0 0.0 0.0
357 1 40.51881377049181 25.82544655737705 5.98593287902e-05 0.0 0.0 0.0
358 1 43.14196393442624 26.102495081967216 5.18713192215e-05 0.0 0.0 0.0
359 1 45.73699016393443 25.802725245901645 9.68544603554e-05 0.0 0.0 0.0
360 1 48.3484262295082 25.88245180327869 3.22441332024e-05 0.0 0.0 0.0
361 1 50.881600000000006 26.184493770491805 9.59228240828e-05 0.0 0.0 0.0
362 1 53.46728524590164 26.303401967213116 6.05544743119e-05 0.0 0.0 0.0
363 1 56.17415081967214 26.3219324590164 6.28426880926e-05 0.0 0.0 0.0
364 1 58.78003278688526 26.72485704918033 2.90168374809e-05 0.0 0.0 0.0
365 1 61.5692 26.52041573770492 2.26282748033e-05 0.0 0.0 0.0
366 1 64.9647737704918 25.252162622950824 9.71886032695e-05 0.0 0.0 0.0
367 1 66.34723934426229 24.572088524590168 2.21460840219e-05 0.0 0.0 0.0
368 1 70.04071475409837 26.331576393442624 6.18223665522e-05 0.0 0.0 0.0
369 1 72.6688131147541 26.50930754098361 9.40495428946e-05 0.0 0.0 0.0
370 1 75.43778360655739 26.435185573770497 8.58262054325e-05 0.0 0.0 0.0
371 1 77.89572459016394 26.44846491803279 7.41728866352e-05 0.0 0.0 0.0
372 1 80.49908196721313 25.852358688524593 8.29650650239e-05 0.0 0.0 0.0
373 1 1.8365030163934428 28.632740327868856 2.55308448734e-05 0.0 0.0 0.0
374 1 4.420506885245902 28.97179278688525 1.99666412922e-05 0.0 0.0 0.0
375 1 6.87572131147541 28.815924590163938 9.30593070471e-05 0.0 0.0 0.0
376 1 9.527449836065575 28.71150754098361 6.41778641246e-05 0.0 0.0 0.0
377 1 12.086576393442623 28.63450754098361 8.4460074652e-05 0.0 0.0 0.0
378 1 14.563148852459019 28.524940327868855 4.17809136329e-05 0.0 0.0 0.0
379 1 17.051132459016394 28.173820327868857 4.86997269675e-05 0.0 0.0 0.0
380 1 19.673171803278688 28.48025508196722 6.68434891601e-05 0.0 0.0 0.0
381 1 22.582560000000004 28.94528459016394 7.39791713173e-05 0.0 0.0 0.0
382 1 25.36390098360656 28.835818360655743 8.25353260463e-05 0.0 0.0 0.0
383 1 27.976750819672134 28.686009180327872 8.75668286774e-05 0.0 0.0 0.0
384 1 30.24342885245902 27.778116065573773 3.87059270642e-05 0.0 0.0 0.0
385 1 34.039503606557375 28.314389508196722 8.71423281373e-06 0.0 0.0 0.0
386 1 36.64361836065574 27.91156590163935 1.86251887205e-05 0.0 0.0 0.0
387 1 39.11448524590164 27.992453770491807 4.00533561297e-05 0.0 0.0 0.0
388 1 41.68780000000001 28.26687672131148 3.03642075733e-05 0.0 0.0 0.0
389 1 45.271607213114756 28.06738360655738 3.59284512402e-06 0.0 0.0 0.0
390 1 46.79797442622951 28.120702950819677 2.94841568396e-06 0.0 0.0 0.0
391 1 49.39683803278689 28.398660327868857 4.0409548587e-05 0.0 0.0 0.0
392 1 52.174695081967215 28.607393442622953 7.58620578254e-06 0.0 0.0 0.0
393 1 54.85580983606558 28.562758688524593 8.10519444088e-05 0.0 0.0 0.0
394 1 57.05220327868853 29.979962622950822 6.65978016633e-05 0.0 0.0 0.0
395 1 59.88176393442623 28.856873442622955 1.28121987922e-05 0.0 0.0 0.0
396 1 63.104655737704924 28.616986885245904 9.76115398397e-05 0.0 0.0 0.0
397 1 65.67418360655738 27.856630819672134 3.02759553019e-05 0.0 0.0 0.0
398 1 68.52545573770493 28.182302950819675 3.25264882025e-06 0.0 0.0 0.0
399 1 71.33734426229509 28.728977704918034 4.74416575185e-05 0.0 0.0 0.0
400 1 74.12297704918034 28.642081311475412 4.94058268079e-05 0.0 0.0 0.0
401 1 76.36026885245903 29.983749508196727 4.68944320718e-05 0.0 0.0 0.0
402 1 80.17340983606557 28.22092918032787 5.551127395e-05 0.0 0.0 0.0
403 1 81.71643934426231 28.12464131147541 7.63340466111e-05 0.0 0.0 0.0
404 1 0.37327933770491806 30.50068459016394 4.41689039071e-05 0.0 0.0 0.0
405 1 3.082019672131148 31.112897704918037 3.09394596086e-05 0.0 0.0 0.0
406 1 5.678459672131148 31.33501114754099 1.41192226426e-05 0.0 0.0 0.0
407 1 8.217641967213117 31.044026885245906 9.09028976675e-05 0.0 0.0 0.0
408 1 10.801509508196723 31.041249836065578 8.40903152904e-05 0.0 0.0 0.0
409 1 13.260510819672131 31.01575147540984 5.36957508173e-05 0.0 0.0 0.0
410 1 15.760208524590166 30.772380983606563 9.35891620198e-05 0.0 0.0 0.0
411 1 18.224309508196725 30.638173770491804 9.43572377678e-05 0.0 0.0 0.0
412 1 20.291292459016397 29.914424262295086 2.97459359107e-05 0.0 0.0 0.0