# input file

2232 atoms
1 atom types

0.0 82.68810555352132 xlo xhi
0.0 83.16 ylo yhi
-10.0 10.0 zlo zhi
0.0 0.0 0.0 xy xz yz

Masses

1 12.0100 #C

Atoms

1 1 1.5905473442622953 0.46678561311475414 5.9782263286498985e-05
2 1 4.778599803278689 0.6986348852459017 9.144428230258173e-06
3 1 7.84864786885246 0.6938634098360656 5.6616460207193576e-05
4 1 10.392020983606558 0.23704033442622954 5.019335240358265e-05
5 1 13.20052655737705 0.3322946360655738 5.3935614439194305e-05
6 1 15.463518688524593 0.8491711475409837 6.206290579659122e-05
7 1 18.080660327868856 0.9433636065573772 5.589916153129831e-05
8 1 20.694873442622953 1.1006304262295081 4.712667635121545e-05
9 1 23.253192131147546 0.882112 6.732915088316884e-05
10 1 25.840745573770494 0.5952731147540984 5.594079902390581e-07
11 1 28.44541573770492 0.6509504262295083 8.846005593097455e-05
12 1 30.662056393442626 2.2465520000000003 4.20037106969948e-05
13 1 33.452637377049186 1.0267659672131149 3.1441214001014926e-05
14 1 36.27013049180328 0.8736546229508199 4.105337967531975e-05
15 1 39.063892459016394 0.8281059672131148 6.606934098542991e-05
16 1 41.86522819672132 0.7214016393442624 2.700491379013812e-05
17 1 44.443693114754105 0.6408470163934427 8.365359389121692e-05
18 1 46.99438754098361 0.5994235409836066 4.975164315178193e-06
19 1 49.629150819672134 0.5899967213114755 6.694677264236371e-06
20 1 52.34586229508197 0.5913600000000001 8.874799809507288e-05
21 1 55.07595409836066 0.4915659803278689 7.110822914589483e-05
22 1 57.36373770491804 1.8783607213114757 4.5244051936576156e-05
23 1 61.02388852459017 0.7575638688524591 1.1707287456927207e-05
24 1 62.56136393442623 0.8313980327868854 4.103385656304249e-05
25 1 65.16775081967214 0.849660918032787 6.998544069671942e-05
26 1 68.03215081967214 0.6681277377049181 8.722401259014944e-05
27 1 70.54361311475411 0.7835520000000001 9.396055033244448e-05
28 1 73.16211803278689 0.45785613770491806 2.3133031479168376e-05
29 1 75.7639606557377 0.6937523278688525 9.337275771535418e-05
30 1 78.25472131147542 0.863212918032787 5.6038738177992366e-05
31 1 81.45186229508198 0.6711622950819673 3.0344844108237046e-05
32 1 0.2195737049180328 2.6276136393442626 3.4756980792890884e-05
33 1 2.2908232131147543 1.8297522622950821 7.228136701984034e-05
34 1 5.670280000000001 1.9605361311475413 2.6211168611956537e-05
35 1 10.08588918032787 2.5846905573770496 2.2161039867734988e-05
36 1 11.614680000000002 2.36875731147541 4.8546894830111314e-05
37 1 13.582699016393445 4.204679672131149 9.198035505639724e-06
38 1 16.430083278688528 3.2393117377049183 9.561506141531742e-05
39 1 19.249596065573773 3.3314996721311476 5.981350418391652e-07
40 1 22.093395409836067 3.373150360655738 3.932495547860474e-05
41 1 25.46715672131148 2.85224662295082 4.916383677968006e-05
42 1 27.005490491803283 2.931872196721312 1.6920945693286603e-05
43 1 29.700944918032793 3.4809857049180333 6.505115892140355e-05
44 1 32.31470360655738 3.5509370491803285 4.0620573225233536e-05
45 1 35.002634754098366 3.191783803278689 1.0332684377561131e-05
46 1 38.70085639344263 2.731404590163935 4.40994069462292e-05
47 1 40.25878098360656 2.8898074754098366 9.086996708022178e-05
48 1 43.098187540983616 3.055259016393443 2.0305505847993355e-05
49 1 45.81964524590165 3.037112262295082 5.422400401799219e-05
50 1 48.39351540983607 2.9444295081967216 3.594244591625453e-05
51 1 51.120931147540986 2.8670457704918033 5.321842145676105e-05
52 1 53.721763934426235 2.817175016393443 9.801341933010696e-05
53 1 56.40691803278689 3.076031344262295 4.859870012581602e-06
54 1 58.7588262295082 3.854044393442623 8.043241213252019e-05
55 1 61.17435409836066 3.461697836065574 9.65222393220023e-05
56 1 63.90444590163935 3.203391868852459 7.196483955639477e-05
57 1 66.58808524590164 2.9376737049180335 7.857389416305262e-05
58 1 69.1500393442623 3.1194088524590167 3.592569082981082e-05
59 1 71.70694426229508 2.894023540983607 1.3986679937965241e-05
60 1 74.51782295081968 2.866874098360656 6.236024993432629e-05
61 1 77.17217704918033 3.1327689836065575 6.032485084202394e-05
62 1 79.1448918032787 2.1226804590163937 3.817862603754241e-06
63 1 1.6920308196721314 4.739610032786885 8.722389030939832e-05
64 1 4.440228983606558 4.680963803278689 6.015953515051136e-05
65 1 7.037295081967214 4.993942295081967 3.348032520339439e-08
66 1 9.742241967213115 5.312394098360656 5.403870032066125e-05
67 1 12.633604590163936 5.449984262295082 6.151115624512127e-05
68 1 15.276093114754099 5.654425573770492 3.6268548018678816e-05
69 1 17.928225573770494 5.438320655737705 9.985170406909852e-05
70 1 20.606613770491805 5.464222950819672 9.315013924194179e-05
71 1 23.254706885245902 5.887495737704918 7.064891170781987e-05
72 1 25.78328590163935 5.435947540983607 9.223671856666054e-05
73 1 28.07773442622951 6.627352131147542 2.5666554375752607e-06
74 1 30.918049836065578 5.873761967213116 6.902247802881138e-05
75 1 33.60820262295083 5.641651147540984 7.594968702625883e-05
76 1 36.18106295081968 5.515421639344264 5.2855597096511125e-05
77 1 38.85929967213115 5.192980983606558 3.2477261150680305e-05
78 1 41.78959147540984 5.1478918032786884 1.4720113297425942e-05
79 1 44.60854885245902 5.3311770491803285 4.5497117207388416e-05
80 1 47.32536131147542 5.401057704918033 8.92876933416997e-05
81 1 49.9325055737705 5.149154098360657 5.41046891451521e-06
82 1 52.59377704918033 5.21141049180328 8.60548806479491e-05
83 1 55.0093049180328 5.214288524590164 5.496252309971672e-06
84 1 57.37787540983607 6.828360000000001 4.376630451176218e-05
85 1 60.212990163934435 6.081939672131148 9.632548796369207e-05
86 1 62.76181639344263 5.576668196721313 5.1167372707365635e-05
87 1 65.44495081967214 5.3581901639344265 4.151658509899603e-06
88 1 68.00740983606558 5.407571147540984 1.0400693643354642e-05
89 1 70.46636065573772 5.374549508196721 5.744944616513133e-05
90 1 73.08234098360657 4.968933704918033 9.938190047933841e-05
91 1 75.86090491803279 5.243876721311476 6.174911654920104e-05
92 1 78.94948852459017 5.090785573770492 3.0443773083219362e-05
93 1 81.6588786885246 4.779458163934426 4.9742823735951695e-05
94 1 0.19349266885245903 7.0173508196721315 7.720018448803457e-05
95 1 2.7617451147540986 6.939139016393443 5.625399190191151e-05
96 1 5.280887213114754 7.213763934426231 3.843346788566471e-06
97 1 8.01032262295082 7.384224262295082 7.364857424730196e-05
98 1 10.814485901639344 7.531912786885246 2.5656800505778897e-07
99 1 14.05787737704918 7.848496393442624 2.23060489500023e-05
100 1 16.964740983606557 7.802649836065575 7.08975444776918e-05
101 1 19.487816393442625 7.7013127868852465 2.7101887257428217e-05
102 1 21.9305593442623 8.953913442622952 1.0788144964831105e-05
103 1 24.734924590163935 8.060662950819673 5.928656451193325e-05
104 1 27.44487016393443 8.042586885245901 9.688004453865007e-05
105 1 29.89579278688525 8.218399344262297 5.6736888297088874e-05
106 1 32.50500721311476 8.033548852459017 8.200229705445904e-05
107 1 35.10376983606558 7.930899016393443 6.0901997791056374e-05
108 1 37.723284590163935 7.571245901639345 5.374507136613801e-05
109 1 40.46029377049181 7.208361311475411 3.080071492661467e-05
110 1 43.26011475409836 7.432746885245903 3.275288053124079e-05
111 1 46.03711344262296 7.688235409836066 2.4666479361945226e-05
112 1 49.55543278688525 7.42168918032787 6.883091452793616e-05
113 1 51.111842622950824 7.472635409836066 8.107760561852363e-07
114 1 53.80053114754099 7.733829508196722 6.16702650947318e-05
115 1 56.55586885245903 8.119384918032788 9.220273047235462e-05
116 1 59.31979016393443 8.376994098360658 3.461381071805134e-05
117 1 61.87619016393443 8.165130491803279 2.847116597611832e-08
118 1 64.3644262295082 7.725447868852459 8.39529956947137e-05
119 1 66.9172918032787 7.756247868852459 5.725557202366827e-05
120 1 69.37927213114756 7.85824131147541 3.9122367181835985e-05
121 1 72.7541442622951 7.162615737704919 8.282693116721443e-05
122 1 74.27798688524591 7.190992131147541 5.6075272230642496e-05
123 1 76.7308786885246 6.490165901639345 7.200116885627715e-05
124 1 80.31731147540984 7.1502452459016395 6.99513575286875e-05
125 1 1.4230508852459016 9.364512786885248 7.985708640957808e-05
126 1 3.7585946885245907 10.610145573770493 9.806435242701193e-05
127 1 6.606095081967214 9.572791475409836 3.6669196194883084e-05
128 1 9.383649180327868 9.615103606557378 7.388708410519597e-05
129 1 11.502638688524591 8.920891803278689 1.2277529223181972e-05
130 1 15.350063606557379 9.80252918032787 7.462456100821771e-05
131 1 18.355487213114756 10.182025573770494 3.284983290723984e-05
132 1 21.13571737704918 10.265791475409838 1.8913333926441902e-06
133 1 23.59012393442623 10.478816393442623 6.959012653799513e-05
134 1 26.124105573770496 10.351980983606559 3.134012885567655e-05
135 1 28.655714098360658 10.57252918032787 6.220584863692402e-06
136 1 31.215446557377053 10.455085245901639 4.835842791928436e-05
137 1 33.966441967213115 10.330420983606558 9.975323549156766e-05
138 1 37.281178360655744 9.834641967213114 9.000962675654227e-05
139 1 38.769777704918035 9.504627540983607 5.817746747951849e-05
140 1 41.31183803278689 9.388698360655738 5.15414910166343e-05
141 1 44.61122491803279 9.780464262295084 3.169256131275522e-06
142 1 47.15681967213115 10.21252262295082 3.5309100750170908e-06
143 1 49.542961311475416 10.137895737704918 8.60452008825442e-06
144 1 52.43674754098361 9.951681967213116 8.072000277058465e-05
145 1 55.169868852459025 10.17364393442623 9.134923651321974e-05
146 1 57.90904918032788 10.395504918032788 6.0849500242563626e-05
147 1 60.69417704918033 10.65033704918033 1.439074430874392e-05
148 1 63.995836065573776 10.154911475409836 6.22229506117187e-05
149 1 65.53331147540983 10.107297704918034 2.59955897211121e-05
150 1 68.08668196721312 10.270891147540985 8.675134606020837e-05
151 1 70.75668852459016 10.36268524590164 8.632964044763456e-05
152 1 73.16413770491803 9.526540983606559 4.201487130492876e-05
153 1 76.03156721311476 9.13719868852459 3.3986331991887496e-05
154 1 78.7096524590164 9.378145573770492 5.10256732197701e-05
155 1 81.43520000000001 9.44100786885246 6.197245893127883e-05
156 1 0.17126718688524592 12.842034754098362 3.6220023565974647e-06
157 1 3.1209640000000003 12.035781639344263 8.697262838820161e-05
158 1 5.700322622950821 11.867896393442624 9.47357872707899e-05
159 1 8.392848524590164 11.751310819672133 1.7526795017271147e-05
160 1 11.040487213114755 11.829421639344263 7.233062821766376e-05
161 1 14.475495081967214 11.658910819672132 1.720042830250198e-05
162 1 15.931476721311478 11.19893049180328 6.253965526628799e-05
163 1 19.4241462295082 12.373773770491804 1.78550407514101e-05
164 1 22.0329062295082 12.77286098360656 3.620908119243548e-05
165 1 24.687260327868856 12.795834754098363 1.524280398837794e-05
166 1 27.31157180327869 12.86404918032787 1.0910883495518664e-05
167 1 29.94042754098361 12.90373573770492 4.561471216519113e-05
168 1 32.53343409836066 12.58881836065574 4.332927180896793e-05
169 1 35.10816262295082 12.750695081967214 4.429500013762926e-05
170 1 37.49748524590164 12.605076721311477 1.0641288408536565e-05
171 1 40.77298950819672 11.624424918032789 2.7896031865151707e-05
172 1 42.003878688524594 10.734102950819674 4.038003872164309e-06
173 1 45.35794819672132 12.28344393442623 4.7761068414673495e-05
174 1 48.33863081967214 12.70232393442623 3.183363404519849e-05
175 1 51.191114754098365 12.156961967213118 5.8374205412380526e-05
176 1 53.949986885245906 12.361049836065575 3.3460656166499385e-05
177 1 57.34354098360656 12.292936393442623 6.275934999045915e-05
178 1 58.855770491803284 12.610428852459018 5.956329364216665e-05
179 1 61.42075409836066 13.285908196721312 4.949309396699622e-05
180 1 64.04683278688526 12.80744786885246 2.888864251266634e-05
181 1 66.83095081967214 12.60992393442623 8.402090043948136e-05
182 1 69.47924590163935 12.624566557377051 5.049252120406637e-05
183 1 73.4347737704918 11.731013114754099 2.9254222718930536e-05
184 1 74.93993442622951 11.313950819672131 8.170445665494402e-05
185 1 77.39434098360657 12.62380918032787 2.985953481548802e-05
186 1 80.3112524590164 11.676380983606558 8.608503329540396e-05
187 1 2.0940061639344263 14.30437836065574 9.545037913870791e-06
188 1 5.36541049180328 14.027329836065576 4.404261156596341e-05
189 1 6.899048524590165 14.033136393442623 8.048541972937807e-05
190 1 9.474433442622951 14.122203934426231 9.158023708541039e-05
191 1 12.084960655737707 14.357192786885246 4.553030121870426e-05
192 1 14.645147540983608 14.318364590163936 3.0178710502066342e-05
193 1 17.492784262295082 14.352497049180329 3.6016372704957766e-05
194 1 20.273670819672134 14.832522622950822 9.437847833389315e-05
195 1 23.06036393442623 15.061149508196722 2.394447099591308e-05
196 1 25.764957377049182 15.150974426229508 1.289445458120645e-05
197 1 28.50671278688525 15.230448524590166 6.060515615276522e-05
198 1 32.0969324590164 14.875390163934426 8.717556364089073e-05
199 1 33.6269855737705 14.986674098360657 8.948755137260811e-05
200 1 36.202572459016395 15.14521836065574 2.810965965327621e-05
201 1 38.71135868852459 14.847367213114756 9.285260606325374e-05
202 1 41.29350950819673 14.33750098360656 7.403489214749706e-05
203 1 43.71368262295083 13.841267540983608 3.784405711621297e-06
204 1 46.231102950819675 14.956076065573772 7.654546317493705e-06
205 1 49.91326819672132 14.4561062295082 9.40102268295648e-05
206 1 52.54580983606558 14.488521967213117 3.837538529454552e-05
207 1 55.121901639344266 14.939312786885246 4.190719273554085e-05
208 1 57.63790819672132 14.842570491803281 9.631757252858801e-05
209 1 59.94437377049181 16.483604590163935 8.283528037588394e-06
210 1 63.8408262295082 15.021563934426231 5.6363445518221404e-05
211 1 65.3964786885246 14.912047213114755 4.430737680590424e-05
212 1 68.04830819672131 15.005608524590166 6.756757918596096e-05
213 1 70.80465573770492 14.577488524590164 1.353465315095056e-05
214 1 73.4888 14.172948196721313 5.0889548584820454e-05
215 1 76.37137704918034 13.823797377049182 4.3399352697111136e-05
216 1 78.9873573770492 14.169767213114756 2.7300945338463213e-05
217 1 82.2435737704918 14.282565901639344 9.955166107800195e-06
218 1 0.5088816393442623 16.623062950819673 5.451620465566655e-05
219 1 2.958016852459017 16.872441967213117 1.1984269992956765e-05
220 1 5.39772524590164 16.771205901639345 3.9339949534417156e-05
221 1 8.06545967213115 16.46613442622951 9.245388615038875e-06
222 1 10.754451147540983 16.571813770491804 6.156139817440766e-05
223 1 13.421882622950822 16.71596786885246 5.4610336990177436e-05
224 1 15.99984262295082 16.549950819672134 9.872483706523673e-05
225 1 18.61794360655738 16.757118688524592 6.716710914296962e-05
226 1 21.43260918032787 17.125405901639347 8.866104766283818e-05
227 1 24.156894426229513 17.368321967213117 5.161998499833568e-05
228 1 26.81341967213115 17.411441967213115 8.339030631404413e-05
229 1 29.560527213114757 17.597453770491803 6.837186770468248e-05
230 1 32.19731016393443 17.46142885245902 7.970020867377425e-05
231 1 35.01116786885246 17.438202622950822 5.900302993856012e-05
232 1 37.74499606557377 17.377864918032788 7.734574402416701e-05
233 1 40.463424262295085 16.82760524590164 1.0306896452563709e-05
234 1 43.12540262295083 16.47638426229508 1.641618488144704e-05
235 1 45.673118032786896 16.427356721311476 2.087458318612875e-05
236 1 48.17044262295082 16.59655475409836 7.45818624431617e-05
237 1 50.9704655737705 16.747373770491805 8.894023175700405e-05
238 1 53.671272131147546 17.027805245901643 8.00625723017272e-06
239 1 56.42509508196722 17.308842622950824 8.277766415232359e-05
240 1 59.23546885245902 17.869655081967213 2.187163828988128e-05
241 1 62.2316524590164 18.1089862295082 5.8427077873841864e-05
242 1 63.670163934426235 17.603260327868853 7.827185583642909e-05
243 1 66.4472131147541 17.388114754098364 4.488244549023385e-05
244 1 70.59259016393443 16.599028852459018 2.814180497644514e-05
245 1 72.14268852459017 16.584891147540983 1.572382840807608e-05
246 1 74.77634098360657 16.146773770491805 9.272031074193092e-05
247 1 77.48775081967214 16.273710163934428 3.3170270401617265e-05
248 1 79.74574426229509 15.512647213114755 3.9593096733304525e-05
249 1 1.4304327868852462 19.143916721311477 5.9248184021124455e-05
250 1 4.121448983606558 19.25302950819672 4.347495313091677e-06
251 1 6.6903154098360655 18.896910819672133 5.31859412553804e-05
252 1 9.41449967213115 18.795220327868854 3.0711575961228944e-05
253 1 12.097684590163936 18.943312786885247 5.9229119713651215e-05
254 1 14.668727213114757 19.023140327868855 2.5289775362828194e-05
255 1 17.098544262295082 19.005013770491807 9.34883011957175e-06
256 1 19.65625704918033 19.04071147540984 2.432467634498773e-05
257 1 22.46950885245902 19.476354754098363 2.6256515406223913e-05
258 1 25.46594491803279 19.713009836065577 7.1418149882637065e-06
259 1 28.246680000000005 19.689076721311476 5.734724935319269e-05
260 1 30.99767540983607 19.814902295081968 5.6770552723248925e-05
261 1 33.73756262295082 19.63626229508197 1.5061565786866915e-05
262 1 36.52758819672131 19.682563278688527 4.996323612100892e-05
263 1 40.27074754098361 18.891003278688526 2.666800039949374e-05
264 1 41.80620327868853 18.90776655737705 4.775867367917335e-05
265 1 44.21637901639345 18.92402491803279 2.8347834212093926e-05
266 1 46.66523147540985 18.925994098360658 1.473927345109838e-05
267 1 49.2364255737705 18.76856065573771 5.648177658898579e-07
268 1 51.94192786885247 19.088173770491803 4.7843264724574024e-05
269 1 54.646773770491805 19.341238688524594 9.826818778660609e-05
270 1 57.2036786885246 19.633283278688523 3.2000749498150594e-05
271 1 59.68232131147541 20.56712918032787 8.809417545618151e-05
272 1 62.39171147540984 20.885328524590165 7.256496749045343e-05
273 1 65.04606557377049 19.716544262295084 8.57451970710485e-05
274 1 67.33334426229509 18.675049836065575 3.3212536076919285e-05
275 1 71.15860327868853 19.101251147540985 8.086173799568763e-05
276 1 73.78316721311475 18.694691147540986 9.188993299560943e-05
277 1 76.2991737704918 18.440818360655737 4.068272061818428e-05
278 1 78.95453770491804 18.36831213114754 9.327550884697464e-05
279 1 81.48720655737706 18.554172459016392 4.0382490586062084e-05
280 1 82.61519344262297 21.122337049180327 8.378598784769909e-05
281 1 2.6867445901639346 21.460682622950824 2.1252237257845263e-05
282 1 5.409489836065574 21.430791475409837 3.184678692654721e-05
283 1 8.047131147540984 21.069926557377052 8.945745372292938e-05
284 1 10.718601967213116 21.14238229508197 6.097534891784314e-05
285 1 13.327513442622951 21.377876065573773 9.025009555374546e-05
286 1 15.858364590163937 21.5178393442623 8.434766357412089e-05
287 1 18.2575331147541 21.40347540983607 1.171579623902147e-05
288 1 20.854629508196723 21.305369836065577 8.629123394285096e-05
289 1 23.09808131147541 20.88022885245902 7.938114724652317e-05
290 1 26.737631475409838 21.840078032786888 8.377449848160846e-05
291 1 29.521396065573775 21.93929442622951 9.950495368947386e-05
292 1 32.18892852459017 21.93459868852459 3.762938566443668e-05
293 1 34.88438295081968 21.857144262295083 2.0769030185178695e-05
294 1 38.58305901639345 21.721674754098363 7.168631285807228e-05
295 1 40.109224262295086 21.56893704918033 6.259171200271187e-05
296 1 42.85895737704918 21.471639344262297 3.620708802902155e-05
297 1 45.54582819672132 21.4261462295082 1.4221825592354443e-05
298 1 48.30419540983607 21.166466885245903 4.660758461298924e-05
299 1 51.291593442622954 21.547175081967215 4.287636337677956e-05
300 1 52.828059016393446 21.389135737704922 9.231583287140672e-05
301 1 55.54502295081968 21.825940327868857 1.6521680356953064e-05
302 1 58.079206557377056 22.323739016393446 8.260300797566861e-05
303 1 60.31245901639345 21.95974360655738 5.765781800105744e-05
304 1 64.23819672131148 22.310712131147543 2.0344017802101478e-05
305 1 67.00514754098361 21.493956721311477 9.50318607215699e-06
306 1 70.8092 21.301582950819675 4.0343975789768394e-05
307 1 72.35020983606557 21.17434360655738 5.0374207535738096e-05
308 1 75.81041311475411 20.817921967213117 8.842495348137974e-05
309 1 77.34788852459018 20.680937704918037 3.2579797612243277e-07
310 1 79.90529836065573 20.87624 4.356936305426364e-05
311 1 1.1791300327868854 23.49979409836066 6.995924773746607e-05
312 1 3.913968065573771 23.712162622950824 6.242652952913361e-05
313 1 7.551251147540984 23.359679344262297 2.65192003637475e-05
314 1 9.08564655737705 23.346904918032788 5.0070253527955736e-05
315 1 11.6570931147541 23.568462950819672 1.5009328494560715e-05
316 1 14.383549508196722 23.871110819672133 5.862006231081691e-05
317 1 17.468043278688526 23.939072786885248 5.8418227772366576e-05
318 1 20.111996065573774 23.573865573770494 3.687327827874884e-05
319 1 22.425530491803283 24.86726360655738 9.785453439746527e-06
320 1 25.125276721311476 23.912261639344266 7.942777515014706e-05
321 1 27.863901639344267 24.011124590163934 1.1989526983385523e-05
322 1 30.576725245901642 24.208345573770494 7.733676039014464e-05
323 1 33.29348721311476 24.138616393442625 4.688771939706988e-05
324 1 35.88093967213115 24.331596065573773 5.581151158383202e-07
325 1 38.43759213114755 24.135536393442624 4.3959619562841905e-05
326 1 41.28432 23.835564590163937 7.495937532487159e-05
327 1 44.32852131147541 23.8309193442623 2.9126554363100687e-05
328 1 47.11839540983607 23.58224721311476 5.4152049269018904e-05
329 1 49.91660065573771 24.01137704918033 7.357683377148581e-05
330 1 52.42866885245902 23.820518032786886 4.646665289237289e-05
331 1 53.97775737704919 23.821426885245906 1.69225142413317e-05
332 1 56.797724590163945 24.408242622950823 7.957513386882603e-05
333 1 59.649501639344265 24.659489836065575 7.536549442564977e-06
334 1 61.96354098360656 23.878634098360656 8.192804762201724e-05
335 1 65.70346885245903 23.923218360655742 3.478865654500489e-05
336 1 68.12909508196722 23.871615737704918 1.4300203978056504e-05
337 1 70.47999344262296 23.867273442622952 4.854823693470129e-05
338 1 73.19039344262296 23.7152931147541 8.963995989632117e-05
339 1 75.73820983606558 23.53584524590164 7.707801007904767e-05
340 1 78.38499016393443 23.201084590163937 3.768228519234346e-05
341 1 81.15194098360658 23.268440655737706 4.0891123214632465e-05
342 1 82.43039344262296 25.646453114754102 2.0703207368794274e-05
343 1 2.2765643278688525 25.8466531147541 8.335223856220283e-05
344 1 4.917048327868853 26.10385836065574 4.780739195865746e-06
345 1 7.485258360655738 25.969701639344265 9.59968853597194e-06
346 1 10.231103606557378 25.83539344262295 3.137652711988791e-05
347 1 12.911763934426231 25.92784393442623 8.004769290001557e-06
348 1 15.171676065573772 25.202630163934426 6.269848938787655e-05
349 1 18.986230819672134 26.03842098360656 2.2752968959776898e-05
350 1 21.712182295081966 26.232006557377055 6.059847807777185e-05
351 1 24.30513836065574 26.426046557377052 3.330512556162432e-05
352 1 26.81927672131148 26.143342950819676 4.062268599597042e-05
353 1 29.377140983606562 27.257545573770493 8.40748994039147e-05
354 1 32.106475409836065 26.402113442622955 3.905999645726457e-05
355 1 34.648535737704925 26.55273049180328 9.3696706748373e-05
356 1 37.325308196721316 26.56202098360656 7.753423799931612e-05
357 1 39.88908 26.062556065573776 1.2762493348993276e-05
358 1 42.03139672131148 25.200408524590166 2.3931343843552912e-05
359 1 45.51002950819672 25.873363278688526 7.507310543842904e-05
360 1 48.2600655737705 25.974144918032792 5.454292306645206e-05
361 1 50.65135737704919 27.164893114754104 2.0038562557373684e-05
362 1 52.927022950819676 27.12096524590164 8.976271685252343e-05
363 1 55.40718032786886 26.220746885245905 6.0449093096342345e-05
364 1 58.242295081967214 26.691330491803278 8.759645725398264e-05
365 1 61.415200000000006 26.8099862295082 5.115875201378278e-05
366 1 64.97436721311476 26.29365704918033 8.787230488248661e-05
367 1 66.50628852459018 26.262907540983612 1.584341832538865e-05
368 1 69.06975737704919 26.346219016393444 5.9604722077376205e-05
369 1 71.83973770491804 26.044076065573776 3.239439720112698e-05
370 1 74.5789180327869 26.00575278688525 6.084037927970424e-05
371 1 77.19338360655739 25.73158229508197 4.346729836502628e-05
372 1 79.82905573770493 25.45357442622951 7.99077032909238e-06
373 1 0.7641379016393444 28.14817049180328 8.341032466031887e-05
374 1 3.533315409836066 28.26571540983607 6.095029555581684e-05
375 1 6.285674098360657 28.382856393442626 2.9455026649833904e-06
376 1 9.00132524590164 28.145292459016396 6.616669801578936e-05
377 1 11.717885245901641 28.162661639344265 6.149396545942207e-05
378 1 14.522704918032789 28.038704262295084 8.654028669594579e-05
379 1 17.334139016393443 28.124136393442626 9.431829326524019e-05
380 1 20.071905573770493 28.380129836065578 3.2295905704075535e-05
381 1 22.845824262295086 28.662278032786887 5.946639200007381e-05
382 1 25.676293770491807 28.703226885245904 9.98913383806014e-05
383 1 29.453636065573775 28.77144131147541 3.617944153254555e-05
384 1 30.970409836065578 28.83420262295082 6.473234165000878e-05
385 1 33.39532918032788 28.843846557377052 1.820049020223451e-05
386 1 36.123704262295085 28.803453114754102 3.769782394845951e-05
387 1 38.78618754098361 28.61491672131148 4.231180818583826e-05
388 1 41.25367147540984 28.139889836065578 8.79237462685796e-05
389 1 43.82496655737705 28.221888524590167 8.807166249411811e-05
390 1 46.7139055737705 28.098335081967214 8.971318625355605e-05
391 1 49.336954754098365 28.763261639344265 7.234479380775715e-05
392 1 51.76167213114755 29.639142950819675 7.098510492345092e-05
393 1 54.245868852459026 28.89196524590164 1.086604949936625e-05
394 1 56.74218360655738 28.47152 7.422259208918433e-05
395 1 59.09611147540984 27.98392065573771 3.137193728950798e-05
396 1 62.61892459016394 29.156693770491806 3.0068119173199016e-05
397 1 64.99910819672132 29.036927213114758 3.8348103678113023e-05
398 1 67.57267540983608 28.67793049180328 5.8940113920480886e-05
399 1 70.378 28.36543672131148 1.3288544602948849e-05
400 1 73.19140327868853 28.263695737704918 4.6366171879234196e-05
401 1 75.7336655737705 28.228200000000005 2.4135635521483235e-06
402 1 79.3680655737705 27.717626885245902 5.047842930815262e-05
403 1 80.90857049180329 27.8818262295082 2.690419503145748e-05
404 1 82.2864918032787 30.464633442622954 9.387749750195584e-06
405 1 2.2810379016393445 30.40480065573771 7.16133910813924e-05
406 1 4.954780852459018 30.53724065573771 1.5201766601135514e-05
407 1 7.663898360655739 30.51058098360656 6.923295655988973e-05
408 1 10.344003278688525 30.432066229508198 5.609420913387422e-05
409 1 13.067985573770493 30.30699803278689 9.010401959615637e-05
410 1 15.860838688524591 30.30972459016394 2.758875625135654e-05
411 1 18.606229508196723 30.535422950819676 8.162827305470244e-05
412 1 21.314256393442623 30.726786885245904 2.8748248093741246e-05
413 1 24.092163934426235 30.83357704918033 8.361668086694101e-05
414 1 26.70223672131148 31.143798688524594 8.917098015707382e-05
415 1 29.320792131147545 31.172528524590167 4.8202300053959425e-05
416 1 32.183677377049186 31.301989508196723 1.699792151859032e-05
417 1 34.82677180327869 31.026758688524595 2.9470201668550936e-05
418 1 37.54328131147541 30.981568524590166 3.3251138728600626e-05
419 1 40.08594754098361 30.793284590163935 2.0967492914236253e-05
420 1 42.52222754098361 30.563900327868858 8.322914724186615e-06
421 1 44.341901639344265 29.704529836065575 8.464321463552415e-05
422 1 47.432706885245906 31.722687213114757 8.209557705732226e-05
423 1 50.40556327868853 31.499462950819677 6.96879853670753e-05
424 1 53.324393442622956 31.542229508196723 5.9766002379498254e-05
425 1 56.01863606557377 30.963593442622955 7.662818777564784e-05
426 1 58.35489180327869 31.84967409836066 3.951377842420594e-05
427 1 61.207678688524595 31.257001311475413 4.811177147027018e-05
428 1 63.88020983606558 31.59716459016394 4.797346891205079e-05
429 1 66.54011803278689 31.253062950819675 4.2389503010967856e-05
430 1 68.9925049180328 30.65029180327869 8.360197646706766e-05
431 1 71.726131147541 30.440245901639347 6.841005685194571e-05
432 1 74.17144918032787 30.658168524590167 8.775550117088153e-05
433 1 76.63696393442623 30.64726229508197 7.676969436530837e-05
434 1 79.15448524590164 30.336485245901642 4.024132423368929e-05
435 1 0.9307608524590165 32.70036 9.125138117776594e-05
436 1 3.5380666885245904 32.7520131147541 5.6797947072944166e-06
437 1 6.258257049180329 32.78750885245902 5.321601270782517e-05
438 1 8.853384262295084 32.7643331147541 1.812304047007095e-05
439 1 11.606449836065574 32.63860852459017 9.502082819722232e-05
440 1 14.241819016393444 32.50440131147542 9.282247978026947e-05
441 1 17.048254426229512 32.680617704918035 4.647922868463327e-05
442 1 20.15329836065574 32.911870163934424 2.5993752866673406e-05
443 1 22.880512131147544 32.96246295081967 9.788883917253408e-05
444 1 25.466550819672133 33.29151803278689 7.782401727670568e-05
445 1 28.066525245901644 33.46147344262295 6.624618823890897e-05
446 1 30.847159344262298 33.36558950819672 5.975639087730762e-05
447 1 34.4315724590164 33.23153377049181 2.962222924413781e-05
448 1 35.9831855737705 33.21133704918033 9.034739205525341e-05
449 1 38.739432131147545 33.27773377049181 4.4864301567593945e-05
450 1 41.47320983606557 33.14438491803279 9.423991399808104e-05
451 1 44.109386885245904 32.817652459016394 5.67351562935214e-05
452 1 46.74202950819672 33.08485508196721 5.544019220172212e-05
453 1 49.31852524590164 34.39259278688525 5.2442520596369924e-05
454 1 52.16459672131148 33.5490262295082 8.186948357968886e-05
455 1 55.0012262295082 33.45632327868853 3.217199650835437e-05
456 1 57.7772655737705 33.268695737704924 5.0956695592414375e-05
457 1 59.99032131147541 34.839344262295086 8.013465616226264e-05
458 1 62.6512393442623 33.78441901639345 3.250849174999373e-05
459 1 65.39546885245902 33.765989508196725 2.289052457676274e-05
460 1 68.95413114754099 33.030727868852466 3.32101518153095e-05
461 1 70.47797377049181 32.71066032786885 9.19765106605186e-06
462 1 72.87330491803279 34.07656459016394 2.052320433234205e-05