ITEM: TIMESTEP
0
ITEM: NUMBER OF ATOMS
2232
ITEM: BOX BOUNDS xy xz yz pp pp pp
0.0 82.68810555352132 0
0.0 83.16 0
-10.0 10.0 0
ITEM: ATOMS id type x y z vx vy vz
1 1 1.3719329836065575 1.170405049180328 6.56570303846e-05 0.0 0.0 0.0
2 1 4.0655242622950825 0.8439906885245902 3.96015795652e-05 0.0 0.0 0.0
3 1 6.727830819672132 0.6435230819672132 1.94548701882e-05 0.0 0.0 0.0
4 1 10.25872262295082 0.4907565967213115 7.83715396717e-05 0.0 0.0 0.0
5 1 11.76686229508197 0.8308426229508198 9.88796648984e-05 0.0 0.0 0.0
6 1 15.0574131147541 1.3273891147540984 3.59926050327e-05 0.0 0.0 0.0
7 1 17.990936393442624 0.7284553442622952 3.66905904878e-05 0.0 0.0 0.0
8 1 20.68320983606558 0.1468821704918033 9.08588854156e-05 0.0 0.0 0.0
9 1 23.13514229508197 0.38365489836065575 2.14683618198e-05 0.0 0.0 0.0
10 1 25.59424459016394 0.590552131147541 5.36440265257e-05 0.0 0.0 0.0
11 1 28.119137704918035 0.9924618360655738 6.15216882838e-05 0.0 0.0 0.0
12 1 30.789497704918034 0.7441532459016394 6.34781708487e-05 0.0 0.0 0.0
13 1 33.37932327868853 0.5592724590163936 9.11740662432e-05 0.0 0.0 0.0
14 1 35.9369855737705 0.738543606557377 8.30280773251e-06 0.0 0.0 0.0
15 1 38.483337704918036 1.1975797377049182 2.17990559008e-05 0.0 0.0 0.0
16 1 41.07992918032787 1.3993449836065575 4.90056837448e-06 0.0 0.0 0.0
17 1 44.36689508196722 1.3301257704918035 5.93176310151e-05 0.0 0.0 0.0
18 1 47.02372327868853 0.9590918032786886 4.14162145169e-05 0.0 0.0 0.0
19 1 49.706453770491805 0.7366451147540984 9.33044075261e-05 0.0 0.0 0.0
20 1 52.28375737704919 0.5993780983606557 7.36093620044e-05 0.0 0.0 0.0
21 1 54.81693114754099 0.45366885245901645 7.07614299596e-05 0.0 0.0 0.0
22 1 57.486432786885246 0.33308382295081973 6.33326166017e-05 0.0 0.0 0.0
23 1 60.30740983606558 0.3381744065573771 8.39740299646e-05 0.0 0.0 0.0
24 1 62.79160655737706 0.7710855737704919 3.41744678855e-05 0.0 0.0 0.0
25 1 65.21723278688525 1.1044476065573772 6.32205152258e-05 0.0 0.0 0.0
26 1 68.1296 0.8017997377049181 5.89730499024e-05 0.0 0.0 0.0
27 1 70.83899016393444 0.5657000655737705 5.42878395532e-05 0.0 0.0 0.0
28 1 73.38478688524592 0.670556393442623 3.58894170949e-05 0.0 0.0 0.0
29 1 75.99723278688526 0.7720247213114755 9.72869404522e-05 0.0 0.0 0.0
30 1 78.6556262295082 0.8888627540983608 3.69553282495e-06 0.0 0.0 0.0
31 1 81.33320655737705 1.0633826229508199 4.98021097666e-05 0.0 0.0 0.0
32 1 82.66669508196723 3.349757508196722 3.74002479946e-05 0.0 0.0 0.0
33 1 2.6683857704918035 3.257357508196722 3.64708668602e-05 0.0 0.0 0.0
34 1 5.257509508196722 3.0593488524590167 5.61442203447e-05 0.0 0.0 0.0
35 1 7.802649836065575 3.1967521967213117 2.85027220791e-05 0.0 0.0 0.0
36 1 10.263973770491804 3.097636786885246 6.57724672165e-05 0.0 0.0 0.0
37 1 12.373874754098361 2.274241704918033 2.33457458027e-05 0.0 0.0 0.0
38 1 15.826453770491804 2.6979487213114757 7.04073664817e-05 0.0 0.0 0.0
39 1 19.47191147540984 2.549321049180328 5.30077024693e-05 0.0 0.0 0.0
40 1 21.960702950819673 2.6530867540983607 8.52857898105e-05 0.0 0.0 0.0
41 1 24.06363606557377 4.098081377049181 1.81028281884e-05 0.0 0.0 0.0
42 1 26.735157377049184 3.174338885245902 7.43117934668e-05 0.0 0.0 0.0
43 1 29.36840590163935 3.1271593442622954 2.32672094037e-05 0.0 0.0 0.0
44 1 32.022810491803284 2.97952131147541 9.52597711885e-05 0.0 0.0 0.0
45 1 34.66444065573771 3.0055043934426235 8.95914526387e-06 0.0 0.0 0.0
46 1 37.218215081967216 3.2739137704918035 1.12746439513e-05 0.0 0.0 0.0
47 1 39.83192327868853 3.57751593442623 5.50712106247e-05 0.0 0.0 0.0
48 1 42.07850557377049 2.5740418360655744 8.09576474889e-06 0.0 0.0 0.0
49 1 45.89775606557377 3.4074292459016395 4.54681304587e-05 0.0 0.0 0.0
50 1 48.47899803278689 3.1016357377049184 9.21072994486e-06 0.0 0.0 0.0
51 1 51.051757377049185 3.0511035409836067 2.60916067937e-05 0.0 0.0 0.0
52 1 53.46880000000001 2.965196786885246 4.15450070677e-05 0.0 0.0 0.0
53 1 56.02873442622951 2.745395868852459 2.33228198066e-05 0.0 0.0 0.0
54 1 58.652288524590176 2.584564327868853 5.33673202233e-06 0.0 0.0 0.0
55 1 61.264734426229516 2.9598497049180335 4.13424797599e-05 0.0 0.0 0.0
56 1 63.809016393442626 3.35213062295082 6.7837679987e-05 0.0 0.0 0.0
57 1 66.02510163934427 2.403571409836066 9.97414026831e-05 0.0 0.0 0.0
58 1 69.80138360655738 2.8812592131147543 1.31679597176e-05 0.0 0.0 0.0
59 1 72.17803278688525 3.0115381639344263 1.58091190612e-05 0.0 0.0 0.0
60 1 74.69000000000001 3.070850885245902 6.77065418912e-05 0.0 0.0 0.0
61 1 77.30497049180329 3.139297573770492 5.0340180715e-05 0.0 0.0 0.0
62 1 79.96689836065575 3.256882885245902 6.5387633291e-07 0.0 0.0 0.0
63 1 1.3000326557377049 5.582575737704919 5.05557555444e-05 0.0 0.0 0.0
64 1 3.929590229508197 5.516835409836066 6.1812941417e-06 0.0 0.0 0.0
65 1 6.542778360655738 5.504565901639345 8.10563052611e-05 0.0 0.0 0.0
66 1 9.32280655737705 5.562025573770493 8.14979114011e-05 0.0 0.0 0.0
67 1 12.068045901639346 5.240342295081968 6.81307194768e-05 0.0 0.0 0.0
68 1 14.754916721311478 5.268062295081968 6.8253740302e-05 0.0 0.0 0.0
69 1 17.607501639344264 5.0507455737704925 4.18606196729e-05 0.0 0.0 0.0
70 1 20.467508852459016 4.9990167213114765 2.05547552686e-05 0.0 0.0 0.0
71 1 23.267784262295084 5.405500983606558 5.7599732788e-05 0.0 0.0 0.0
72 1 25.65579409836066 5.716782950819673 6.44333439319e-05 0.0 0.0 0.0
73 1 28.110251147540986 5.474371803278689 1.56643560805e-05 0.0 0.0 0.0
74 1 30.697400655737706 5.333398688524591 4.64983345583e-05 0.0 0.0 0.0
75 1 33.37538491803279 5.277807213114754 8.27169986107e-05 0.0 0.0 0.0
76 1 36.06028655737705 5.472907540983607 8.23306221931e-05 0.0 0.0 0.0
77 1 38.63829704918033 5.694415081967214 7.58380965651e-05 0.0 0.0 0.0
78 1 41.409388196721316 5.435442622950821 6.71398622645e-05 0.0 0.0 0.0
79 1 44.25424786885247 5.494518032786885 1.70144191888e-05 0.0 0.0 0.0
80 1 47.94964196721312 5.442309508196722 7.24342853301e-05 0.0 0.0 0.0
81 1 49.493630819672134 5.411711475409836 9.28715040479e-05 0.0 0.0 0.0
82 1 52.00857704918034 5.514462295081968 1.00944154115e-05 0.0 0.0 0.0
83 1 54.575580327868856 5.26180131147541 2.77934055399e-05 0.0 0.0 0.0
84 1 57.21377704918034 5.0323413114754105 1.76827271666e-05 0.0 0.0 0.0
85 1 59.71413114754099 5.099975081967214 6.12235526686e-05 0.0 0.0 0.0
86 1 62.341724590163935 5.529306885245902 2.64140153239e-05 0.0 0.0 0.0
87 1 65.81960000000001 5.18944655737705 8.11085286601e-05 0.0 0.0 0.0
88 1 68.58099672131148 5.01755731147541 6.65311610438e-05 0.0 0.0 0.0
89 1 70.8324262295082 5.440390819672132 8.42789724782e-06 0.0 0.0 0.0
90 1 73.3120786885246 5.459426229508197 9.46434585874e-05 0.0 0.0 0.0
91 1 75.92957377049181 5.446045901639344 9.00879316103e-05 0.0 0.0 0.0
92 1 78.58847213114754 5.497648524590164 2.70405102121e-05 0.0 0.0 0.0
93 1 81.29079344262296 5.569700327868853 2.51276354366e-06 0.0 0.0 0.0
94 1 82.61519344262297 7.851576393442624 1.02730682874e-06 0.0 0.0 0.0
95 1 2.593259016393443 7.888334426229509 2.46862126647e-05 0.0 0.0 0.0
96 1 5.166977704918033 7.855969180327869 6.71177677553e-05 0.0 0.0 0.0
97 1 7.773364590163935 7.7164603278688535 9.36606355031e-06 0.0 0.0 0.0
98 1 10.555967868852461 7.6478419672131155 9.48936410451e-06 0.0 0.0 0.0
99 1 13.615064262295084 7.687427540983607 5.56898633057e-05 0.0 0.0 0.0
100 1 16.452451147540987 7.355898360655739 1.24991726202e-05 0.0 0.0 0.0
101 1 19.990916721311475 6.989176393442624 3.41538505878e-05 0.0 0.0 0.0
102 1 21.526826885245907 7.305457049180329 4.93964675522e-05 0.0 0.0 0.0
103 1 24.227582950819674 8.021228852459018 1.22086118317e-05 0.0 0.0 0.0
104 1 26.86396196721312 8.021632786885247 4.84374541268e-05 0.0 0.0 0.0
105 1 29.455150819672134 7.7424636065573775 9.66874132112e-05 0.0 0.0 0.0
106 1 32.07431213114754 7.5541796721311485 2.0225964736e-05 0.0 0.0 0.0
107 1 34.7163462295082 7.605378360655738 3.35541257473e-06 0.0 0.0 0.0
108 1 37.279663606557385 7.929636721311477 7.39589099606e-05 0.0 0.0 0.0
109 1 39.85923934426229 7.737313442622952 9.43014686155e-06 0.0 0.0 0.0
110 1 42.541818360655746 7.562359344262296 5.11348507606e-05 0.0 0.0 0.0
111 1 45.05822885245902 8.06076393442623 4.40263853315e-05 0.0 0.0 0.0
112 1 47.52470295081967 8.00143606557377 2.76731610204e-05 0.0 0.0 0.0
113 1 50.34648786885246 7.919285901639345 2.42225253578e-05 0.0 0.0 0.0
114 1 53.3572131147541 7.821281311475411 9.81830041381e-05 0.0 0.0 0.0
115 1 55.98127213114755 7.479855737704919 8.86082384628e-05 0.0 0.0 0.0
116 1 58.45991475409837 7.508333114754099 5.64338461824e-05 0.0 0.0 0.0
117 1 60.89260983606558 7.592452459016394 6.13816679883e-05 0.0 0.0 0.0
118 1 63.133940983606564 6.8486577049180335 8.28062096508e-05 0.0 0.0 0.0
119 1 67.05260983606559 7.227396721311476 7.20152166052e-05 0.0 0.0 0.0
120 1 69.33180983606557 7.78013049180328 4.00160353597e-05 0.0 0.0 0.0
121 1 71.82257049180329 7.881619016393444 1.99202624131e-05 0.0 0.0 0.0
122 1 74.51024918032788 7.785937049180329 3.56146319421e-05 0.0 0.0 0.0
123 1 77.17520655737707 7.774475409836067 7.13689730048e-05 0.0 0.0 0.0
124 1 79.87803278688524 7.79820655737705 4.41706572628e-05 0.0 0.0 0.0
125 1 1.251636262295082 10.177582295081969 7.60155166147e-05 0.0 0.0 0.0
126 1 3.8946751475409838 10.259328524590165 4.90303129382e-05 0.0 0.0 0.0
127 1 6.507787540983607 10.130473442622952 6.0410035011e-05 0.0 0.0 0.0
128 1 9.168200655737706 9.842064262295082 1.25245651477e-06 0.0 0.0 0.0
129 1 11.336924590163935 8.97209049180328 2.13014329759e-05 0.0 0.0 0.0
130 1 15.193640000000002 9.648276721311476 2.71941231689e-05 0.0 0.0 0.0
131 1 17.772609836065573 9.713512131147542 3.86315559707e-05 0.0 0.0 0.0
132 1 20.15632786885246 9.6766531147541 3.43734117522e-05 0.0 0.0 0.0
133 1 22.927065573770495 9.897201311475412 2.54116369605e-06 0.0 0.0 0.0
134 1 25.79823147540984 10.36430098360656 4.89659737958e-05 0.0 0.0 0.0
135 1 28.501158688524594 10.194345573770493 9.02795782357e-05 0.0 0.0 0.0
136 1 31.134558688524592 9.910733114754098 9.82031330738e-05 0.0 0.0 0.0
137 1 33.65950229508197 9.82292786885246 9.85219976979e-05 0.0 0.0 0.0
138 1 35.81595672131148 11.308144262295084 8.15979288963e-05 0.0 0.0 0.0
139 1 38.635721967213115 10.196870163934427 7.24305873223e-05 0.0 0.0 0.0
140 1 41.33516524590164 9.894878688524592 6.5516481083e-05 0.0 0.0 0.0
141 1 43.63971213114755 11.268457704918033 8.06930799059e-05 0.0 0.0 0.0
142 1 46.413731803278694 10.46740524590164 6.30412505205e-05 0.0 0.0 0.0
143 1 48.98371409836066 10.119971147540985 9.46131612459e-05 0.0 0.0 0.0
144 1 51.082557377049184 9.290592786885247 8.13543214965e-05 0.0 0.0 0.0
145 1 54.72705573770492 9.94764262295082 4.6867668026e-05 0.0 0.0 0.0
146 1 57.21175737704918 9.942340983606558 8.82606222374e-05 0.0 0.0 0.0
147 1 59.73836721311476 10.018634098360655 6.0892122308e-05 0.0 0.0 0.0
148 1 63.165245901639345 9.40743081967213 8.98706350039e-05 0.0 0.0 0.0
149 1 64.67545573770492 9.16421180327869 6.44915954245e-05 0.0 0.0 0.0
150 1 67.42826885245903 9.939260983606557 1.18933818915e-05 0.0 0.0 0.0
151 1 70.46535081967214 10.307750163934427 9.5408305583e-05 0.0 0.0 0.0
152 1 73.15151475409836 10.111892459016396 4.8799184588e-05 0.0 0.0 0.0
153 1 75.76547540983607 10.08008262295082 4.19994338361e-05 0.0 0.0 0.0
154 1 78.44204590163935 10.049484590163935 7.05844814936e-06 0.0 0.0 0.0
155 1 81.17567213114755 10.054786229508197 7.88766327859e-05 0.0 0.0 0.0
156 1 82.37283278688525 12.30858885245902 4.55324343058e-05 0.0 0.0 0.0
157 1 2.4067725901639347 12.549788196721313 2.22604383516e-05 0.0 0.0 0.0
158 1 5.467757377049181 12.536306885245903 3.4345632183e-05 0.0 0.0 0.0
159 1 8.234253770491804 12.225479344262297 2.97214381361e-05 0.0 0.0 0.0
160 1 10.888052459016395 11.848558032786887 4.14201058805e-05 0.0 0.0 0.0
161 1 12.911864918032787 10.66457573770492 4.99843915759e-05 0.0 0.0 0.0
162 1 16.417712786885247 11.992661639344263 5.46897077196e-05 0.0 0.0 0.0
163 1 18.8721193442623 12.170493770491804 7.87471724409e-05 0.0 0.0 0.0
164 1 21.471689836065575 12.03012655737705 9.56363119606e-05 0.0 0.0 0.0
165 1 24.165326557377053 12.266983606557378 6.33898570766e-06 0.0 0.0 0.0
166 1 28.09772918032787 12.384982950819674 8.35829619137e-05 0.0 0.0 0.0
167 1 30.707297049180333 12.132473442622953 5.53298324825e-05 0.0 0.0 0.0
168 1 32.257294426229514 12.243100983606558 2.60833809451e-05 0.0 0.0 0.0
169 1 34.98198360655738 12.617952131147543 6.50624374392e-05 0.0 0.0 0.0
170 1 37.58731016393443 12.537720655737706 2.24294967991e-06 0.0 0.0 0.0
171 1 40.21990229508197 12.306417704918035 7.5397404487e-05 0.0 0.0 0.0
172 1 42.86284524590164 12.588010491803281 8.12140173409e-05 0.0 0.0 0.0
173 1 45.4641324590164 12.862837377049182 6.87891253217e-05 0.0 0.0 0.0
174 1 48.04911081967214 12.634462950819673 7.99901725847e-05 0.0 0.0 0.0
175 1 50.562996721311485 12.257844590163936 6.98358608538e-05 0.0 0.0 0.0
176 1 53.234518032786895 12.14519737704918 7.32675143657e-05 0.0 0.0 0.0
177 1 55.85100327868853 12.378318032786886 9.39251048619e-05 0.0 0.0 0.0
178 1 58.349842622950824 12.390436065573772 7.35847978821e-06 0.0 0.0 0.0
179 1 60.878977049180335 12.468041967213116 8.59477404561e-06 0.0 0.0 0.0
180 1 63.25461639344263 12.095513442622952 4.77362091599e-05 0.0 0.0 0.0
181 1 65.78980983606559 11.64901442622951 7.87813962632e-05 0.0 0.0 0.0
182 1 68.07001967213115 11.359696393442624 4.58770460088e-05 0.0 0.0 0.0
183 1 71.75491147540984 12.466274754098361 9.08701991078e-05 0.0 0.0 0.0
184 1 74.3320131147541 12.432192786885247 3.18135812006e-05 0.0 0.0 0.0
185 1 76.99747540983607 12.34777049180328 2.53978048585e-05 0.0 0.0 0.0
186 1 79.71898360655739 12.280818360655738 5.38002936868e-05 0.0 0.0 0.0
187 1 0.9958700327868854 14.633837377049183 7.14803455184e-05 0.0 0.0 0.0
188 1 3.19251593442623 13.872370491803279 7.96438785525e-05 0.0 0.0 0.0
189 1 6.85688786885246 14.537852459016396 9.24553904692e-05 0.0 0.0 0.0
190 1 9.608792131147542 14.334875409836068 8.19644375715e-05 0.0 0.0 0.0
191 1 13.033903606557379 13.62056786885246 1.82629372697e-05 0.0 0.0 0.0
192 1 14.565521967213117 13.867876721311475 7.95595601979e-05 0.0 0.0 0.0
193 1 17.134241967213118 14.449946229508198 2.77173999784e-05 0.0 0.0 0.0
194 1 19.873573770491806 14.411875409836066 6.42562962309e-05 0.0 0.0 0.0
195 1 22.511568524590167 14.412329836065576 7.99490893918e-05 0.0 0.0 0.0
196 1 25.091093770491803 14.713210491803281 9.86779335369e-05 0.0 0.0 0.0
197 1 27.604373770491804 14.732296393442626 6.61584276029e-05 0.0 0.0 0.0
198 1 30.30391803278689 14.470092459016396 9.78339336054e-05 0.0 0.0 0.0
199 1 33.21936524590164 14.702203278688526 4.01791878488e-05 0.0 0.0 0.0
200 1 37.030991475409834 14.727398688524591 9.67781897502e-05 0.0 0.0 0.0
201 1 38.570385573770494 14.654942950819674 9.43253565369e-06 0.0 0.0 0.0
202 1 41.172076721311484 14.725025573770493 2.93166682673e-05 0.0 0.0 0.0
203 1 43.908530491803276 15.013434754098363 8.84432821874e-05 0.0 0.0 0.0
204 1 46.80443737704919 15.096493770491806 3.79044512642e-05 0.0 0.0 0.0
205 1 49.33079475409836 14.885942950819674 6.37608614127e-05 0.0 0.0 0.0
206 1 51.93738360655738 14.543558032786887 8.51682169017e-05 0.0 0.0 0.0
207 1 54.67100983606558 14.62156786885246 6.13706839408e-06 0.0 0.0 0.0
208 1 57.196104918032795 14.823939016393444 7.78388854304e-05 0.0 0.0 0.0
209 1 59.76512786885247 14.810861639344264 4.90627556477e-05 0.0 0.0 0.0
210 1 62.59973770491804 14.683167868852461 3.18873357611e-06 0.0 0.0 0.0
211 1 65.07080655737705 14.165172459016395 2.63709961879e-05 0.0 0.0 0.0
212 1 67.3404131147541 15.39510229508197 1.47872809429e-05 0.0 0.0 0.0
213 1 70.23763278688526 14.570217704918035 3.36487737614e-05 0.0 0.0 0.0
214 1 72.92884590163936 14.820808524590166 1.54851357304e-05 0.0 0.0 0.0
215 1 75.56300327868853 14.68170360655738 2.05321582295e-05 0.0 0.0 0.0
216 1 78.39710819672132 14.546739016393444 5.66434325973e-05 0.0 0.0 0.0
217 1 81.00450491803281 14.59001049180328 6.60294395332e-05 0.0 0.0 0.0
218 1 82.40312786885247 16.871785573770495 9.39803841076e-06 0.0 0.0 0.0
219 1 2.5999693770491805 16.733892459016396 7.1897970635e-05 0.0 0.0 0.0
220 1 5.178035409836066 16.751564590163937 4.92957858512e-05 0.0 0.0 0.0
221 1 7.822998032786886 16.59175803278689 8.22364682915e-05 0.0 0.0 0.0
222 1 10.585909508196721 16.54389180327869 8.17635176428e-05 0.0 0.0 0.0
223 1 13.07732655737705 16.57085442622951 5.06428245182e-07 0.0 0.0 0.0
224 1 15.643572459016394 16.547123278688527 4.67467104054e-05 0.0 0.0 0.0
225 1 18.40123278688525 16.66976786885246 2.35861243936e-05 0.0 0.0 0.0
226 1 21.08613442622951 16.729499672131148 3.16905094297e-05 0.0 0.0 0.0
227 1 23.7430131147541 16.895920655737704 6.6998111206e-05 0.0 0.0 0.0
228 1 26.425390163934427 17.103845901639346 6.36902742299e-05 0.0 0.0 0.0
229 1 29.052074754098363 16.849013770491805 3.68719961243e-06 0.0 0.0 0.0
230 1 31.809432131147545 16.75646229508197 1.45803050394e-05 0.0 0.0 0.0
231 1 34.27636065573771 17.214271475409838 5.30141474508e-05 0.0 0.0 0.0
232 1 36.8062524590164 17.160093770491805 1.03277403018e-05 0.0 0.0 0.0
233 1 39.68176065573771 17.047042622950823 7.58825719782e-05 0.0 0.0 0.0
234 1 42.21730754098361 17.058655737704917 2.62593260276e-05 0.0 0.0 0.0
235 1 44.89776590163935 17.019474098360657 1.22690646567e-06 0.0 0.0 0.0
236 1 47.989580983606565 17.44865442622951 3.93080610109e-05 0.0 0.0 0.0
237 1 50.88866885245902 17.068047213114756 4.21078091605e-06 0.0 0.0 0.0
238 1 53.43093114754099 16.818920655737706 4.46878743349e-05 0.0 0.0 0.0
239 1 55.99692459016394 17.17110098360656 9.41741485583e-05 0.0 0.0 0.0
240 1 58.73913442622951 17.19765967213115 8.36195375098e-06 0.0 0.0 0.0
241 1 61.473770491803286 16.834623606557376 9.05278544533e-05 0.0 0.0 0.0
242 1 64.04228852459018 16.86613049180328 2.22444359883e-05 0.0 0.0 0.0
243 1 66.6400918032787 16.79832 2.7499815517e-05 0.0 0.0 0.0
244 1 69.08288524590164 16.891376393442624 2.49855467406e-05 0.0 0.0 0.0
245 1 71.7145180327869 17.026845901639348 9.0975507215e-06 0.0 0.0 0.0
246 1 74.49308196721312 17.086577704918035 8.16052907995e-05 0.0 0.0 0.0
247 1 77.208531147541 16.69673049180328 3.86840794447e-05 0.0 0.0 0.0
248 1 79.74271475409836 16.907735737704918 3.8589551494e-05 0.0 0.0 0.0
249 1 1.0130170491803279 18.850104918032788 8.79238710942e-06 0.0 0.0 0.0
250 1 3.6854825573770498 19.175979016393445 9.1551110052e-08 0.0 0.0 0.0
251 1 6.721216393442624 18.99844983606558 3.47615988152e-06 0.0 0.0 0.0
252 1 9.504425573770492 18.69211606557377 5.34617548639e-05 0.0 0.0 0.0
253 1 11.37029967213115 20.253070163934428 1.88284750416e-05 0.0 0.0 0.0
254 1 14.630605901639345 19.034248524590165 9.80145218191e-05 0.0 0.0 0.0
255 1 17.254361967213118 18.833493114754102 5.96999932479e-05 0.0 0.0 0.0
256 1 19.819749508196722 18.984817049180332 3.84508201205e-05 0.0 0.0 0.0
257 1 22.424520655737705 19.10216 4.83922964155e-05 0.0 0.0 0.0
258 1 25.114622950819676 19.25656393442623 3.53312235069e-05 0.0 0.0 0.0
259 1 27.82870885245902 19.285344262295084 5.83098410171e-06 0.0 0.0 0.0
260 1 30.339211803278694 18.99133049180328 5.98746517108e-05 0.0 0.0 0.0
261 1 32.939034754098365 19.42864 7.7032305626e-05 0.0 0.0 0.0
262 1 35.77500786885246 19.566381639344264 7.08380056578e-06 0.0 0.0 0.0
263 1 38.544483278688524 19.190116721311476 4.6148442777e-05 0.0 0.0 0.0
264 1 41.24690557377049 19.442373770491805 3.01851989041e-05 0.0 0.0 0.0
265 1 44.2536924590164 19.1123593442623 1.22432064822e-05 0.0 0.0 0.0
266 1 45.56991278688525 18.371291147540987 2.90644659512e-06 0.0 0.0 0.0
267 1 48.790683934426234 18.75346360655738 9.77233003798e-05 0.0 0.0 0.0
268 1 52.24033442622951 19.301249180327872 7.15129243012e-05 0.0 0.0 0.0
269 1 54.64475409836066 19.32467737704918 9.46162929552e-05 0.0 0.0 0.0
270 1 56.72703606557378 18.546750163934426 9.30056022422e-05 0.0 0.0 0.0
271 1 60.48918032786886 19.13800918032787 4.36180773866e-05 0.0 0.0 0.0
272 1 62.604281967213126 20.495683278688528 9.44613378313e-05 0.0 0.0 0.0
273 1 65.2540918032787 19.256311475409838 3.39359728446e-05 0.0 0.0 0.0
274 1 67.90996065573772 19.289686557377053 4.55348363052e-05 0.0 0.0 0.0
275 1 70.5168524590164 19.241315409836066 9.24498040625e-05 0.0 0.0 0.0
276 1 72.50976393442623 18.36765573770492 1.5239409806e-06 0.0 0.0 0.0
277 1 76.20525901639344 19.025059016393442 6.43023563817e-05 0.0 0.0 0.0
278 1 78.3865049180328 20.39086229508197 1.70553437028e-05 0.0 0.0 0.0
279 1 80.9928918032787 19.186733770491802 8.64800471345e-06 0.0 0.0 0.0
280 1 0.08260105573770492 21.182624262295082 5.48212814597e-05 0.0 0.0 0.0
281 1 2.485191409836066 22.357921967213116 5.38615519031e-06 0.0 0.0 0.0
282 1 4.413544065573771 20.550517377049182 6.6403196367e-05 0.0 0.0 0.0
283 1 8.080506229508197 20.973840655737707 7.40439792929e-06 0.0 0.0 0.0
284 1 10.615093770491804 21.573632786885245 8.30036989901e-05 0.0 0.0 0.0
285 1 12.685863606557378 21.008932459016396 9.67058177985e-05 0.0 0.0 0.0
286 1 16.225641967213114 21.24089180327869 7.97755947366e-05 0.0 0.0 0.0
287 1 18.645360655737708 21.282295081967213 4.70433312507e-05 0.0 0.0 0.0
288 1 21.20171016393443 21.3806531147541 5.11823852823e-05 0.0 0.0 0.0
289 1 23.729733770491805 21.435537704918033 2.5130422082e-05 0.0 0.0 0.0
290 1 26.485576393442624 21.514557377049183 9.18431939328e-06 0.0 0.0 0.0
291 1 29.906900983606562 21.347732459016395 5.41932608524e-05 0.0 0.0 0.0
292 1 31.42917836065574 21.468963278688527 1.80837402468e-05 0.0 0.0 0.0
293 1 33.43804524590164 20.901031475409837 2.99234136865e-05 0.0 0.0 0.0
294 1 37.18110360655738 21.50728655737705 4.49649191978e-05 0.0 0.0 0.0
295 1 39.79662950819672 21.571360655737706 8.77213541922e-05 0.0 0.0 0.0
296 1 42.30975803278689 21.946514754098363 2.28593710017e-05 0.0 0.0 0.0
297 1 44.97734098360657 21.814074754098364 8.76154008174e-05 0.0 0.0 0.0
298 1 47.75050229508197 21.543893114754102 7.06299745139e-05 0.0 0.0 0.0
299 1 50.50947540983607 21.415139016393447 1.58197562125e-05 0.0 0.0 0.0
300 1 53.353678688524596 21.78211344262295 7.29765413461e-06 0.0 0.0 0.0
301 1 56.15698360655738 21.485120655737706 6.68084829813e-05 0.0 0.0 0.0
302 1 59.04814426229509 21.48002098360656 4.03366219135e-05 0.0 0.0 0.0
303 1 61.8504393442623 21.854619672131147 4.30517195002e-05 0.0 0.0 0.0
304 1 64.26344262295083 21.88385442622951 9.37974248829e-05 0.0 0.0 0.0
305 1 66.89911475409836 21.555607213114754 2.43253672985e-05 0.0 0.0 0.0
306 1 69.60093114754099 21.550204590163936 6.87405551388e-05 0.0 0.0 0.0
307 1 72.29870819672132 21.316932459016396 6.37437722152e-05 0.0 0.0 0.0
308 1 74.99194098360657 21.40332393442623 4.91691766528e-06 0.0 0.0 0.0
309 1 77.65134426229508 21.737882622950824 4.75226834941e-05 0.0 0.0 0.0
310 1 80.22794098360657 21.77413573770492 5.30394045648e-05 0.0 0.0 0.0
311 1 1.929009049180328 23.78275016393443 8.11335415916e-05 0.0 0.0 0.0
312 1 4.413685442622952 23.54513573770492 6.34949515641e-05 0.0 0.0 0.0
313 1 6.798418360655738 23.18517967213115 8.53680152274e-05 0.0 0.0 0.0
314 1 9.266306229508197 24.51452786885246 3.33564461809e-05 0.0 0.0 0.0
315 1 12.12904 23.84505704918033 5.85846970461e-05 0.0 0.0 0.0
316 1 14.794300327868854 23.456017704918036 4.99369833917e-05 0.0 0.0 0.0
317 1 17.520403278688526 23.744325901639346 7.48574484438e-05 0.0 0.0 0.0
318 1 19.999954754098365 23.702367213114755 1.56013221934e-06 0.0 0.0 0.0
319 1 22.47677967213115 23.810268196721314 3.5409692381e-05 0.0 0.0 0.0
320 1 24.862416393442626 23.646674754098363 3.40386321414e-06 0.0 0.0 0.0
321 1 27.358731147540986 23.904081967213116 8.74744743857e-05 0.0 0.0 0.0
322 1 29.89003672131148 24.089891803278693 5.40766667719e-05 0.0 0.0 0.0
323 1 33.03289901639345 23.84500655737705 3.44013742904e-05 0.0 0.0 0.0
324 1 35.63060131147541 23.66636655737705 4.05953811185e-05 0.0 0.0 0.0
325 1 38.22926295081968 23.820518032786886 5.39535954106e-06 0.0 0.0 0.0
326 1 40.79677114754099 24.125539016393446 8.92529940461e-05 0.0 0.0 0.0
327 1 43.61466819672132 24.150885901639345 2.02148202127e-05 0.0 0.0 0.0
328 1 46.39706950819672 23.996179016393445 9.24521950243e-05 0.0 0.0 0.0
329 1 49.56674295081968 23.71554557377049 5.08723599406e-05 0.0 0.0 0.0
330 1 52.064622950819675 24.739569836065577 5.96131232117e-05 0.0 0.0 0.0
331 1 54.87903606557377 23.868737704918036 8.90996666443e-05 0.0 0.0 0.0
332 1 57.48340327868853 23.629507540983607 6.41523691175e-05 0.0 0.0 0.0
333 1 60.29781639344263 23.900194098360657 1.84184251346e-05 0.0 0.0 0.0
334 1 63.22987540983607 24.37017180327869 1.82256036768e-05 0.0 0.0 0.0
335 1 65.79384918032788 23.998198688524592 8.84624370562e-05 0.0 0.0 0.0
336 1 68.47900327868852 23.802391475409838 4.43644460367e-05 0.0 0.0 0.0
337 1 71.1055868852459 23.711152786885247 4.16228857427e-05 0.0 0.0 0.0
338 1 73.70440000000002 23.68727016393443 6.21729866002e-05 0.0 0.0 0.0
339 1 76.3764262295082 23.911706229508198 8.86383435018e-05 0.0 0.0 0.0
340 1 78.92777704918034 24.109179672131148 5.51141625029e-05 0.0 0.0 0.0
341 1 81.81136393442624 23.778710819672135 1.95535564277e-05 0.0 0.0 0.0
342 1 0.5780150163934427 25.946222950819674 9.31849559843e-05 0.0 0.0 0.0
343 1 3.2051489836065574 26.091740327868852 5.87363271436e-05 0.0 0.0 0.0
344 1 5.794742295081967 25.88679409836066 7.89260000607e-05 0.0 0.0 0.0
345 1 8.48277442622951 25.82468918032787 5.42808618331e-05 0.0 0.0 0.0
346 1 11.074417704918034 26.116077377049184 5.40159952407e-05 0.0 0.0 0.0
347 1 13.545335081967213 25.947333770491806 5.79680123535e-05 0.0 0.0 0.0
348 1 16.188480000000002 25.843876065573774 5.80451460425e-05 0.0 0.0 0.0
349 1 19.505185573770493 26.014033442622953 5.36371245147e-05 0.0 0.0 0.0
350 1 21.03917704918033 26.174294426229512 4.59822189888e-05 0.0 0.0 0.0
351 1 24.274691803278692 26.110472786885246 5.50728340182e-05 0.0 0.0 0.0
352 1 25.80176590163935 26.113603278688526 7.38485999183e-05 0.0 0.0 0.0
353 1 28.521052459016396 26.32763803278689 2.11164547547e-06 0.0 0.0 0.0
354 1 30.84700786885246 25.292303606557383 9.42305736616e-06 0.0 0.0 0.0
355 1 34.59617573770492 26.094769836065574 3.73197478505e-05 0.0 0.0 0.0
356 1 37.03104196721312 26.061596721311478 9.43721910254e-05 0.0 0.0 0.0
357 1 39.346798032786886 27.379180327868855 5.29656857666e-05 0.0 0.0 0.0
358 1 42.14712393442624 26.271794098360658 6.21964929163e-05 0.0 0.0 0.0
359 1 44.9765331147541 26.25609114754099 4.44456424934e-05 0.0 0.0 0.0
360 1 47.30476065573771 25.26725967213115 3.13359197399e-05 0.0 0.0 0.0
361 1 51.228478688524596 26.030039344262295 7.83323794724e-05 0.0 0.0 0.0
362 1 53.80810491803279 26.281841967213115 7.20596285174e-05 0.0 0.0 0.0
363 1 56.44680655737705 26.128043934426234 2.3989009374e-05 0.0 0.0 0.0
364 1 58.96079344262296 25.879674754098364 3.28468213966e-05 0.0 0.0 0.0
365 1 61.04105573770492 25.2754393442623 9.5638703448e-05 0.0 0.0 0.0
366 1 64.59264918032788 26.519759344262297 6.15363704378e-05 0.0 0.0 0.0
367 1 67.1753049180328 26.14117180327869 1.09642368276e-05 0.0 0.0 0.0
368 1 69.83470819672132 26.089114754098365 5.11296865112e-05 0.0 0.0 0.0
369 1 72.27952131147542 26.071695081967217 5.68369816297e-07 0.0 0.0 0.0
370 1 74.88338360655739 26.109917377049182 9.48026749943e-05 0.0 0.0 0.0
371 1 77.83664918032788 26.446243278688527 6.89797695053e-05 0.0 0.0 0.0
372 1 80.54553442622951 25.96944918032787 6.71844867408e-06 0.0 0.0 0.0
373 1 1.5666647213114755 28.332869508196723 4.61948510921e-05 0.0 0.0 0.0
374 1 4.309071475409836 28.362508196721315 9.23490654154e-05 0.0 0.0 0.0
375 1 7.749027540983607 28.039057704918037 7.6973509422e-05 0.0 0.0 0.0
376 1 9.276556065573772 28.199268196721317 9.92687805027e-05 0.0 0.0 0.0
377 1 12.018260983606558 28.43587278688525 5.15159183261e-05 0.0 0.0 0.0
378 1 15.237769836065574 28.1535731147541 7.5340160848e-05 0.0 0.0 0.0
379 1 16.741264262295083 28.35432852459017 7.02844529766e-05 0.0 0.0 0.0
380 1 18.993249180327872 28.870708196721317 6.77163969089e-05 0.0 0.0 0.0
381 1 21.678554754098364 28.85359147540984 4.49755466254e-05 0.0 0.0 0.0
382 1 24.491705573770496 28.75412262295082 6.88085367537e-05 0.0 0.0 0.0
383 1 27.294909508196724 28.412899016393446 3.90275151039e-05 0.0 0.0 0.0
384 1 30.16981180327869 28.11696655737705 8.94989776922e-06 0.0 0.0 0.0
385 1 33.01871081967214 28.172002622950824 6.21250847009e-06 0.0 0.0 0.0
386 1 35.82575213114754 28.59098360655738 4.45675574836e-05 0.0 0.0 0.0
387 1 38.675105573770495 28.766745573770496 9.52803523572e-05 0.0 0.0 0.0
388 1 41.42463672131148 28.53084786885246 1.48104210066e-05 0.0 0.0 0.0
389 1 44.00688852459017 29.391127213114757 9.4125450173e-05 0.0 0.0 0.0
390 1 46.73874754098361 28.148574426229512 2.36710644062e-05 0.0 0.0 0.0
391 1 49.512868196721314 27.98457704918033 6.14579429466e-05 0.0 0.0 0.0
392 1 52.21205901639345 28.476215737704923 3.50240812578e-05 0.0 0.0 0.0
393 1 54.991127868852466 28.522213770491806 3.85988822179e-05 0.0 0.0 0.0
394 1 58.753777049180336 28.102879344262295 3.24747853575e-05 0.0 0.0 0.0
395 1 60.31649836065574 28.17326491803279 3.82219944816e-05 0.0 0.0 0.0
396 1 62.977416393442624 28.7110531147541 4.56728833643e-05 0.0 0.0 0.0
397 1 66.66483278688526 28.496917377049183 2.98367065624e-05 0.0 0.0 0.0
398 1 68.19624918032787 28.354883934426233 2.79219432411e-05 0.0 0.0 0.0
399 1 70.88948196721311 28.54745967213115 9.53744923105e-05 0.0 0.0 0.0
400 1 74.1936655737705 28.286265573770496 6.58988450567e-05 0.0 0.0 0.0
401 1 75.52412459016394 27.505359344262295 3.07899688238e-05 0.0 0.0 0.0
402 1 80.06687213114756 28.210073442622956 6.99589346932e-05 0.0 0.0 0.0
403 1 81.60434754098361 28.14791803278689 3.65047744822e-05 0.0 0.0 0.0
404 1 82.55864262295083 30.5415324590164 1.35432900866e-05 0.0 0.0 0.0
405 1 2.6059173114754097 30.577735081967216 6.07346856927e-05 0.0 0.0 0.0
406 1 5.2380701639344265 30.864074098360657 9.4191993479e-05 0.0 0.0 0.0
407 1 7.715349508196722 30.77424918032787 7.87120724641e-05 0.0 0.0 0.0
408 1 10.393030819672132 30.51790229508197 2.67689066983e-05 0.0 0.0 0.0
409 1 13.059351475409837 31.03382754098361 6.27033277554e-05 0.0 0.0 0.0
410 1 15.34738754098361 30.920473442622953 4.72474339699e-05 0.0 0.0 0.0
411 1 17.59689836065574 32.31611737704919 8.48317180332e-05 0.0 0.0 0.0
412 1 20.22343147540984 31.18368721311476 4.67866150574e-05 0.0 0.0 0.0