ITEM: TIMESTEP
0
ITEM: NUMBER OF ATOMS
2232
ITEM: BOX BOUNDS xy xz yz pp pp pp
0.0 82.68810555352132 0
0.0 83.16 0
-10.0 10.0 0
ITEM: ATOMS id type x y z vx vy vz
1 1 1.9865899016393445 1.1487188196721312 6.72368030555e-05 0.0 0.0 0.0
2 1 4.62379193442623 0.7859604590163936 3.59227955143e-06 0.0 0.0 0.0
3 1 7.216641967213115 0.5346324590163936 9.32735524081e-05 0.0 0.0 0.0
4 1 9.905027540983609 0.3435568327868853 1.39876279918e-05 0.0 0.0 0.0
5 1 12.501871475409837 0.8269547540983607 5.13914427519e-05 0.0 0.0 0.0
6 1 15.06508786885246 0.9717248524590165 7.80623475166e-05 0.0 0.0 0.0
7 1 17.72661180327869 0.8375226885245902 9.54887906751e-05 0.0 0.0 0.0
8 1 20.187885245901644 1.4146944918032787 4.40626441394e-05 0.0 0.0 0.0
9 1 22.71045573770492 1.2019220327868854 7.42959866489e-05 0.0 0.0 0.0
10 1 25.380967213114754 0.6609881967213115 8.0504105753e-05 0.0 0.0 0.0
11 1 28.018154098360657 0.5948388852459018 2.4793275155e-05 0.0 0.0 0.0
12 1 30.76697836065574 0.6036749508196722 1.33590000003e-05 0.0 0.0 0.0
13 1 33.56119475409836 0.5860381639344263 1.89969199896e-05 0.0 0.0 0.0
14 1 36.23044393442623 0.27107080000000006 1.00670972373e-06 0.0 0.0 0.0
15 1 38.95695081967214 0.32623057049180326 9.32227676394e-05 0.0 0.0 0.0
16 1 41.56172196721312 0.4578728000000001 1.73027800222e-05 0.0 0.0 0.0
17 1 44.21567213114754 0.4373453573770492 6.95246610611e-05 0.0 0.0 0.0
18 1 46.90814754098361 0.5538698360655738 4.55224362467e-05 0.0 0.0 0.0
19 1 49.55432196721312 0.7431939016393444 5.98299375646e-05 0.0 0.0 0.0
20 1 52.2600262295082 0.8176036721311476 1.61405651339e-05 0.0 0.0 0.0
21 1 54.982039344262304 0.5958436721311476 9.57029436344e-05 0.0 0.0 0.0
22 1 57.78433442622951 0.5195657049180328 4.51972024764e-05 0.0 0.0 0.0
23 1 60.55078032786886 0.590244131147541 6.70920459375e-05 0.0 0.0 0.0
24 1 63.36317377049181 0.8447430163934427 4.91399102592e-05 0.0 0.0 0.0
25 1 65.90846557377048 1.1856737704918034 3.96886561159e-05 0.0 0.0 0.0
26 1 69.42673442622952 0.8555735081967214 8.09702730526e-05 0.0 0.0 0.0
27 1 70.98592131147542 0.9472110819672132 4.16655228899e-05 0.0 0.0 0.0
28 1 73.65289836065575 1.1229780983606559 1.91556266567e-05 0.0 0.0 0.0
29 1 76.52689180327869 1.186461442622951 4.14109357877e-05 0.0 0.0 0.0
30 1 79.22820327868854 1.2195790163934428 4.30850461196e-05 0.0 0.0 0.0
31 1 82.0128262295082 1.1892485901639345 8.25555615202e-05 0.0 0.0 0.0
32 1 0.8052735737704918 3.441945442622951 1.21218951742e-06 0.0 0.0 0.0
33 1 3.5020357377049187 3.2532878688524596 1.00692685882e-05 0.0 0.0 0.0
34 1 6.16464524590164 3.016092524590164 9.03088348726e-05 0.0 0.0 0.0
35 1 8.752703606557379 2.7026192131147546 8.56559917484e-06 0.0 0.0 0.0
36 1 11.009939672131148 4.067973114754098 1.22624378729e-05 0.0 0.0 0.0
37 1 13.871411147540986 3.302588065573771 7.79678586557e-05 0.0 0.0 0.0
38 1 16.508396065573773 3.185775278688525 9.15242891084e-05 0.0 0.0 0.0
39 1 18.811024262295085 4.650300131147541 8.46112923201e-05 0.0 0.0 0.0
40 1 21.601908196721315 3.708824918032787 9.84880287561e-05 0.0 0.0 0.0
41 1 24.29705967213115 3.2216244590163936 7.90616819193e-05 0.0 0.0 0.0
42 1 26.86648655737705 3.0119723934426235 1.12195279499e-05 0.0 0.0 0.0
43 1 29.432833442622954 2.8750436721311474 2.15314927525e-06 0.0 0.0 0.0
44 1 32.26658491803279 2.8242438688524594 1.21152853591e-05 0.0 0.0 0.0
45 1 35.86316655737705 2.468448327868853 5.66942151607e-05 0.0 0.0 0.0
46 1 37.40973049180328 2.514375672131148 1.88312237753e-06 0.0 0.0 0.0
47 1 40.097207213114764 2.7574886557377054 9.513267265e-05 0.0 0.0 0.0
48 1 42.83396393442624 2.796917704918033 9.13100222699e-05 0.0 0.0 0.0
49 1 45.5188655737705 2.811752196721312 1.82121869837e-05 0.0 0.0 0.0
50 1 48.2785455737705 2.899395868852459 4.76267730648e-05 0.0 0.0 0.0
51 1 50.35805049180328 4.0849383606557375 6.46468571836e-05 0.0 0.0 0.0
52 1 53.86465573770493 3.0020002622950823 3.30161875155e-05 0.0 0.0 0.0
53 1 56.55435409836066 2.754110754098361 4.24278265595e-05 0.0 0.0 0.0
54 1 59.13953442622951 2.808177377049181 5.73827803145e-05 0.0 0.0 0.0
55 1 61.74794098360657 2.9432379016393444 9.98129338123e-05 0.0 0.0 0.0
56 1 64.2452655737705 3.3661118032786885 2.16975225155e-05 0.0 0.0 0.0
57 1 66.65220983606558 3.5908811147540987 1.87335660053e-06 0.0 0.0 0.0
58 1 69.17831475409837 3.648315540983607 9.66213770478e-05 0.0 0.0 0.0
59 1 72.40777049180329 3.4193352131147545 3.81657920707e-05 0.0 0.0 0.0
60 1 75.09393442622951 3.283901049180328 4.069311432e-06 0.0 0.0 0.0
61 1 77.75030819672132 3.557718098360656 7.55233020015e-06 0.0 0.0 0.0
62 1 80.73588852459017 3.481647147540984 5.88795480233e-05 0.0 0.0 0.0
63 1 2.165118819672131 5.602419016393443 2.22373777477e-05 0.0 0.0 0.0
64 1 4.841648918032787 5.436149508196722 9.27717622698e-05 0.0 0.0 0.0
65 1 7.493740983606558 5.24604786885246 4.3954027627e-05 0.0 0.0 0.0
66 1 10.198182950819673 5.383840000000001 3.84675538162e-06 0.0 0.0 0.0
67 1 12.735295081967214 5.632259672131148 1.76797762762e-06 0.0 0.0 0.0
68 1 15.436556065573772 5.602873442622951 1.2533955634e-05 0.0 0.0 0.0
69 1 18.10004918032787 6.019531803278689 7.0683805261e-06 0.0 0.0 0.0
70 1 20.56409967213115 6.136672786885247 5.95744218226e-05 0.0 0.0 0.0
71 1 23.239205901639348 5.70996655737705 4.88110359994e-05 0.0 0.0 0.0
72 1 25.781367213114756 5.528398032786885 4.78339046973e-05 0.0 0.0 0.0
73 1 28.250769836065576 5.380911475409837 8.19199149842e-05 0.0 0.0 0.0
74 1 30.844786229508202 5.000354754098361 3.80180664864e-05 0.0 0.0 0.0
75 1 33.45622229508197 5.219792131147541 7.36332385402e-05 0.0 0.0 0.0
76 1 35.881596065573774 5.123706229508198 9.75570365688e-05 0.0 0.0 0.0
77 1 38.60997114754099 4.954523344262296 5.57655664922e-05 0.0 0.0 0.0
78 1 41.402268852459024 5.061096393442623 2.95518564724e-05 0.0 0.0 0.0
79 1 44.102974426229515 5.143801967213116 4.56509268581e-05 0.0 0.0 0.0
80 1 46.71436 5.108710163934427 5.12341668839e-05 0.0 0.0 0.0
81 1 49.505092459016396 5.337488524590165 9.53382437688e-05 0.0 0.0 0.0
82 1 51.715724590163944 4.756368262295083 3.0054331551e-05 0.0 0.0 0.0
83 1 55.28852459016394 5.124615081967214 9.62872932111e-05 0.0 0.0 0.0
84 1 57.7580786885246 5.158040655737706 1.4581206157e-05 0.0 0.0 0.0
85 1 60.295291803278694 5.2360504918032795 9.62454804055e-05 0.0 0.0 0.0
86 1 62.898144262295084 5.567175737704918 2.46970776758e-05 0.0 0.0 0.0
87 1 65.38385573770492 5.948439344262296 3.71198407292e-05 0.0 0.0 0.0
88 1 67.93520655737706 5.980905573770492 5.39992449203e-05 0.0 0.0 0.0
89 1 70.14826229508198 4.847889704918034 2.30603624446e-05 0.0 0.0 0.0
90 1 73.88061639344264 5.616859672131148 5.51374308823e-05 0.0 0.0 0.0
91 1 76.36784262295082 5.702998688524591 2.10506602e-05 0.0 0.0 0.0
92 1 78.46224262295082 4.940905704918033 6.74785169968e-05 0.0 0.0 0.0
93 1 82.15117377049181 5.650588196721312 7.10587514231e-05 0.0 0.0 0.0
94 1 0.6752066885245902 7.876014426229509 8.17195869431e-05 0.0 0.0 0.0
95 1 3.37838131147541 7.801841967213116 5.30777589756e-05 0.0 0.0 0.0
96 1 6.008777049180328 7.6580918032786895 3.34991022005e-06 0.0 0.0 0.0
97 1 8.58820131147541 7.599218360655739 5.02576199218e-05 0.0 0.0 0.0
98 1 11.17620918032787 7.861775737704918 5.80162815884e-05 0.0 0.0 0.0
99 1 13.8038531147541 7.850617049180328 6.83660953385e-05 0.0 0.0 0.0
100 1 16.474819016393447 8.115295081967215 2.35239744227e-05 0.0 0.0 0.0
101 1 19.366030163934425 8.521754098360658 4.08685282286e-05 0.0 0.0 0.0
102 1 22.05557704918033 8.160990163934427 7.66023209715e-06 0.0 0.0 0.0
103 1 24.563151475409835 8.034053770491804 1.28868338629e-05 0.0 0.0 0.0
104 1 26.934196065573772 7.957710163934427 2.56981721236e-05 0.0 0.0 0.0
105 1 30.46367409836066 7.310203278688525 4.97802405841e-05 0.0 0.0 0.0
106 1 32.003068196721316 7.409217704918033 9.03899174432e-05 0.0 0.0 0.0
107 1 34.67671016393442 7.63112918032787 5.02761279425e-05 0.0 0.0 0.0
108 1 37.26567737704919 7.326916065573772 9.49161289048e-05 0.0 0.0 0.0
109 1 39.87605311475411 7.22073180327869 2.69596856211e-05 0.0 0.0 0.0
110 1 42.62629114754099 7.419568524590164 2.47363533397e-05 0.0 0.0 0.0
111 1 45.61722360655738 7.505404590163935 2.33971311549e-05 0.0 0.0 0.0
112 1 48.31151672131148 7.349435409836066 4.03892052066e-05 0.0 0.0 0.0
113 1 51.0280262295082 7.521662950819673 1.35643267302e-05 0.0 0.0 0.0
114 1 53.73842622950821 7.305002622950821 8.0229738152e-05 0.0 0.0 0.0
115 1 56.22868196721312 7.562611803278689 7.47882606106e-05 0.0 0.0 0.0
116 1 58.80325901639345 7.592452459016394 7.70283259596e-05 0.0 0.0 0.0
117 1 61.36117377049181 7.721660983606558 6.78763824906e-05 0.0 0.0 0.0
118 1 63.97311475409837 8.189467540983607 5.19630964984e-05 0.0 0.0 0.0
119 1 66.96020983606559 8.31988786885246 4.47277056939e-05 0.0 0.0 0.0
120 1 69.66758032786886 7.740948852459017 1.0449058051e-05 0.0 0.0 0.0
121 1 72.40575081967215 7.704190819672132 1.9296585138e-05 0.0 0.0 0.0
122 1 75.14190163934427 8.096007213114756 8.61580965984e-05 0.0 0.0 0.0
123 1 77.86340983606559 7.903128524590165 3.00858176828e-05 0.0 0.0 0.0
124 1 80.5692655737705 7.761953442622952 9.25164583476e-05 0.0 0.0 0.0
125 1 1.9797230163934427 10.116487213114755 7.38358731179e-05 0.0 0.0 0.0
126 1 4.562393901639345 10.061754098360655 7.05802352891e-05 0.0 0.0 0.0
127 1 7.138783606557378 10.004344918032789 7.6387838054e-05 0.0 0.0 0.0
128 1 9.713310163934427 10.075285901639345 4.14690177706e-05 0.0 0.0 0.0
129 1 12.33464262295082 10.16713049180328 3.36705790146e-05 0.0 0.0 0.0
130 1 14.95228918032787 10.228780983606558 6.01026017981e-05 0.0 0.0 0.0
131 1 17.103139016393445 9.530024918032789 7.6720563636e-05 0.0 0.0 0.0
132 1 20.652763278688525 10.543193442622952 4.43231213783e-05 0.0 0.0 0.0
133 1 23.135748196721313 10.49598360655738 3.36121954715e-06 0.0 0.0 0.0
134 1 25.403385573770496 10.539507540983607 9.20807819333e-05 0.0 0.0 0.0
135 1 27.98876786885246 10.333904918032788 9.88767134584e-05 0.0 0.0 0.0
136 1 30.638981639344266 9.895585573770493 1.40249119449e-05 0.0 0.0 0.0
137 1 33.48399278688525 9.823483278688526 4.73980106129e-05 0.0 0.0 0.0
138 1 36.09653967213115 9.852415081967214 1.72335048678e-05 0.0 0.0 0.0
139 1 38.644810491803284 9.638026885245903 1.21439021069e-05 0.0 0.0 0.0
140 1 41.33082295081967 9.513312131147542 1.19233219925e-05 0.0 0.0 0.0
141 1 43.42158754098361 8.748159344262296 4.6894415415e-05 0.0 0.0 0.0
142 1 47.10021836065574 9.659990819672132 4.82845874117e-05 0.0 0.0 0.0
143 1 49.65333639344263 9.655295081967214 2.09506496763e-05 0.0 0.0 0.0
144 1 52.24538360655738 9.63312918032787 1.60503457155e-05 0.0 0.0 0.0
145 1 54.71291803278689 9.872460327868854 4.05463393116e-05 0.0 0.0 0.0
146 1 57.33243278688525 9.946228852459017 8.48544192353e-05 0.0 0.0 0.0
147 1 60.03273442622952 10.034993442622952 2.31083263799e-05 0.0 0.0 0.0
148 1 62.63003278688525 10.226963278688526 4.53589790377e-05 0.0 0.0 0.0
149 1 64.66939672131149 9.573195409836067 4.60880002704e-06 0.0 0.0 0.0
150 1 68.28965901639344 10.203838032786885 4.96213571147e-05 0.0 0.0 0.0
151 1 70.7784 9.951833442622952 4.98259881607e-05 0.0 0.0 0.0
152 1 73.40599344262296 10.131786229508197 5.39517979673e-05 0.0 0.0 0.0
153 1 76.5031606557377 10.326684590163936 5.19097884701e-05 0.0 0.0 0.0
154 1 79.50388852459017 10.158243934426231 1.85823415229e-05 0.0 0.0 0.0
155 1 82.12188852459018 10.015453114754099 7.07068332008e-05 0.0 0.0 0.0
156 1 0.5744805901639345 12.46521442622951 9.15866819108e-05 0.0 0.0 0.0
157 1 3.113617442622951 12.456580327868854 9.48145598966e-05 0.0 0.0 0.0
158 1 5.709057704918034 12.405987540983608 3.13076195232e-06 0.0 0.0 0.0
159 1 8.32524 12.411087213114756 8.86600767989e-05 0.0 0.0 0.0
160 1 10.957731147540986 12.45097573770492 4.10056631062e-05 0.0 0.0 0.0
161 1 13.672271475409836 12.512525245901642 6.02943047275e-05 0.0 0.0 0.0
162 1 16.475323934426232 12.407047868852459 1.15400611734e-05 0.0 0.0 0.0
163 1 19.28786885245902 12.782555409836066 8.30461965871e-05 0.0 0.0 0.0
164 1 21.85037836065574 12.929183606557379 8.52784673025e-05 0.0 0.0 0.0
165 1 23.63102229508197 14.507102950819673 1.816676043e-05 0.0 0.0 0.0
166 1 26.97817442622951 12.775940983606558 5.97171829726e-05 0.0 0.0 0.0
167 1 29.714729180327872 12.321464262295082 9.63546729295e-06 0.0 0.0 0.0
168 1 32.28652918032787 11.973676721311476 7.01074286896e-05 0.0 0.0 0.0
169 1 34.87039672131148 12.230528524590165 5.57363704607e-05 0.0 0.0 0.0
170 1 37.71788196721312 12.137017704918035 4.56099411234e-05 0.0 0.0 0.0
171 1 40.39556327868853 11.7956931147541 9.40928760378e-05 0.0 0.0 0.0
172 1 43.083040000000004 11.642601967213116 1.15778902024e-05 0.0 0.0 0.0
173 1 45.77006229508197 11.810184262295083 2.78735996795e-05 0.0 0.0 0.0
174 1 48.501466885245904 12.012605901639345 5.25163736129e-05 0.0 0.0 0.0
175 1 51.0396393442623 11.975544918032789 1.3942893262e-05 0.0 0.0 0.0
176 1 53.1688786885246 13.398353442622952 6.62162708925e-05 0.0 0.0 0.0
177 1 55.92724590163935 12.264055081967214 3.22570476203e-06 0.0 0.0 0.0
178 1 58.70025573770493 12.25067475409836 6.78366906111e-05 0.0 0.0 0.0
179 1 61.515173770491806 12.451581639344264 2.72754831721e-06 0.0 0.0 0.0
180 1 64.19275409836067 12.506365245901641 1.10079892514e-05 0.0 0.0 0.0
181 1 66.76026229508197 12.524946229508199 1.2371211775e-06 0.0 0.0 0.0
182 1 69.40502295081968 12.479857049180328 6.85919697358e-05 0.0 0.0 0.0
183 1 71.99424262295084 12.335248524590165 7.95703004952e-05 0.0 0.0 0.0
184 1 74.05986229508197 11.520916721311476 7.33608253336e-05 0.0 0.0 0.0
185 1 77.38777704918033 11.575649836065574 9.31307025241e-05 0.0 0.0 0.0
186 1 80.8272786885246 12.406946885245903 6.5568537249e-05 0.0 0.0 0.0
187 1 1.597257704918033 14.852062950819674 7.44715315282e-05 0.0 0.0 0.0
188 1 4.236620786885246 14.785161311475411 7.46806334321e-05 0.0 0.0 0.0
189 1 6.924294426229508 14.750321967213116 4.57209399749e-05 0.0 0.0 0.0
190 1 9.56466229508197 14.760066885245903 3.1018835221e-06 0.0 0.0 0.0
191 1 12.185893770491804 14.731337049180329 5.61298916117e-05 0.0 0.0 0.0
192 1 14.899676721311478 14.627626885245904 8.74514999506e-05 0.0 0.0 0.0
193 1 17.677230819672133 14.748352786885247 9.75558682943e-05 0.0 0.0 0.0
194 1 20.335270819672132 15.332189508196723 8.14032227644e-05 0.0 0.0 0.0
195 1 23.247284590163936 16.020493770491804 1.53468156831e-05 0.0 0.0 0.0
196 1 25.091851147540986 14.935273442622952 9.7689582511e-05 0.0 0.0 0.0
197 1 28.792092459016395 14.639896393442623 6.49678068058e-05 0.0 0.0 0.0
198 1 31.42104918032787 14.424296393442624 1.86871462838e-05 0.0 0.0 0.0
199 1 33.729887868852465 14.41293573770492 9.07394955036e-05 0.0 0.0 0.0
200 1 35.61565573770492 13.591989508196722 7.35404950721e-05 0.0 0.0 0.0
201 1 39.141649836065575 14.19885049180328 7.73493780659e-05 0.0 0.0 0.0
202 1 41.689668196721314 13.996984262295083 4.93753455169e-05 0.0 0.0 0.0
203 1 44.38264852459017 14.048081967213117 2.83554788062e-05 0.0 0.0 0.0
204 1 47.77807081967214 14.020260983606558 3.50387563458e-05 0.0 0.0 0.0
205 1 49.28959344262296 14.34557967213115 2.72532510165e-05 0.0 0.0 0.0
206 1 52.46502295081968 14.784706885245903 7.8929788284e-05 0.0 0.0 0.0
207 1 55.02849180327869 14.699274754098363 5.68379780506e-05 0.0 0.0 0.0
208 1 57.463206557377056 14.454288524590165 4.23459899647e-05 0.0 0.0 0.0
209 1 60.11907540983607 14.483119344262297 3.12639672013e-05 0.0 0.0 0.0
210 1 62.797665573770495 14.810710163934427 1.59923493252e-05 0.0 0.0 0.0
211 1 65.57925901639345 14.978292459016394 5.24585492802e-05 0.0 0.0 0.0
212 1 68.21392131147542 14.838682622950822 1.30025359802e-05 0.0 0.0 0.0
213 1 70.94502295081968 14.736436721311478 1.69483686613e-05 0.0 0.0 0.0
214 1 73.71348852459018 14.424548852459019 8.13215013501e-05 0.0 0.0 0.0
215 1 76.46579672131149 14.359868852459018 9.8531173791e-05 0.0 0.0 0.0
216 1 79.14691147540985 14.571076065573772 3.02726753675e-05 0.0 0.0 0.0
217 1 81.71997377049182 14.881247213114756 1.91673725498e-05 0.0 0.0 0.0
218 1 0.15843469508196723 17.267388852459018 6.10428688051e-05 0.0 0.0 0.0
219 1 2.732762819672131 17.1409068852459 5.53998937494e-05 0.0 0.0 0.0
220 1 5.511382295081968 17.04820393442623 8.1573443873e-05 0.0 0.0 0.0
221 1 8.216834098360655 17.082235409836066 3.36404496931e-05 0.0 0.0 0.0
222 1 10.80352918032787 17.087385573770494 1.93190083368e-05 0.0 0.0 0.0
223 1 13.37381442622951 16.920964590163937 8.54718980792e-05 0.0 0.0 0.0
224 1 16.072702295081967 16.848306885245904 3.52575568957e-05 0.0 0.0 0.0
225 1 18.648844590163936 17.26728786885246 7.33423878515e-06 0.0 0.0 0.0
226 1 20.94521180327869 16.78726229508197 9.62425107342e-05 0.0 0.0 0.0
227 1 25.150522622950824 17.87248262295082 9.85507531364e-05 0.0 0.0 0.0
228 1 27.860771147540987 16.81377049180328 4.89273683105e-05 0.0 0.0 0.0
229 1 30.599800000000002 16.72793442622951 4.34989699131e-05 0.0 0.0 0.0
230 1 32.83880852459016 16.918995409836068 8.65180041897e-05 0.0 0.0 0.0
231 1 35.299678032786886 16.611096393442626 9.42738161161e-05 0.0 0.0 0.0
232 1 37.71091409836066 16.51455606557377 1.40305306222e-05 0.0 0.0 0.0
233 1 40.12871409836066 16.43028524590164 1.97066162408e-05 0.0 0.0 0.0
234 1 42.727527213114755 16.252099672131152 6.1099922943e-05 0.0 0.0 0.0
235 1 45.159262950819674 16.715765901639344 7.07538271088e-05 0.0 0.0 0.0
236 1 47.61412393442624 16.679967213114754 3.06259407509e-05 0.0 0.0 0.0
237 1 49.90579540983607 15.788180983606559 4.91342757376e-05 0.0 0.0 0.0
238 1 53.62078032786886 17.06234163934426 3.34957934803e-06 0.0 0.0 0.0
239 1 56.30340983606558 17.008820327868854 4.95357556112e-05 0.0 0.0 0.0
240 1 58.92040000000001 16.736063606557376 3.52497824803e-05 0.0 0.0 0.0
241 1 61.04358032786886 18.052182950819674 9.86785175472e-06 0.0 0.0 0.0
242 1 63.78276065573771 17.12333573770492 5.20501100798e-05 0.0 0.0 0.0
243 1 67.61357377049181 17.20457704918033 8.77951291823e-05 0.0 0.0 0.0
244 1 69.84884590163935 17.025230163934427 8.53806345826e-05 0.0 0.0 0.0
245 1 72.48603278688526 16.778577704918035 4.07769060929e-05 0.0 0.0 0.0
246 1 75.05707540983606 16.664718688524594 9.84845962603e-05 0.0 0.0 0.0
247 1 77.74525901639345 16.812710163934426 6.17579380443e-05 0.0 0.0 0.0
248 1 80.26278032786885 17.13489836065574 7.5332495909e-05 0.0 0.0 0.0
249 1 1.4212533770491804 19.612076721311478 7.74850484607e-05 0.0 0.0 0.0
250 1 4.0636106229508195 19.274135081967216 1.93040036387e-05 0.0 0.0 0.0
251 1 6.856382950819673 19.32972655737705 9.28627099506e-05 0.0 0.0 0.0
252 1 9.49599344262295 19.463630819672133 8.59856933449e-05 0.0 0.0 0.0
253 1 12.176653770491804 19.379965901639345 1.9881702624e-05 0.0 0.0 0.0
254 1 14.896445245901642 19.112005901639346 3.13328918537e-05 0.0 0.0 0.0
255 1 17.26319803278689 20.43660786885246 7.74354899833e-06 0.0 0.0 0.0
256 1 20.053476065573772 19.568401311475412 1.81191938094e-06 0.0 0.0 0.0
257 1 22.969983606557378 18.824556065573773 1.56465702785e-05 0.0 0.0 0.0
258 1 26.27219803278689 18.88216721311476 9.32860686768e-05 0.0 0.0 0.0
259 1 29.051468852459017 18.902969836065576 6.60015467508e-05 0.0 0.0 0.0
260 1 31.33147672131148 19.34704524590164 4.40876543067e-05 0.0 0.0 0.0
261 1 34.00112983606558 19.19996262295082 9.56073687156e-05 0.0 0.0 0.0
262 1 36.58040262295082 19.089335081967217 3.17909053265e-06 0.0 0.0 0.0
263 1 39.02466032786886 18.973304918032788 4.66901414949e-05 0.0 0.0 0.0
264 1 41.53304262295082 18.64839016393443 6.08711865196e-05 0.0 0.0 0.0
265 1 43.56089442622952 20.14511868852459 6.07957497016e-05 0.0 0.0 0.0
266 1 46.44377442622951 19.14154360655738 4.20033343382e-05 0.0 0.0 0.0
267 1 49.2954 18.68065442622951 2.46606031917e-05 0.0 0.0 0.0
268 1 51.98030163934426 18.912512786885248 2.31974463548e-05 0.0 0.0 0.0
269 1 54.70988852459017 19.28095147540984 4.99957359988e-05 0.0 0.0 0.0
270 1 57.402111475409846 19.18733967213115 2.67892232462e-05 0.0 0.0 0.0
271 1 60.03980327868853 19.222532459016396 6.11230448217e-05 0.0 0.0 0.0
272 1 62.51541639344263 19.64772393442623 2.41260324998e-05 0.0 0.0 0.0
273 1 65.0652524590164 19.59152655737705 2.97685698867e-05 0.0 0.0 0.0
274 1 66.49518032786885 18.23546819672131 3.97075170392e-05 0.0 0.0 0.0
275 1 71.06822295081969 19.18506754098361 6.77907328816e-05 0.0 0.0 0.0
276 1 73.55342950819673 19.094687213114756 9.42668219543e-05 0.0 0.0 0.0
277 1 76.20172459016395 19.02288786885246 3.10318012848e-06 0.0 0.0 0.0
278 1 78.78892459016394 19.43343672131148 9.18403595702e-05 0.0 0.0 0.0
279 1 81.47256393442623 19.623689836065576 8.96575442361e-06 0.0 0.0 0.0
280 1 0.15299773770491804 22.02356524590164 7.27325635274e-05 0.0 0.0 0.0
281 1 3.5374355409836067 21.588679344262296 9.17625248906e-05 0.0 0.0 0.0
282 1 5.060793442622951 21.402465573770492 4.37731081119e-05 0.0 0.0 0.0
283 1 7.792097049180328 21.69178360655738 1.21105498521e-06 0.0 0.0 0.0
284 1 10.944704262295083 21.731217704918034 2.87825856561e-05 0.0 0.0 0.0
285 1 13.700041967213116 21.491381639344265 4.62202849517e-05 0.0 0.0 0.0
286 1 16.431800000000003 21.725966557377053 7.95329707507e-05 0.0 0.0 0.0
287 1 18.94013180327869 21.99468393442623 5.08203590324e-05 0.0 0.0 0.0
288 1 21.352428196721313 22.081125901639346 8.77857758539e-05 0.0 0.0 0.0
289 1 23.658237377049183 21.687289836065577 7.2957247457e-05 0.0 0.0 0.0
290 1 26.41084852459017 21.58549836065574 3.7425186164e-05 0.0 0.0 0.0
291 1 29.44141704918033 21.543388196721313 5.3237241295e-05 0.0 0.0 0.0
292 1 32.350148852459014 21.532078032786888 6.51706557855e-05 0.0 0.0 0.0
293 1 35.22555606557377 21.532835409836068 7.37822895611e-05 0.0 0.0 0.0
294 1 37.99493049180329 21.538641967213117 7.78100860347e-05 0.0 0.0 0.0
295 1 40.70775409836066 21.189895081967215 8.85004801861e-05 0.0 0.0 0.0
296 1 43.12509967213115 22.348429508196723 7.38510188612e-06 0.0 0.0 0.0
297 1 45.71871213114755 21.36187016393443 4.41464055943e-05 0.0 0.0 0.0
298 1 48.1728662295082 21.009033442622954 7.8664650281e-06 0.0 0.0 0.0
299 1 50.72961967213116 21.145714754098364 4.38902482293e-05 0.0 0.0 0.0
300 1 53.33297704918033 21.352175737704922 9.76171561685e-05 0.0 0.0 0.0
301 1 55.95249180327869 21.517031475409837 5.48237266939e-05 0.0 0.0 0.0
302 1 58.51747540983607 21.524504262295086 5.04161790551e-05 0.0 0.0 0.0
303 1 60.98702950819673 21.783476721311477 7.08233091072e-05 0.0 0.0 0.0
304 1 63.063757377049185 21.072299672131148 2.82734571239e-05 0.0 0.0 0.0
305 1 66.93546885245902 21.243769836065578 3.76276181695e-05 0.0 0.0 0.0
306 1 69.66253114754099 21.20554754098361 9.91450980878e-05 0.0 0.0 0.0
307 1 72.20529836065575 21.60428131147541 9.67736097155e-05 0.0 0.0 0.0
308 1 74.93438032786885 21.366666885245905 8.15540808473e-05 0.0 0.0 0.0
309 1 77.19590819672132 22.717575081967215 5.16839117026e-05 0.0 0.0 0.0
310 1 80.06737704918034 21.894104262295084 5.55696366874e-05 0.0 0.0 0.0
311 1 1.330908393442623 24.548357377049182 9.85193097305e-05 0.0 0.0 0.0
312 1 3.8153777704918035 24.291051147540987 6.34623263342e-05 0.0 0.0 0.0
313 1 6.410893770491803 23.74412393442623 1.69892393395e-05 0.0 0.0 0.0
314 1 8.604611147540984 22.994876065573774 2.34193026174e-05 0.0 0.0 0.0
315 1 12.145702295081968 23.775580327868855 7.0649648897e-05 0.0 0.0 0.0
316 1 14.83030098360656 23.82773836065574 2.84602184373e-05 0.0 0.0 0.0
317 1 17.523735737704918 24.22702754098361 9.12900299379e-05 0.0 0.0 0.0
318 1 20.170920000000002 24.497916065573772 8.60259079656e-05 0.0 0.0 0.0
319 1 22.719847213114758 24.40788918032787 3.49251576668e-05 0.0 0.0 0.0
320 1 25.290586885245904 23.91938098360656 8.8269218837e-05 0.0 0.0 0.0
321 1 28.05279147540984 23.616480655737707 3.73594770637e-05 0.0 0.0 0.0
322 1 30.813582295081968 23.658792786885247 8.10711465324e-05 0.0 0.0 0.0
323 1 33.537160655737715 23.647684590163937 8.88962857589e-05 0.0 0.0 0.0
324 1 36.297042622950826 23.802290491803284 7.41582493859e-06 0.0 0.0 0.0
325 1 39.48928590163935 23.763209836065574 9.96460419991e-05 0.0 0.0 0.0
326 1 43.34029573770492 23.852125901639347 2.37428641967e-05 0.0 0.0 0.0
327 1 44.86216918032787 23.919835409836068 4.16161970609e-05 0.0 0.0 0.0
328 1 47.27385967213115 23.581540327868854 8.81005573416e-05 0.0 0.0 0.0
329 1 49.636169180327876 24.620358688524593 1.69796999049e-06 0.0 0.0 0.0
330 1 52.26558032786886 23.605019016393445 7.74620423512e-05 0.0 0.0 0.0
331 1 54.72301639344263 23.788607213114755 6.77472208848e-05 0.0 0.0 0.0
332 1 57.315770491803285 23.902365245901642 8.95738678991e-05 0.0 0.0 0.0
333 1 59.93831475409837 24.04066229508197 1.86860847109e-05 0.0 0.0 0.0
334 1 62.57853114754099 23.939072786885248 3.15711365715e-05 0.0 0.0 0.0
335 1 65.07131147540984 23.49939016393443 9.56233354187e-05 0.0 0.0 0.0
336 1 67.78171147540984 23.393761311475412 4.81897883581e-07 0.0 0.0 0.0
337 1 70.7324524590164 23.92670229508197 5.47279820996e-05 0.0 0.0 0.0
338 1 73.55645901639345 23.80420918032787 4.50582912457e-05 0.0 0.0 0.0
339 1 76.33451803278689 24.01455803278689 5.12205908544e-05 0.0 0.0 0.0
340 1 78.83992131147542 24.273934426229513 4.0787437122e-06 0.0 0.0 0.0
341 1 81.46398032786887 24.234550819672133 2.30304962432e-05 0.0 0.0 0.0
342 1 82.544 26.780398032786888 2.1038087342e-05 0.0 0.0 0.0
343 1 3.0339211803278694 26.813975081967218 4.88206631154e-05 0.0 0.0 0.0
344 1 6.372318032786886 25.922693770491808 4.56969315992e-05 0.0 0.0 0.0
345 1 7.92332524590164 25.855994098360657 9.77617850757e-05 0.0 0.0 0.0
346 1 10.437867540983607 25.973185573770493 8.17748607755e-07 0.0 0.0 0.0
347 1 13.099189508196723 26.017012459016396 7.13843136299e-05 0.0 0.0 0.0
348 1 16.024129180327872 26.243215737704922 6.23250360514e-05 0.0 0.0 0.0
349 1 18.5432662295082 26.627003934426234 9.2806194666e-05 0.0 0.0 0.0
350 1 21.19863016393443 26.848763934426234 4.83312469759e-05 0.0 0.0 0.0
351 1 24.236368524590166 26.52804 7.70000921912e-05 0.0 0.0 0.0
352 1 26.911020327868858 25.992220983606558 7.84830124195e-05 0.0 0.0 0.0
353 1 29.557346229508198 25.887955409836067 5.128696977e-05 0.0 0.0 0.0
354 1 32.196300327868855 25.921986885245904 2.46569412554e-05 0.0 0.0 0.0
355 1 34.80223278688525 25.920068196721314 4.40712149659e-05 0.0 0.0 0.0
356 1 37.03306163934427 25.16294360655738 1.32745132298e-05 0.0 0.0 0.0
357 1 40.4991724590164 26.137132459016396 7.20035138338e-05 0.0 0.0 0.0
358 1 43.08157573770492 26.231754098360657 9.30294174007e-07 0.0 0.0 0.0
359 1 45.97051475409837 26.230239344262298 8.01059513603e-06 0.0 0.0 0.0
360 1 49.640915409836076 26.146069508196724 3.37473439073e-05 0.0 0.0 0.0
361 1 51.163344262295084 26.172325245901643 6.19113169697e-05 0.0 0.0 0.0
362 1 53.49253114754099 26.174950819672137 5.41456096957e-05 0.0 0.0 0.0
363 1 56.08175081967214 26.212264262295083 9.16859796427e-05 0.0 0.0 0.0
364 1 58.80022950819673 26.285426885245904 8.97217512306e-05 0.0 0.0 0.0
365 1 61.50507540983607 26.291586885245902 4.93849106919e-05 0.0 0.0 0.0
366 1 64.18265573770492 26.09961704918033 9.02839321109e-05 0.0 0.0 0.0
367 1 66.75773770491804 25.61272459016394 6.86388913524e-05 0.0 0.0 0.0
368 1 69.32423606557377 26.661843278688526 2.15077782321e-05 0.0 0.0 0.0
369 1 72.15430163934427 26.08351016393443 7.50380019237e-05 0.0 0.0 0.0
370 1 74.75361967213115 26.1686393442623 5.11563201693e-05 0.0 0.0 0.0
371 1 77.36808524590165 26.5474793442623 8.78090091811e-05 0.0 0.0 0.0
372 1 80.00426229508197 26.58211672131148 8.71171570711e-05 0.0 0.0 0.0
373 1 0.7198666885245902 28.053144918032793 1.71831903704e-05 0.0 0.0 0.0
374 1 4.1763032786885255 28.9690662295082 8.6787598576e-05 0.0 0.0 0.0
375 1 6.669815737704918 28.74993180327869 2.84935991965e-05 0.0 0.0 0.0
376 1 9.261206557377049 28.439760655737707 6.04567050715e-05 0.0 0.0 0.0
377 1 11.750048524590165 28.322316721311477 2.69926243826e-06 0.0 0.0 0.0
378 1 14.484028196721313 28.056729836065575 4.85472465725e-07 0.0 0.0 0.0
379 1 17.07400524590164 28.817136393442624 7.04658928632e-06 0.0 0.0 0.0
380 1 19.683371147540985 29.012186229508202 7.39773616253e-06 0.0 0.0 0.0
381 1 21.965348196721315 28.182555409836066 3.05495948655e-05 0.0 0.0 0.0
382 1 25.653824918032786 28.480558032786888 6.23521525509e-05 0.0 0.0 0.0
383 1 28.34922885245902 28.261726557377052 2.59083707399e-05 0.0 0.0 0.0
384 1 30.996867540983608 28.24102491803279 8.83224430755e-05 0.0 0.0 0.0
385 1 33.612696393442626 28.273996065573773 1.61409562841e-05 0.0 0.0 0.0
386 1 36.21847737704918 28.056325901639347 6.30631199208e-05 0.0 0.0 0.0
387 1 38.80067868852459 28.06556590163935 6.41672812945e-05 0.0 0.0 0.0
388 1 41.48078360655738 28.489444590163938 9.36403966978e-05 0.0 0.0 0.0
389 1 44.21855016393443 28.322821639344266 3.45523310145e-05 0.0 0.0 0.0
390 1 46.91592327868853 28.675506885245905 5.64499974e-05 0.0 0.0 0.0
391 1 49.51766491803279 28.727513442622953 1.7387727306e-05 0.0 0.0 0.0
392 1 52.193881967213116 28.72039409836066 8.1828640563e-05 0.0 0.0 0.0
393 1 54.73462950819673 28.573462950819675 8.39426508627e-05 0.0 0.0 0.0
394 1 57.56822950819673 28.49737180327869 7.70976211463e-05 0.0 0.0 0.0
395 1 60.303875409836074 28.55972918032787 8.55696840622e-05 0.0 0.0 0.0
396 1 62.94560655737706 28.507672131147544 1.13872576909e-05 0.0 0.0 0.0
397 1 65.58885245901641 28.24410491803279 3.94329207469e-05 0.0 0.0 0.0
398 1 68.33106229508196 27.949737704918032 4.30751325977e-05 0.0 0.0 0.0
399 1 70.66984262295082 28.408203278688525 6.22674313867e-05 0.0 0.0 0.0
400 1 73.26865573770493 28.514438032786888 8.15929764604e-05 0.0 0.0 0.0
401 1 75.98561967213116 28.69221967213115 9.5985220245e-05 0.0 0.0 0.0
402 1 78.7364131147541 28.89004655737705 6.34719927706e-05 0.0 0.0 0.0
403 1 81.4089442622951 29.05141836065574 4.72718332038e-05 0.0 0.0 0.0
404 1 0.26695319344262297 31.027011147540986 3.1844969934e-05 0.0 0.0 0.0
405 1 2.648653573770492 31.105323934426234 3.88619305322e-05 0.0 0.0 0.0
406 1 5.159252459016394 31.208832131147545 1.89654222979e-05 0.0 0.0 0.0
407 1 7.835318032786886 30.9765193442623 2.92980554944e-05 0.0 0.0 0.0
408 1 11.005900327868853 30.826861639344262 9.45728686316e-05 0.0 0.0 0.0
409 1 14.272164590163936 29.922149508196725 2.06321981393e-05 0.0 0.0 0.0
410 1 15.37197704918033 32.109757377049185 9.69187750319e-05 0.0 0.0 0.0
411 1 18.353164590163935 31.273764590163935 6.88268638401e-05 0.0 0.0 0.0
412 1 21.298250491803284 31.043269508196726 6.3745894165e-05 0.0 0.0 0.0