ITEM: TIMESTEP
0
ITEM: NUMBER OF ATOMS
2232
ITEM: BOX BOUNDS xy xz yz pp pp pp
0.0 82.68810555352132 0
0.0 83.16 0
-10.0 10.0 0
ITEM: ATOMS id type x y z vx vy vz
1 1 1.3843438688524592 0.7399169836065574 3.72263015746e-05 0.0 0.0 0.0
2 1 4.052835672131147 0.8367956065573771 6.1686612274e-05 0.0 0.0 0.0
3 1 6.7544904918032795 1.034577049180328 9.29501445963e-05 0.0 0.0 0.0
4 1 9.125838032786886 0.8108276721311477 9.11267709552e-05 0.0 0.0 0.0
5 1 12.519291147540985 83.07820327868853 2.72954951259e-05 0.0 0.0 0.0
6 1 14.041921967213117 0.05878255737704918 8.46878292289e-05 0.0 0.0 0.0
7 1 16.500923278688525 0.5096895081967213 1.48916121329e-05 0.0 0.0 0.0
8 1 19.044346885245904 0.49860605245901646 7.95481506325e-05 0.0 0.0 0.0
9 1 21.700619672131147 0.4494245114754099 2.4769739511e-05 0.0 0.0 0.0
10 1 24.273631475409836 1.023029573770492 9.29361034775e-05 0.0 0.0 0.0
11 1 27.405739016393444 1.0565005901639346 4.95888798223e-05 0.0 0.0 0.0
12 1 30.212881311475414 0.8213703606557379 8.20120109502e-05 0.0 0.0 0.0
13 1 32.861681311475415 0.4859088786885246 9.58042206224e-05 0.0 0.0 0.0
14 1 35.57768590163935 0.6549443278688525 4.11973419441e-05 0.0 0.0 0.0
15 1 38.63597442622951 0.4382678426229509 9.36536206458e-05 0.0 0.0 0.0
16 1 41.44311672131148 0.4353923344262296 9.82562866684e-05 0.0 0.0 0.0
17 1 44.025620983606565 0.7066378360655738 9.40190286674e-05 0.0 0.0 0.0
18 1 46.58267737704919 0.9045909508196722 8.32260617851e-06 0.0 0.0 0.0
19 1 49.17396721311476 0.6831692459016394 4.95727644793e-05 0.0 0.0 0.0
20 1 51.85407213114754 0.4303774885245902 3.82240656098e-05 0.0 0.0 0.0
21 1 54.43117377049181 0.9043839344262296 4.78330676162e-05 0.0 0.0 0.0
22 1 57.31375081967214 0.7430424262295083 6.36406420127e-05 0.0 0.0 0.0
23 1 59.64344262295083 1.964545180327869 4.11775802725e-06 0.0 0.0 0.0
24 1 63.33085901639345 0.49177956065573775 2.19158310285e-05 0.0 0.0 0.0
25 1 64.8728786885246 0.3669713967213115 8.88447606901e-05 0.0 0.0 0.0
26 1 67.55348852459016 0.7733980983606559 2.7303960147e-05 0.0 0.0 0.0
27 1 70.79607213114754 1.1883397377049183 3.99537453643e-05 0.0 0.0 0.0
28 1 73.4888 1.063529049180328 3.61664410431e-05 0.0 0.0 0.0
29 1 76.1189180327869 0.9746180327868853 8.84840407158e-06 0.0 0.0 0.0
30 1 78.86920655737705 0.957612393442623 1.01846685815e-05 0.0 0.0 0.0
31 1 81.38622295081969 0.8877014426229509 4.63917102225e-05 0.0 0.0 0.0
32 1 0.06736616393442624 3.088603803278689 1.9864405867e-05 0.0 0.0 0.0
33 1 2.5846451147540987 3.0758798688524593 4.82269934182e-05 0.0 0.0 0.0
34 1 5.217419016393443 3.1913495737704918 4.7373048555e-05 0.0 0.0 0.0
35 1 7.791945573770493 3.5230908196721313 8.35187738269e-05 0.0 0.0 0.0
36 1 11.10309704918033 3.0249386885245904 8.35999669938e-05 0.0 0.0 0.0
37 1 12.58765704918033 2.680246295081967 4.06096533564e-05 0.0 0.0 0.0
38 1 15.182632786885248 2.6856640655737705 3.64075821142e-05 0.0 0.0 0.0
39 1 17.789928524590167 2.857285704918033 2.02492234094e-05 0.0 0.0 0.0
40 1 20.38990295081967 2.7754839344262296 8.29981024225e-05 0.0 0.0 0.0
41 1 22.76019016393443 4.096167737704918 8.98566334494e-05 0.0 0.0 0.0
42 1 24.991372459016397 2.4007034754098364 8.60436442741e-05 0.0 0.0 0.0
43 1 28.968763278688527 3.0348451803278693 5.16747889337e-05 0.0 0.0 0.0
44 1 31.69022098360656 2.9152300983606563 7.82158150914e-05 0.0 0.0 0.0
45 1 34.302767868852456 2.777821704918033 5.04571237027e-05 0.0 0.0 0.0
46 1 36.41761704918033 1.9412381639344265 5.02111682213e-05 0.0 0.0 0.0
47 1 39.96976590163935 2.5804290491803283 5.58055857204e-05 0.0 0.0 0.0
48 1 42.564893114754106 2.9564970491803284 3.21340369621e-05 0.0 0.0 0.0
49 1 45.45307475409837 3.191541442622951 5.24545421746e-05 0.0 0.0 0.0
50 1 48.15176065573771 3.1040139016393447 5.12074260623e-05 0.0 0.0 0.0
51 1 50.66902950819673 2.8730391475409838 7.47142969767e-06 0.0 0.0 0.0
52 1 53.19311475409836 2.9854238032786884 5.45056015334e-05 0.0 0.0 0.0
53 1 55.338511475409845 2.1485777049180332 2.18738633637e-05 0.0 0.0 0.0
54 1 58.98704918032788 3.3618553442622954 2.75813238065e-05 0.0 0.0 0.0
55 1 61.29048524590164 3.7737977704918038 4.29375355671e-06 0.0 0.0 0.0
56 1 63.71106229508197 2.965444196721312 8.54085869414e-05 0.0 0.0 0.0
57 1 66.29472786885246 3.68154924590164 6.58630751557e-05 0.0 0.0 0.0
58 1 68.40780983606558 2.075940196721312 6.59822962873e-05 0.0 0.0 0.0
59 1 72.12956065573772 3.3750236065573778 2.59220672111e-05 0.0 0.0 0.0
60 1 74.57639344262296 3.318907016393443 3.29742039808e-05 0.0 0.0 0.0
61 1 77.26760655737706 3.1528344262295085 2.41656586033e-05 0.0 0.0 0.0
62 1 80.18098360655739 3.367404393442623 4.29308623302e-05 0.0 0.0 0.0
63 1 1.1432404590163934 5.472503606557377 7.69319088474e-05 0.0 0.0 0.0
64 1 3.6959192131147547 5.424990819672132 6.40912054812e-05 0.0 0.0 0.0
65 1 6.15429442622951 5.6935567213114755 8.22857973307e-05 0.0 0.0 0.0
66 1 8.28721967213115 5.0170826885245905 2.45288630125e-05 0.0 0.0 0.0
67 1 12.568520655737705 5.171471475409837 3.36318846873e-05 0.0 0.0 0.0
68 1 14.109782950819675 5.031149704918033 6.62773508057e-05 0.0 0.0 0.0
69 1 16.708141639344266 5.07584 7.74550358952e-05 0.0 0.0 0.0
70 1 19.17360590163935 6.226800655737706 5.14839517433e-05 0.0 0.0 0.0
71 1 22.162266229508198 5.523803278688525 5.45248204312e-05 0.0 0.0 0.0
72 1 24.816620327868854 5.227870819672131 2.14656755632e-05 0.0 0.0 0.0
73 1 27.61179606557377 5.041813573770492 6.1571538201e-05 0.0 0.0 0.0
74 1 30.413384262295082 5.187123934426229 7.63799037086e-05 0.0 0.0 0.0
75 1 33.23128131147541 5.144458360655738 2.13500783752e-05 0.0 0.0 0.0
76 1 35.933047213114754 4.849641770491804 3.29740444386e-05 0.0 0.0 0.0
77 1 38.51045180327869 4.786587606557378 1.50614017332e-05 0.0 0.0 0.0
78 1 41.05281508196721 5.055946229508198 3.87044652685e-05 0.0 0.0 0.0
79 1 43.201241311475414 4.364728590163935 7.09327234658e-05 0.0 0.0 0.0
80 1 46.86992524590165 5.381870819672131 3.08092095323e-05 0.0 0.0 0.0
81 1 49.37073377049181 5.391817704918033 8.87302455969e-05 0.0 0.0 0.0
82 1 51.823777049180336 5.347839344262296 8.72922720453e-05 0.0 0.0 0.0
83 1 55.44908852459017 4.838614360655738 5.74759152628e-05 0.0 0.0 0.0
84 1 56.968891803278694 5.1615750819672135 7.82771186255e-05 0.0 0.0 0.0
85 1 59.94437377049181 6.082091147540984 2.20905841715e-05 0.0 0.0 0.0
86 1 62.67699016393443 5.714207868852459 2.35034140003e-05 0.0 0.0 0.0
87 1 66.53355409836065 5.178843278688525 7.8681870177e-05 0.0 0.0 0.0
88 1 68.04982295081967 5.003959868852459 7.36497249971e-05 0.0 0.0 0.0
89 1 70.5476524590164 5.340164590163935 5.57644153504e-05 0.0 0.0 0.0
90 1 73.31510819672131 5.811354098360656 2.69599460063e-05 0.0 0.0 0.0
91 1 76.64302295081968 5.290430163934427 5.19738782943e-05 0.0 0.0 0.0
92 1 77.94975081967213 4.510836721311476 3.75422576376e-06 0.0 0.0 0.0
93 1 81.42358688524591 5.5567239344262305 3.46881090568e-05 0.0 0.0 0.0
94 1 82.54147540983607 7.988257704918033 4.80538974414e-05 0.0 0.0 0.0
95 1 2.524014557377049 7.803760655737706 7.31028572568e-05 0.0 0.0 0.0
96 1 4.851651344262296 9.118819672131147 9.36749904753e-05 0.0 0.0 0.0
97 1 7.506515409836066 7.973009180327869 2.77650316469e-06 0.0 0.0 0.0
98 1 10.018432131147541 8.115850491803279 1.12729319775e-05 0.0 0.0 0.0
99 1 12.699546885245903 7.854050491803279 1.8803673035e-05 0.0 0.0 0.0
100 1 15.439030163934428 7.526813114754099 6.58689775139e-06 0.0 0.0 0.0
101 1 18.226531147540985 7.46748524590164 9.06704674975e-05 0.0 0.0 0.0
102 1 20.915017704918036 7.731557377049181 9.90040817808e-05 0.0 0.0 0.0
103 1 23.998703606557378 7.6277967213114755 4.29634213672e-06 0.0 0.0 0.0
104 1 26.65639016393443 7.2649121311475415 4.03245552793e-05 0.0 0.0 0.0
105 1 29.217283934426234 7.267790163934427 9.26552918705e-05 0.0 0.0 0.0
106 1 31.955302950819675 7.29692393442623 2.80093063268e-05 0.0 0.0 0.0
107 1 34.79627475409836 7.247542950819673 3.7312942729e-05 0.0 0.0 0.0
108 1 37.32081442622951 7.213107540983607 2.53833578016e-05 0.0 0.0 0.0
109 1 39.97587540983607 7.291268852459017 2.72875708913e-05 0.0 0.0 0.0
110 1 42.58493836065574 7.244059016393443 8.46340191177e-06 0.0 0.0 0.0
111 1 45.33426754098361 7.444763934426231 1.96389724315e-05 0.0 0.0 0.0
112 1 47.91071278688525 7.795227540983607 5.07700668592e-05 0.0 0.0 0.0
113 1 50.34426622950821 7.817898360655738 4.84681726111e-05 0.0 0.0 0.0
114 1 52.70081967213115 7.757459672131148 7.93312500863e-05 0.0 0.0 0.0
115 1 55.211272131147545 7.482430819672132 9.43768476391e-05 0.0 0.0 0.0
116 1 57.5308655737705 6.670118688524591 1.98172442643e-05 0.0 0.0 0.0
117 1 61.12234754098361 8.080910163934428 5.77755721233e-05 0.0 0.0 0.0
118 1 63.70298360655739 7.96836393442623 5.16339984884e-05 0.0 0.0 0.0
119 1 66.27907540983607 7.649407213114755 6.00879652208e-05 0.0 0.0 0.0
120 1 68.94554754098361 7.592704918032787 9.46572132515e-05 0.0 0.0 0.0
121 1 71.69078688524591 7.7483206557377065 9.00923014401e-05 0.0 0.0 0.0
122 1 74.38452459016393 8.362553442622952 2.51297552849e-05 0.0 0.0 0.0
123 1 76.962131147541 7.905855081967214 3.11166612968e-05 0.0 0.0 0.0
124 1 79.81592786885247 7.710754754098361 4.21349122374e-05 0.0 0.0 0.0
125 1 1.2093140327868854 10.22105573770492 8.19420230584e-05 0.0 0.0 0.0
126 1 4.067170295081968 10.448470819672133 5.20637104695e-07 0.0 0.0 0.0
127 1 6.634521967213115 10.586919344262297 1.56194137156e-05 0.0 0.0 0.0
128 1 9.111599344262297 10.432919344262297 2.84253837172e-06 0.0 0.0 0.0
129 1 11.783019672131148 10.165363278688526 4.9062186491e-05 0.0 0.0 0.0
130 1 13.79617836065574 11.152023606557378 9.06796754843e-05 0.0 0.0 0.0
131 1 17.05360655737705 9.787230163934428 8.92173530904e-05 0.0 0.0 0.0
132 1 19.73169180327869 9.79515737704918 7.57541797874e-05 0.0 0.0 0.0
133 1 21.828969836065575 8.960073442622951 8.22772315933e-05 0.0 0.0 0.0
134 1 25.603181639344264 9.67892524590164 3.04670004549e-05 0.0 0.0 0.0
135 1 28.151856393442625 9.633886557377052 5.81505211924e-05 0.0 0.0 0.0
136 1 30.654331147540987 9.50149704918033 1.29901795014e-05 0.0 0.0 0.0
137 1 33.44854754098361 9.372339016393443 7.4289175403e-06 0.0 0.0 0.0
138 1 36.14137639344263 9.671300983606558 9.72371857386e-06 0.0 0.0 0.0
139 1 38.74751081967214 9.562036721311475 5.70313891023e-05 0.0 0.0 0.0
140 1 41.41686098360656 9.652063606557377 8.090331976e-06 0.0 0.0 0.0
141 1 43.999264262295085 9.566177049180329 4.08731116779e-05 0.0 0.0 0.0
142 1 46.61958688524591 9.989045901639345 2.72112052591e-05 0.0 0.0 0.0
143 1 49.063945573770496 10.2950262295082 5.95816813534e-05 0.0 0.0 0.0
144 1 51.54051803278689 10.30376131147541 7.23217778834e-05 0.0 0.0 0.0
145 1 53.91615737704918 9.976877377049181 3.07704929346e-05 0.0 0.0 0.0
146 1 56.63261639344263 9.53608393442623 2.74409799804e-05 0.0 0.0 0.0
147 1 59.73533770491804 10.283514098360657 5.32245418704e-05 0.0 0.0 0.0
148 1 62.65325901639345 10.35268786885246 1.15777180041e-05 0.0 0.0 0.0
149 1 65.4575737704918 10.059986885245902 1.18432952646e-05 0.0 0.0 0.0
150 1 67.86704262295083 11.069469508196724 2.8003276326e-05 0.0 0.0 0.0
151 1 70.55017704918033 9.873571147540984 2.66372394332e-06 0.0 0.0 0.0
152 1 72.77131147540985 11.439271475409837 1.30985505901e-05 0.0 0.0 0.0
153 1 76.7541049180328 10.185509508196722 9.16118721557e-05 0.0 0.0 0.0
154 1 78.3057180327869 9.958750819672133 3.33915517941e-05 0.0 0.0 0.0
155 1 81.06408524590165 10.133553442622953 1.15670369764e-05 0.0 0.0 0.0
156 1 82.46018360655738 12.38402360655738 6.9579074606e-05 0.0 0.0 0.0
157 1 2.5263927213114754 12.488895081967215 9.87693007177e-05 0.0 0.0 0.0
158 1 5.316180983606558 12.892324590163936 9.28863072067e-05 0.0 0.0 0.0
159 1 7.986692459016394 12.971344262295084 3.57488160537e-05 0.0 0.0 0.0
160 1 10.431657049180329 12.633251147540983 5.12939375522e-06 0.0 0.0 0.0
161 1 13.12085049180328 12.511414426229509 8.11774978728e-06 0.0 0.0 0.0
162 1 15.161779672131148 11.806195409836066 1.17973453748e-05 0.0 0.0 0.0
163 1 18.691964590163934 12.006294426229509 5.8315091083e-05 0.0 0.0 0.0
164 1 21.40468721311476 11.837853770491805 9.40196392217e-05 0.0 0.0 0.0
165 1 24.145483278688527 11.81992918032787 8.25434097113e-06 0.0 0.0 0.0
166 1 26.89708459016394 12.031742295081969 4.43263713392e-05 0.0 0.0 0.0
167 1 29.630306885245904 11.983421639344263 7.91557721218e-05 0.0 0.0 0.0
168 1 32.328386885245905 11.54883868852459 9.88436493084e-05 0.0 0.0 0.0
169 1 34.38532196721312 12.970637377049183 2.39892604625e-05 0.0 0.0 0.0
170 1 38.15589836065574 11.853960655737707 8.16983659602e-05 0.0 0.0 0.0
171 1 39.70609770491804 11.87456131147541 3.03358689956e-05 0.0 0.0 0.0
172 1 43.39033311475411 11.860928524590165 4.98619931193e-05 0.0 0.0 0.0
173 1 44.94134032786886 12.04976786885246 1.45662757935e-05 0.0 0.0 0.0
174 1 47.7039993442623 12.631887868852461 6.00462298123e-05 0.0 0.0 0.0
175 1 50.43161704918033 12.759076721311477 1.26006428958e-05 0.0 0.0 0.0
176 1 53.25118032786886 12.571196721311477 8.90272609078e-05 0.0 0.0 0.0
177 1 55.81919344262296 11.843660327868854 3.37498332541e-05 0.0 0.0 0.0
178 1 58.605331147540994 12.997297049180329 7.03159802927e-05 0.0 0.0 0.0
179 1 61.4500393442623 12.379125901639345 5.46703656266e-05 0.0 0.0 0.0
180 1 64.37149508196723 12.374632131147541 9.34069610491e-05 0.0 0.0 0.0
181 1 67.23185573770492 12.47940262295082 4.14241189356e-05 0.0 0.0 0.0
182 1 69.9165049180328 12.346811147540985 9.13961762279e-05 0.0 0.0 0.0
183 1 71.79227540983608 13.816375081967216 3.9217320412e-05 0.0 0.0 0.0
184 1 74.52691147540985 13.18285442622951 6.21873133381e-05 0.0 0.0 0.0
185 1 76.95960655737706 12.640925901639346 6.60798933403e-05 0.0 0.0 0.0
186 1 79.71746885245902 12.3463062295082 4.11105878508e-05 0.0 0.0 0.0
187 1 1.1555756065573772 14.694881967213117 3.2899843814e-05 0.0 0.0 0.0
188 1 3.7980590819672133 14.857415081967215 8.42125063144e-05 0.0 0.0 0.0
189 1 6.549998688524591 15.263924590163935 6.65412333822e-05 0.0 0.0 0.0
190 1 9.665746885245902 15.269731147540986 5.59189349648e-05 0.0 0.0 0.0
191 1 12.223661639344263 14.76365180327869 5.82827468396e-06 0.0 0.0 0.0
192 1 14.770064262295085 14.660951475409838 9.65348966658e-05 0.0 0.0 0.0
193 1 17.239062950819672 14.185975081967214 9.11903226298e-05 0.0 0.0 0.0
194 1 20.009295737704917 14.153306885245902 2.76365281952e-06 0.0 0.0 0.0
195 1 22.71393967213115 14.055958688524592 7.81082261115e-05 0.0 0.0 0.0
196 1 25.37500918032787 14.146692459016396 7.8920414677e-05 0.0 0.0 0.0
197 1 28.091013770491806 14.259238688524592 1.34378324293e-05 0.0 0.0 0.0
198 1 31.718243934426233 13.885599344262296 1.23962971272e-05 0.0 0.0 0.0
199 1 33.25304327868853 14.009657704918034 4.92993329986e-05 0.0 0.0 0.0
200 1 35.54077639344263 14.870542950819674 5.38326090644e-05 0.0 0.0 0.0
201 1 37.864964590163936 14.663880000000002 9.3787945849e-05 0.0 0.0 0.0
202 1 40.46352524590164 14.505133770491804 7.11802981935e-05 0.0 0.0 0.0
203 1 42.99250819672131 14.37521836065574 5.46032647123e-05 0.0 0.0 0.0
204 1 45.88068983606558 14.546284590163935 3.28097513624e-05 0.0 0.0 0.0
205 1 49.31352655737705 15.042265573770493 6.35055120271e-06 0.0 0.0 0.0
206 1 52.21559344262295 14.845499016393445 8.40533692467e-05 0.0 0.0 0.0
207 1 55.00476065573771 14.551333770491803 4.9120189033e-05 0.0 0.0 0.0
208 1 57.80301639344263 14.384205901639346 3.24385911489e-05 0.0 0.0 0.0
209 1 60.24278032786886 14.701546885245904 6.36119652841e-05 0.0 0.0 0.0
210 1 62.91985573770493 14.42252918032787 8.05360645231e-05 0.0 0.0 0.0
211 1 65.61056393442624 14.613135737704921 9.74095867436e-06 0.0 0.0 0.0
212 1 68.38205901639344 14.722702950819674 7.43099720585e-05 0.0 0.0 0.0
213 1 71.05055081967214 15.15132786885246 5.22945731251e-05 0.0 0.0 0.0
214 1 73.60846557377049 15.548900327868854 6.63634338284e-05 0.0 0.0 0.0
215 1 76.1956655737705 15.270185573770492 9.71590012134e-05 0.0 0.0 0.0
216 1 78.65663606557378 14.74401049180328 4.39440614906e-05 0.0 0.0 0.0
217 1 81.21000655737706 14.647520655737706 7.02588731676e-05 0.0 0.0 0.0
218 1 82.5944918032787 17.01664655737705 9.10160073988e-05 0.0 0.0 0.0
219 1 2.5614390819672135 17.095413770491803 4.93336163138e-05 0.0 0.0 0.0
220 1 5.177681967213116 17.227045901639343 4.46655383022e-05 0.0 0.0 0.0
221 1 7.3707934426229516 16.582164590163934 9.48380599487e-06 0.0 0.0 0.0
222 1 12.0082131147541 17.052748196721314 3.4509087505e-06 0.0 0.0 0.0
223 1 13.546950819672132 17.081124590163938 7.81344754122e-05 0.0 0.0 0.0
224 1 15.907240655737706 16.822808524590165 3.32218872071e-05 0.0 0.0 0.0
225 1 18.63480786885246 16.36373704918033 2.12999343739e-05 0.0 0.0 0.0
226 1 21.355962622950823 16.356264262295085 4.29795636095e-08 0.0 0.0 0.0
227 1 23.803855737704918 16.3893868852459 8.83928683187e-06 0.0 0.0 0.0
228 1 26.43533704918033 16.440080655737706 5.30904402383e-05 0.0 0.0 0.0
229 1 28.915443934426232 16.679512786885248 9.08590522131e-05 0.0 0.0 0.0
230 1 31.39176393442623 16.575449180327873 9.47445724148e-05 0.0 0.0 0.0
231 1 33.971137704918036 16.815234754098363 4.4880099332e-05 0.0 0.0 0.0
232 1 36.547431475409844 17.26183475409836 5.24004565553e-05 0.0 0.0 0.0
233 1 39.16189704918033 16.949997377049183 6.79302534983e-05 0.0 0.0 0.0
234 1 41.83028786885246 16.83341180327869 2.64982336476e-05 0.0 0.0 0.0
235 1 44.418851147540984 16.52844131147541 2.07637060584e-06 0.0 0.0 0.0
236 1 46.75344065573771 15.830998032786887 4.74012315438e-05 0.0 0.0 0.0
237 1 51.04468852459017 17.029370491803277 6.26651241141e-05 0.0 0.0 0.0
238 1 53.920701639344266 16.95772262295082 1.34389221781e-05 0.0 0.0 0.0
239 1 56.42761967213115 16.792008524590166 3.67950711662e-05 0.0 0.0 0.0
240 1 59.10671475409836 16.98746229508197 4.31869250364e-05 0.0 0.0 0.0
241 1 61.79590819672132 16.798420983606558 1.82301657639e-05 0.0 0.0 0.0
242 1 64.27909508196721 17.746202622950822 5.85505702483e-05 0.0 0.0 0.0
243 1 67.04352131147542 16.899101639344263 8.54929391137e-05 0.0 0.0 0.0
244 1 69.62971147540983 17.20068918032787 3.6463480193e-05 0.0 0.0 0.0
245 1 72.29668852459017 17.659912131147543 4.99141234606e-06 0.0 0.0 0.0
246 1 75.00456393442624 17.718230163934425 5.5159364852e-05 0.0 0.0 0.0
247 1 77.56803278688525 17.40513049180328 5.76548855334e-05 0.0 0.0 0.0
248 1 80.0375868852459 17.107430819672132 4.96438288927e-05 0.0 0.0 0.0
249 1 1.307621573770492 19.361839344262297 7.72737027718e-05 0.0 0.0 0.0
250 1 4.090512655737705 19.47867737704918 8.61362416582e-05 0.0 0.0 0.0
251 1 6.671330491803279 19.45762229508197 9.00272065349e-05 0.0 0.0 0.0
252 1 9.144520000000002 19.440354098360658 5.74617173348e-05 0.0 0.0 0.0
253 1 11.850173770491805 19.706849836065576 4.0512876785e-05 0.0 0.0 0.0
254 1 15.084476721311477 19.51573836065574 6.3453416462e-05 0.0 0.0 0.0
255 1 17.478899016393445 18.752504262295083 7.00965633953e-05 0.0 0.0 0.0
256 1 20.10972393442623 18.574268196721317 7.66776598508e-05 0.0 0.0 0.0
257 1 22.408868196721315 18.830817049180332 6.98995248847e-05 0.0 0.0 0.0
258 1 24.889025573770493 18.70680918032787 5.47755695851e-05 0.0 0.0 0.0
259 1 27.511367868852464 18.970426885245903 8.09391938378e-06 0.0 0.0 0.0
260 1 30.27725836065574 19.02369573770492 7.88328362346e-05 0.0 0.0 0.0
261 1 32.816137704918035 19.02339278688525 5.91752054407e-05 0.0 0.0 0.0
262 1 35.127652459016396 20.499520655737705 5.91270755354e-05 0.0 0.0 0.0
263 1 37.91570885245902 19.447927868852464 6.71372436188e-05 0.0 0.0 0.0
264 1 40.685436721311476 19.183249836065578 9.56305173098e-05 0.0 0.0 0.0
265 1 43.45157967213115 19.004104918032787 8.53800843595e-05 0.0 0.0 0.0
266 1 46.05887540983607 18.60284655737705 3.57912151192e-05 0.0 0.0 0.0
267 1 48.42870819672132 17.769782295081967 1.61433308437e-05 0.0 0.0 0.0
268 1 52.03028852459017 19.013900327868857 5.2116631012e-05 0.0 0.0 0.0
269 1 55.50462950819673 19.398647868852464 7.45547789019e-05 0.0 0.0 0.0
270 1 57.77878032786886 19.216271475409837 8.10471514995e-06 0.0 0.0 0.0
271 1 60.4144524590164 19.23465049180328 1.8169067638e-05 0.0 0.0 0.0
272 1 64.15791475409837 19.262622950819672 8.99112149269e-06 0.0 0.0 0.0
273 1 65.68226229508198 19.304581639344264 8.01663844094e-05 0.0 0.0 0.0
274 1 68.20129836065576 19.396426229508197 4.95382486218e-05 0.0 0.0 0.0
275 1 71.00005901639345 19.664133770491805 4.19404407797e-05 0.0 0.0 0.0
276 1 73.71298360655739 19.92699409836066 9.80567532531e-05 0.0 0.0 0.0
277 1 76.33148852459017 19.91810754098361 9.73021587462e-05 0.0 0.0 0.0
278 1 78.8525442622951 19.693520000000003 9.47903861742e-05 0.0 0.0 0.0
279 1 81.35188852459017 19.45792524590164 7.22114737498e-05 0.0 0.0 0.0
280 1 82.6828524590164 21.724754754098363 1.49620356584e-05 0.0 0.0 0.0
281 1 2.745471606557377 21.587669508196726 2.3433546964e-05 0.0 0.0 0.0
282 1 5.463263606557377 21.877997377049184 2.14675105249e-05 0.0 0.0 0.0
283 1 8.125443934426231 21.925358688524593 7.29816295375e-05 0.0 0.0 0.0
284 1 10.676239344262296 21.748435409836066 2.89018082751e-05 0.0 0.0 0.0
285 1 12.913531147540986 20.839027540983608 1.47648224507e-05 0.0 0.0 0.0
286 1 17.472991475409838 21.193227540983607 3.35830439362e-05 0.0 0.0 0.0
287 1 18.985170491803277 20.914512786885247 5.4973196826e-05 0.0 0.0 0.0
288 1 21.24811213114754 22.463550819672133 5.62877982241e-05 0.0 0.0 0.0
289 1 23.850964590163937 21.186865573770493 9.22643133613e-05 0.0 0.0 0.0
290 1 26.510923278688526 21.975699016393445 4.02920984264e-05 0.0 0.0 0.0
291 1 29.339676065573773 21.10648262295082 8.7418155502e-05 0.0 0.0 0.0
292 1 31.610696393442627 22.643402622950823 8.41733440359e-06 0.0 0.0 0.0
293 1 34.42980524590165 21.885520655737707 9.57482488718e-06 0.0 0.0 0.0
294 1 36.97832852459017 21.880521967213117 6.14539386943e-05 0.0 0.0 0.0
295 1 39.578757377049186 21.503701639344268 6.81744477326e-05 0.0 0.0 0.0
296 1 42.30491081967214 21.29557442622951 4.6989426505e-05 0.0 0.0 0.0
297 1 45.095239344262296 21.13496 4.41843864209e-05 0.0 0.0 0.0
298 1 47.59458360655738 20.635596065573772 4.63112749144e-06 0.0 0.0 0.0
299 1 50.160425573770496 20.987220983606562 6.18560267596e-05 0.0 0.0 0.0
300 1 52.62558688524591 21.62902229508197 1.68942380986e-05 0.0 0.0 0.0
301 1 54.48570491803279 20.561070163934428 7.76145844341e-05 0.0 0.0 0.0
302 1 58.67904918032788 21.507640000000002 7.4398034754e-05 0.0 0.0 0.0
303 1 61.109724590163935 21.830535081967213 2.00249758359e-05 0.0 0.0 0.0
304 1 63.64996721311476 21.688754098360658 3.22316943043e-05 0.0 0.0 0.0
305 1 66.54011803278689 21.709910163934428 3.41400968817e-05 0.0 0.0 0.0
306 1 69.73574426229509 21.640281967213117 3.10747057441e-06 0.0 0.0 0.0
307 1 72.49461639344263 22.024575081967214 2.05636161141e-05 0.0 0.0 0.0
308 1 75.05354098360657 22.26622885245902 1.01513562306e-05 0.0 0.0 0.0
309 1 77.62963278688527 22.217807213114757 4.45126341662e-05 0.0 0.0 0.0
310 1 80.14059016393443 22.003772459016393 7.80980136765e-06 0.0 0.0 0.0
311 1 1.6728792786885247 23.82026557377049 8.16667885698e-05 0.0 0.0 0.0
312 1 4.107609180327869 24.99970360655738 4.7052538275e-05 0.0 0.0 0.0
313 1 7.013816393442624 24.255302950819676 8.77503463404e-05 0.0 0.0 0.0
314 1 10.546879344262297 23.83859409836066 7.9981085887e-05 0.0 0.0 0.0
315 1 12.10253180327869 23.70458885245902 1.14292309813e-05 0.0 0.0 0.0
316 1 14.784656393442626 23.841017704918034 4.25438559008e-05 0.0 0.0 0.0
317 1 17.540751475409838 23.86823278688525 3.37008024516e-05 0.0 0.0 0.0
318 1 20.524211147540985 23.844905573770493 6.30441310999e-05 0.0 0.0 0.0
319 1 23.158772459016394 23.841825573770496 5.58650426884e-05 0.0 0.0 0.0
320 1 25.76975409836066 23.309339016393444 2.38897411941e-05 0.0 0.0 0.0
321 1 28.452282622950822 23.405929836065575 3.45782263646e-05 0.0 0.0 0.0
322 1 30.948092459016397 24.041318688524594 7.69890099091e-05 0.0 0.0 0.0
323 1 33.21593180327869 24.307460983606557 4.57351238976e-06 0.0 0.0 0.0
324 1 35.807979016393446 24.256110819672134 2.08253058578e-05 0.0 0.0 0.0
325 1 38.46102032786885 24.005116065573773 1.82666281697e-05 0.0 0.0 0.0
326 1 40.944863606557384 23.633748852459018 2.10611782279e-06 0.0 0.0 0.0
327 1 43.58240393442623 23.39886098360656 9.11538076733e-05 0.0 0.0 0.0
328 1 47.04482885245902 23.238044590163938 6.54388669292e-05 0.0 0.0 0.0
329 1 48.60346032786885 23.186088524590165 2.72941256659e-05 0.0 0.0 0.0
330 1 51.24615081967214 23.661519344262295 8.15149428982e-05 0.0 0.0 0.0
331 1 54.17770491803279 23.600878688524592 7.18840349256e-05 0.0 0.0 0.0
332 1 56.92445901639345 23.496562622950822 2.20916220988e-05 0.0 0.0 0.0
333 1 59.46520655737706 24.105847213114757 4.54556747043e-05 0.0 0.0 0.0
334 1 62.668406557377054 24.109078688524594 8.43577938681e-05 0.0 0.0 0.0
335 1 65.3348786885246 23.710395409836067 1.36960354153e-05 0.0 0.0 0.0
336 1 67.37727213114755 22.994876065573774 3.33567602788e-05 0.0 0.0 0.0
337 1 70.7864786885246 25.093365901639345 1.71938049448e-05 0.0 0.0 0.0
338 1 73.69480655737706 24.52649442622951 9.93150851487e-05 0.0 0.0 0.0
339 1 76.36935737704918 24.63277967213115 4.6317193988e-05 0.0 0.0 0.0
340 1 78.96312131147542 24.543712131147544 2.84776636945e-05 0.0 0.0 0.0
341 1 81.5897049180328 24.250607213114755 6.50476598117e-05 0.0 0.0 0.0
342 1 0.46775657049180336 26.20746754098361 6.07223131112e-05 0.0 0.0 0.0
343 1 3.2787761311475414 26.298150819672134 6.37685230339e-05 0.0 0.0 0.0
344 1 5.629230163934427 26.529807213114758 2.8256870545e-05 0.0 0.0 0.0
345 1 8.360028852459019 26.6412931147541 1.38883883329e-06 0.0 0.0 0.0
346 1 10.72698360655738 26.540612459016394 8.26803714174e-05 0.0 0.0 0.0
347 1 13.36765442622951 26.154754098360655 9.5295754235e-05 0.0 0.0 0.0
348 1 16.22311737704918 26.106736393442628 8.41572980033e-05 0.0 0.0 0.0
349 1 19.088880655737707 25.9575331147541 1.48934840652e-05 0.0 0.0 0.0
350 1 21.958430819672135 26.20166098360656 2.40433936587e-05 0.0 0.0 0.0
351 1 25.477305573770494 25.619389508196722 3.43259402536e-05 0.0 0.0 0.0
352 1 27.012407868852463 25.558092459016393 4.13183460844e-05 0.0 0.0 0.0
353 1 28.96482491803279 27.195390163934427 4.86927725501e-05 0.0 0.0 0.0
354 1 31.820338360655743 26.730007213114757 8.16916130916e-05 0.0 0.0 0.0
355 1 34.532909508196724 26.628821639344267 4.48551011091e-06 0.0 0.0 0.0
356 1 37.31551278688525 26.41039409836066 6.05706449991e-05 0.0 0.0 0.0
357 1 39.996223606557386 26.218828196721315 8.84933461938e-05 0.0 0.0 0.0
358 1 42.374337049180326 25.804189508196725 2.11001473604e-05 0.0 0.0 0.0
359 1 44.78759278688525 27.022152786885247 3.589443112e-05 0.0 0.0 0.0
360 1 47.268406557377055 27.055073442622955 6.03095552064e-05 0.0 0.0 0.0
361 1 49.91291475409837 25.789698360655738 1.61768689504e-05 0.0 0.0 0.0
362 1 52.660426229508204 25.716636721311477 4.87528097286e-05 0.0 0.0 0.0
363 1 55.509678688524595 25.875685901639347 9.96401194932e-05 0.0 0.0 0.0
364 1 58.33469508196722 26.18661442622951 6.28632788792e-05 0.0 0.0 0.0
365 1 60.35133770491804 25.368798688524592 1.25846085877e-05 0.0 0.0 0.0
366 1 64.27758032786886 26.10729180327869 7.41965998373e-05 0.0 0.0 0.0
367 1 66.96626885245901 25.888359344262298 5.32738286159e-05 0.0 0.0 0.0
368 1 69.7463475409836 26.223271475409838 7.21678516891e-05 0.0 0.0 0.0
369 1 72.39918688524591 26.74369049180328 6.19161884974e-05 0.0 0.0 0.0
370 1 75.03990819672131 26.903749508196725 1.94734758928e-05 0.0 0.0 0.0
371 1 77.68012459016394 26.993523934426232 6.60455946963e-05 0.0 0.0 0.0
372 1 80.388 26.75479868852459 1.29788040452e-05 0.0 0.0 0.0
373 1 1.5898909508196724 28.387754098360656 9.45260042508e-06 0.0 0.0 0.0
374 1 4.156232786885247 28.89312655737705 9.78453131365e-06 0.0 0.0 0.0
375 1 6.774081311475411 28.747356721311476 2.1311069822e-05 0.0 0.0 0.0
376 1 9.493216393442625 29.10145573770492 1.45387543801e-05 0.0 0.0 0.0
377 1 12.199577049180329 28.75200196721312 6.08074669028e-05 0.0 0.0 0.0
378 1 14.887154754098363 28.294748196721315 6.59905689629e-05 0.0 0.0 0.0
379 1 17.641280655737706 28.198510819672137 6.67447330351e-05 0.0 0.0 0.0
380 1 20.346782950819673 28.252991475409836 2.95263597805e-06 0.0 0.0 0.0
381 1 23.077884590163936 28.421684590163938 2.64729539091e-05 0.0 0.0 0.0
382 1 26.188331147540985 28.022496393442626 2.35060372718e-05 0.0 0.0 0.0
383 1 27.75438491803279 28.155188852459016 5.5952235325e-05 0.0 0.0 0.0
384 1 30.242721967213114 29.01556918032787 5.9033221363e-05 0.0 0.0 0.0
385 1 33.456525245901645 28.935085245901643 9.14730102726e-05 0.0 0.0 0.0
386 1 36.19737180327869 28.676920655737707 6.74389476992e-05 0.0 0.0 0.0
387 1 38.88015278688525 28.583258360655737 4.63136062876e-05 0.0 0.0 0.0
388 1 41.553693770491805 28.488586229508197 1.60799393363e-05 0.0 0.0 0.0
389 1 44.083939016393444 28.417594754098364 3.04530947959e-05 0.0 0.0 0.0
390 1 46.70143409836066 28.48505180327869 2.01483492602e-05 0.0 0.0 0.0
391 1 49.093331803278694 28.39325770491804 1.66904010061e-05 0.0 0.0 0.0
392 1 51.528400000000005 28.009520000000002 1.68590641821e-05 0.0 0.0 0.0
393 1 54.17972459016394 27.902325901639347 9.43458796316e-05 0.0 0.0 0.0
394 1 56.31704262295083 27.223968524590166 6.93814059416e-05 0.0 0.0 0.0
395 1 60.0908 28.301059672131153 6.96494327231e-05 0.0 0.0 0.0
396 1 62.73051147540984 28.126862950819678 9.40826638305e-05 0.0 0.0 0.0
397 1 65.4732262295082 28.240368524590167 7.55950451387e-05 0.0 0.0 0.0
398 1 67.9725704918033 28.21441573770492 2.15794968632e-05 0.0 0.0 0.0
399 1 70.61228196721312 28.653593442622956 6.30862174254e-05 0.0 0.0 0.0
400 1 73.21866885245902 29.072019016393444 3.16945262191e-05 0.0 0.0 0.0
401 1 75.93361311475411 29.28357967213115 9.15344025958e-06 0.0 0.0 0.0
402 1 79.05097704918035 29.2093062295082 5.82047686306e-05 0.0 0.0 0.0
403 1 0.050276809180327876 28.395580327868856 1.9876589389e-05 0.0 0.0 0.0
404 1 0.0245509324590164 31.043875409836065 1.07676495226e-05 0.0 0.0 0.0
405 1 2.7195390163934428 30.98570885245902 2.45823602863e-05 0.0 0.0 0.0
406 1 6.321927213114755 30.90138754098361 7.95737249093e-05 0.0 0.0 0.0
407 1 7.844103606557377 31.067606557377054 2.21424512817e-05 0.0 0.0 0.0
408 1 10.049131147540985 30.53946229508197 3.63254883617e-05 0.0 0.0 0.0
409 1 13.523068196721312 30.758243278688525 3.21957059831e-05 0.0 0.0 0.0
410 1 16.164243934426228 30.47665049180328 6.87089446718e-05 0.0 0.0 0.0
411 1 18.809408524590168 30.50719803278689 1.5741111507e-06 0.0 0.0 0.0
412 1 22.2676931147541 30.451253114754103 9.68263908877e-05 0.0 0.0 0.0