ITEM: TIMESTEP
0
ITEM: NUMBER OF ATOMS
2232
ITEM: BOX BOUNDS xy xz yz pp pp pp
0.0 82.68810555352132 0
0.0 83.16 0
-10.0 10.0 0
ITEM: ATOMS id type x y z vx vy vz
1 1 1.3447380983606558 0.5653163278688526 4.57812183915e-05 0.0 0.0 0.0
2 1 4.017334885245902 0.3892534295081968 1.40160263111e-05 0.0 0.0 0.0
3 1 6.634471475409836 0.7098491147540984 7.45278858064e-05 0.0 0.0 0.0
4 1 9.207937704918033 1.0241302950819673 8.20981477328e-05 0.0 0.0 0.0
5 1 11.850224262295082 1.046745573770492 8.65806394454e-05 0.0 0.0 0.0
6 1 14.458832786885248 0.9529822950819673 7.49741764706e-06 0.0 0.0 0.0
7 1 17.02825967213115 0.8409308852459018 4.93633038844e-05 0.0 0.0 0.0
8 1 19.605815737704923 0.7406743606557378 9.10811310387e-05 0.0 0.0 0.0
9 1 22.159489180327874 0.6016148852459018 7.06537341482e-05 0.0 0.0 0.0
10 1 24.88574360655738 0.6766507540983607 3.90140584714e-05 0.0 0.0 0.0
11 1 27.57301836065574 1.0873763278688526 8.11777085747e-05 0.0 0.0 0.0
12 1 30.204752131147544 0.7955993442622952 2.47431012944e-05 0.0 0.0 0.0
13 1 32.85991409836066 0.7203817049180329 1.75976522694e-05 0.0 0.0 0.0
14 1 35.412628196721315 0.8208351475409837 6.37297080257e-05 0.0 0.0 0.0
15 1 38.08687606557377 1.1755097704918034 6.38016418689e-05 0.0 0.0 0.0
16 1 41.21398491803279 1.2667434098360657 1.24208785253e-05 0.0 0.0 0.0
17 1 44.02011737704918 1.246248786885246 4.04652419001e-05 0.0 0.0 0.0
18 1 46.540112786885246 1.2833400655737706 9.87173894091e-05 0.0 0.0 0.0
19 1 49.1876 1.033345049180328 4.87860900407e-05 0.0 0.0 0.0
20 1 51.97626229508197 0.7835065573770492 9.15445554724e-05 0.0 0.0 0.0
21 1 54.7164524590164 0.6764639344262295 1.9656976816e-05 0.0 0.0 0.0
22 1 57.36272786885247 0.6398119344262296 2.70754368758e-05 0.0 0.0 0.0
23 1 59.955986885245906 0.5999587540983606 4.2195859954e-05 0.0 0.0 0.0
24 1 62.674970491803286 0.7801236065573771 6.55014092442e-05 0.0 0.0 0.0
25 1 65.73022950819673 0.7410782950819672 8.98254749474e-05 0.0 0.0 0.0
26 1 68.40528524590165 0.5463011147540985 9.89018744718e-05 0.0 0.0 0.0
27 1 70.91826229508197 0.5148548196721312 4.37431925705e-05 0.0 0.0 0.0
28 1 73.38680655737706 0.44069043934426233 5.90715233862e-05 0.0 0.0 0.0
29 1 75.9684524590164 0.4073512065573771 8.27589562429e-05 0.0 0.0 0.0
30 1 78.65764590163934 0.4708769639344263 1.22867987514e-05 0.0 0.0 0.0
31 1 81.36451147540984 0.5182680655737706 8.45535466466e-06 0.0 0.0 0.0
32 1 82.49754754098362 2.8777954754098363 4.76251355955e-05 0.0 0.0 0.0
33 1 3.5277512131147546 2.5684624918032792 3.5123657369e-05 0.0 0.0 0.0
34 1 5.058369836065574 2.8392096393442623 1.08376873247e-05 0.0 0.0 0.0
35 1 7.747007868852459 3.224608524590164 2.58014736658e-05 0.0 0.0 0.0
36 1 10.461699672131148 3.359376196721312 9.77662759029e-05 0.0 0.0 0.0
37 1 13.150186229508199 3.3526405901639347 7.45712913554e-05 0.0 0.0 0.0
38 1 15.783586229508197 3.2821944262295086 7.46540479824e-05 0.0 0.0 0.0
39 1 18.361495737704917 3.1656997377049185 6.79272816013e-05 0.0 0.0 0.0
40 1 21.00999278688525 3.0521487213114757 6.47116166757e-05 0.0 0.0 0.0
41 1 23.656722622950824 2.8353217704918037 5.18365626886e-05 0.0 0.0 0.0
42 1 25.739459016393443 4.231107081967213 6.3483705757e-05 0.0 0.0 0.0
43 1 29.192240000000005 3.278094491803279 4.36158668705e-05 0.0 0.0 0.0
44 1 31.794284590163937 3.067881967213115 8.74529682327e-05 0.0 0.0 0.0
45 1 34.20940852459017 3.172172786885246 1.81926796068e-05 0.0 0.0 0.0
46 1 36.67658950819673 3.247213704918033 2.21501480565e-05 0.0 0.0 0.0
47 1 38.80497049180328 2.5427066229508197 2.45660784952e-05 0.0 0.0 0.0
48 1 42.471735737704925 3.3865609836065578 9.37780959564e-05 0.0 0.0 0.0
49 1 45.19743475409836 3.7185496393442627 6.98071362847e-06 0.0 0.0 0.0
50 1 48.23931344262296 3.444752786885246 2.85371855593e-05 0.0 0.0 0.0
51 1 50.85837377049181 3.0401316721311478 3.76967923643e-05 0.0 0.0 0.0
52 1 53.555140983606556 2.925515278688525 8.59659785773e-05 0.0 0.0 0.0
53 1 56.14032131147541 2.953881573770492 5.27133421219e-05 0.0 0.0 0.0
54 1 58.6628918032787 2.9615664262295085 8.98943571418e-05 0.0 0.0 0.0
55 1 61.206163934426236 2.8980881311475413 7.6857761737e-05 0.0 0.0 0.0
56 1 63.39801311475411 2.138403606557377 1.40673564069e-05 0.0 0.0 0.0
57 1 66.99151475409836 2.9065606557377053 9.86479922849e-05 0.0 0.0 0.0
58 1 70.4744393442623 2.714913967213115 6.60630198649e-05 0.0 0.0 0.0
59 1 72.0028262295082 2.8705196065573775 8.72663133636e-05 0.0 0.0 0.0
60 1 74.55316721311476 2.83708393442623 8.20608825477e-05 0.0 0.0 0.0
61 1 77.1736918032787 2.7507328524590164 8.29742840653e-05 0.0 0.0 0.0
62 1 79.9719475409836 2.794524393442623 9.87141237634e-05 0.0 0.0 0.0
63 1 1.16447731147541 5.435291147540984 1.87524510238e-05 0.0 0.0 0.0
64 1 3.698408459016394 6.232304262295083 6.15697775828e-05 0.0 0.0 0.0
65 1 6.530609836065574 5.326986229508197 7.56981233346e-05 0.0 0.0 0.0
66 1 9.13992524590164 5.573840655737706 2.46445465931e-05 0.0 0.0 0.0
67 1 11.838560655737707 5.654375081967214 1.57567763791e-05 0.0 0.0 0.0
68 1 14.530985573770494 5.6592222950819675 1.25621656086e-05 0.0 0.0 0.0
69 1 17.162365901639347 5.608730491803279 2.71409105206e-05 0.0 0.0 0.0
70 1 19.694226885245904 5.428373770491803 1.69597565622e-05 0.0 0.0 0.0
71 1 22.391902950819674 5.255994754098361 1.68677860524e-05 0.0 0.0 0.0
72 1 24.99081704918033 5.547130491803279 7.65258250859e-05 0.0 0.0 0.0
73 1 27.050478688524592 4.9921498360655745 9.31112553449e-05 0.0 0.0 0.0
74 1 30.680536393442626 5.489317377049181 4.99756510039e-05 0.0 0.0 0.0
75 1 33.05516590163934 5.612315409836066 3.22172516996e-05 0.0 0.0 0.0
76 1 35.56637573770492 5.653011803278689 2.60351454581e-06 0.0 0.0 0.0
77 1 38.15044524590164 5.450337704918033 3.21705053304e-05 0.0 0.0 0.0
78 1 40.71007672131148 5.409388852459017 6.35177491782e-05 0.0 0.0 0.0
79 1 43.35529180327869 5.6905272131147555 3.38023243514e-05 0.0 0.0 0.0
80 1 46.05837049180328 5.012255672131148 5.37196352791e-05 0.0 0.0 0.0
81 1 49.83344065573771 5.503152131147542 2.39060193988e-05 0.0 0.0 0.0
82 1 52.38524590163935 5.200302295081968 2.6943269308e-05 0.0 0.0 0.0
83 1 54.954268852459016 5.275080655737705 9.89470240816e-05 0.0 0.0 0.0
84 1 57.414734426229515 5.354504262295082 7.07694141148e-05 0.0 0.0 0.0
85 1 59.98981639344263 5.302699672131149 5.96457257621e-05 0.0 0.0 0.0
86 1 62.61791475409837 5.0157951475409845 2.0188963271e-06 0.0 0.0 0.0
87 1 65.22935081967213 4.977653639344263 4.8400380646e-05 0.0 0.0 0.0
88 1 67.74535737704919 5.436351475409837 1.99380121709e-05 0.0 0.0 0.0
89 1 70.22601967213116 5.365713442622951 3.52312753791e-05 0.0 0.0 0.0
90 1 73.00256393442623 5.270031475409836 6.92284755738e-05 0.0 0.0 0.0
91 1 75.93159344262295 5.180055081967214 7.92216421243e-05 0.0 0.0 0.0
92 1 78.58847213114754 4.952958098360656 8.75389031796e-05 0.0 0.0 0.0
93 1 81.20798688524592 5.2880570491803285 7.84639780252e-07 0.0 0.0 0.0
94 1 81.86841967213115 6.694960655737705 1.45134027815e-05 0.0 0.0 0.0
95 1 2.882243803278689 7.528731803278689 6.78399570646e-05 0.0 0.0 0.0
96 1 5.373741639344263 7.641025573770492 7.58599173769e-05 0.0 0.0 0.0
97 1 7.890101639344263 7.825977049180328 6.14449631798e-05 0.0 0.0 0.0
98 1 10.552635409836066 7.908430163934427 1.31583616711e-05 0.0 0.0 0.0
99 1 13.259955409836067 7.953519344262296 5.37205218041e-06 0.0 0.0 0.0
100 1 15.965356721311478 7.982047213114755 6.75239801801e-06 0.0 0.0 0.0
101 1 18.622386885245902 7.936655081967214 3.60624681414e-05 0.0 0.0 0.0
102 1 21.21014229508197 7.583212459016394 7.99345155676e-05 0.0 0.0 0.0
103 1 23.872019672131152 7.69232524590164 2.96161267459e-05 0.0 0.0 0.0
104 1 26.422007213114757 7.827996721311477 5.1891943417e-05 0.0 0.0 0.0
105 1 29.09691147540984 7.556451803278689 1.42169754389e-05 0.0 0.0 0.0
106 1 31.647959344262297 8.05611868852459 4.35385036557e-05 0.0 0.0 0.0
107 1 34.25858754098361 8.067580327868853 6.42187597453e-05 0.0 0.0 0.0
108 1 36.91667803278689 7.938270819672132 8.78412527388e-06 0.0 0.0 0.0
109 1 39.513824918032796 7.839357377049181 5.80876727186e-05 0.0 0.0 0.0
110 1 42.091229508196726 7.824664262295083 2.54598895148e-05 0.0 0.0 0.0
111 1 44.38396131147542 6.811293770491804 5.9687060743e-06 0.0 0.0 0.0
112 1 48.21785442622951 7.616587540983607 8.13102664652e-05 0.0 0.0 0.0
113 1 51.907593442622954 7.51752262295082 5.17612736451e-06 0.0 0.0 0.0
114 1 53.43699016393443 7.558976393442624 7.43450483699e-05 0.0 0.0 0.0
115 1 55.98430163934427 7.74625049180328 4.90745343199e-05 0.0 0.0 0.0
116 1 58.57958032786886 7.684044590163936 9.71248010665e-05 0.0 0.0 0.0
117 1 61.210203278688525 7.469757377049182 2.66048725174e-05 0.0 0.0 0.0
118 1 63.86304262295083 7.352515409836066 9.14464502594e-05 0.0 0.0 0.0
119 1 66.44216393442623 7.565641311475411 2.28456557252e-06 0.0 0.0 0.0
120 1 69.03390819672133 7.803306229508197 1.57605963547e-05 0.0 0.0 0.0
121 1 71.60949508196722 7.4860662295081974 4.51508563862e-05 0.0 0.0 0.0
122 1 73.70641967213116 6.645024262295083 8.7797766654e-05 0.0 0.0 0.0
123 1 77.31456393442623 7.332773114754099 3.87446324967e-05 0.0 0.0 0.0
124 1 79.83511475409837 7.4085613114754105 5.46141095727e-05 0.0 0.0 0.0
125 1 1.4058584262295084 9.774809180327871 4.86487831736e-06 0.0 0.0 0.0
126 1 4.126674885245902 9.961477377049182 9.86726667742e-05 0.0 0.0 0.0
127 1 6.573881311475411 11.073205901639346 6.38965105436e-05 0.0 0.0 0.0
128 1 9.329269508196722 10.190255737704918 8.55144809449e-05 0.0 0.0 0.0
129 1 11.979634754098361 10.217066885245902 7.08089281389e-05 0.0 0.0 0.0
130 1 14.649489836065575 10.259782950819673 8.64035114355e-05 0.0 0.0 0.0
131 1 17.32893836065574 10.30532655737705 8.41856047063e-05 0.0 0.0 0.0
132 1 20.886136393442627 9.856656393442623 5.13657554842e-05 0.0 0.0 0.0
133 1 22.43214491803279 9.902300983606558 9.49938833005e-05 0.0 0.0 0.0
134 1 25.207426885245905 10.13936 8.3538661129e-05 0.0 0.0 0.0
135 1 27.920099016393447 9.93956393442623 2.62897218647e-05 0.0 0.0 0.0
136 1 30.174760000000003 11.335763278688527 7.46498686228e-05 0.0 0.0 0.0
137 1 32.962664918032786 10.445643278688525 2.5212501399e-05 0.0 0.0 0.0
138 1 35.6728124590164 10.33728786885246 1.49838812982e-05 0.0 0.0 0.0
139 1 38.33984 10.269426885245903 2.36771747845e-05 0.0 0.0 0.0
140 1 40.89982491803279 10.216915409836066 9.9263620665e-05 0.0 0.0 0.0
141 1 44.537708852459026 9.32548262295082 5.42882733869e-05 0.0 0.0 0.0
142 1 46.08149573770492 9.308365901639347 3.29313571838e-05 0.0 0.0 0.0
143 1 49.22047016393443 10.086899016393444 3.84617006767e-05 0.0 0.0 0.0
144 1 51.86013114754098 9.971222295081969 5.44103342573e-05 0.0 0.0 0.0
145 1 54.58618360655738 10.04468786885246 9.8102851316e-05 0.0 0.0 0.0
146 1 57.18449180327869 10.0716 6.34411479999e-05 0.0 0.0 0.0
147 1 59.787849180327875 9.891293770491805 4.16841739709e-05 0.0 0.0 0.0
148 1 62.46997377049181 9.71012918032787 3.14317633897e-05 0.0 0.0 0.0
149 1 65.20511475409836 9.809800000000001 8.03052830624e-05 0.0 0.0 0.0
150 1 67.7913049180328 10.018785573770494 5.17001754969e-05 0.0 0.0 0.0
151 1 70.49968524590165 9.97536262295082 7.2997078566e-05 0.0 0.0 0.0
152 1 73.17676065573771 9.584455081967214 3.52569647648e-05 0.0 0.0 0.0
153 1 75.84222295081968 9.499982295081969 6.23633155923e-05 0.0 0.0 0.0
154 1 78.56070163934427 9.751936393442625 8.91709924945e-05 0.0 0.0 0.0
155 1 81.37360000000001 9.633886557377052 2.69440063417e-05 0.0 0.0 0.0
156 1 82.50512131147542 12.016847213114756 7.24389031916e-05 0.0 0.0 0.0
157 1 2.915376524590164 12.157668852459016 1.23472673429e-05 0.0 0.0 0.0
158 1 5.766466885245903 12.36862360655738 9.32455633574e-05 0.0 0.0 0.0
159 1 8.257732459016395 12.634967868852462 2.91346399452e-05 0.0 0.0 0.0
160 1 10.754350163934427 12.531661639344263 4.47682303589e-05 0.0 0.0 0.0
161 1 13.325544262295084 12.555847213114756 5.24313446456e-05 0.0 0.0 0.0
162 1 15.913905573770494 12.598260327868854 2.53024252723e-05 0.0 0.0 0.0
163 1 18.460156721311474 12.754784918032788 3.39001387884e-06 0.0 0.0 0.0
164 1 20.939455737704918 12.468445901639345 3.35448170701e-05 0.0 0.0 0.0
165 1 23.832434098360658 12.240879344262297 4.17336521514e-05 0.0 0.0 0.0
166 1 26.668407213114758 12.337722622950821 6.29466223351e-05 0.0 0.0 0.0
167 1 29.401932459016397 12.67541180327869 4.46524004999e-05 0.0 0.0 0.0
168 1 31.86704327868853 12.899999344262296 9.89485632386e-05 0.0 0.0 0.0
169 1 34.492465573770495 12.680662950819674 9.00229769213e-05 0.0 0.0 0.0
170 1 37.180699672131155 12.622496393442624 4.10285492242e-05 0.0 0.0 0.0
171 1 39.81748262295083 12.6488531147541 4.98257102572e-05 0.0 0.0 0.0
172 1 42.24911737704919 12.583163278688525 4.18778932212e-05 0.0 0.0 0.0
173 1 44.50923147540984 11.829118688524591 9.3780898253e-05 0.0 0.0 0.0
174 1 46.723095081967216 10.72577180327869 6.50037885984e-05 0.0 0.0 0.0
175 1 50.4876124590164 12.28576655737705 5.19121251977e-05 0.0 0.0 0.0
176 1 53.27087213114755 12.27349704918033 7.12447729137e-05 0.0 0.0 0.0
177 1 55.877763934426234 12.437342950819673 4.45885519471e-05 0.0 0.0 0.0
178 1 58.47253770491804 12.338631475409837 4.02801351627e-05 0.0 0.0 0.0
179 1 61.10669508196722 12.06789442622951 7.67877532108e-05 0.0 0.0 0.0
180 1 63.80043278688525 11.969132459016395 3.04278080985e-05 0.0 0.0 0.0
181 1 66.45731147540984 12.27920262295082 2.53734949218e-05 0.0 0.0 0.0
182 1 69.17528524590163 12.26728655737705 7.35079526421e-05 0.0 0.0 0.0
183 1 71.9144655737705 12.05976524590164 1.02957142173e-05 0.0 0.0 0.0
184 1 74.56124590163934 11.877641311475411 2.98704519011e-05 0.0 0.0 0.0
185 1 77.16813770491804 11.893041311475411 8.11105612163e-05 0.0 0.0 0.0
186 1 79.79421639344262 11.86304918032787 9.47195231395e-05 0.0 0.0 0.0
187 1 0.531072786885246 13.391436065573771 7.09214256038e-05 0.0 0.0 0.0
188 1 4.180090163934427 14.337248524590166 5.03899015979e-05 0.0 0.0 0.0
189 1 6.795994754098361 14.879681967213116 9.16039221241e-05 0.0 0.0 0.0
190 1 9.354161967213116 14.988592786885247 8.129995943e-05 0.0 0.0 0.0
191 1 11.977564590163936 14.925074098360657 3.6440250033e-06 0.0 0.0 0.0
192 1 14.605965901639346 14.950471475409838 9.96894548222e-05 0.0 0.0 0.0
193 1 17.236992786885246 15.062916721311478 7.97768443454e-05 0.0 0.0 0.0
194 1 19.875542950819675 15.024896393442624 5.5711486593e-05 0.0 0.0 0.0
195 1 22.499753442622954 14.416924590163937 9.49754380666e-05 0.0 0.0 0.0
196 1 25.237570491803282 14.455197377049181 2.63054429015e-05 0.0 0.0 0.0
197 1 27.885512131147546 14.779506229508199 6.58904911843e-05 0.0 0.0 0.0
198 1 30.45170754098361 15.226257704918034 2.33533454629e-05 0.0 0.0 0.0
199 1 33.16301639344263 15.117599344262297 3.77970796124e-05 0.0 0.0 0.0
200 1 35.95869704918033 14.943705573770494 7.86387622832e-06 0.0 0.0 0.0
201 1 38.689041311475414 14.969860327868854 1.89721936985e-05 0.0 0.0 0.0
202 1 41.42615147540984 15.078821639344264 2.80763118502e-05 0.0 0.0 0.0
203 1 44.717964590163945 14.224045901639345 3.50026697572e-05 0.0 0.0 0.0
204 1 46.130220327868855 13.62097180327869 8.79819362977e-05 0.0 0.0 0.0
205 1 48.7734662295082 14.035055081967215 5.23550109377e-05 0.0 0.0 0.0
206 1 51.54859672131148 14.408896393442625 2.98614491369e-05 0.0 0.0 0.0
207 1 54.347862295081974 14.719925901639344 2.81128120385e-05 0.0 0.0 0.0
208 1 57.37030163934427 14.768044590163935 3.462325757e-05 0.0 0.0 0.0
209 1 60.112511475409846 14.492460327868853 7.51293145205e-05 0.0 0.0 0.0
210 1 62.729501639344264 14.240253770491805 5.65510367465e-05 0.0 0.0 0.0
211 1 65.08645901639345 15.4886131147541 1.84937055529e-05 0.0 0.0 0.0
212 1 67.90036721311476 14.550323934426231 8.08651917735e-05 0.0 0.0 0.0
213 1 70.66327868852458 14.40743213114754 4.87831000489e-05 0.0 0.0 0.0
214 1 73.35095737704918 14.296754098360658 6.90998442569e-05 0.0 0.0 0.0
215 1 75.95784918032788 14.250756065573771 7.74540368717e-05 0.0 0.0 0.0
216 1 78.51929836065574 14.226368524590166 8.38451331367e-05 0.0 0.0 0.0
217 1 81.06660983606558 14.176280655737706 4.69449281613e-05 0.0 0.0 0.0
218 1 82.58641311475411 16.305772459016396 3.71842738882e-05 0.0 0.0 0.0
219 1 2.518344327868853 16.358637377049185 2.67960919156e-06 0.0 0.0 0.0
220 1 5.103610491803279 16.83502754098361 5.49640539301e-05 0.0 0.0 0.0
221 1 7.735849180327869 17.287383606557377 3.12406404733e-05 0.0 0.0 0.0
222 1 10.516129836065575 17.2811731147541 1.42080189037e-05 0.0 0.0 0.0
223 1 13.229054426229508 17.27536655737705 1.31283799428e-05 0.0 0.0 0.0
224 1 15.860384262295083 17.343480000000003 7.5585366022e-05 0.0 0.0 0.0
225 1 18.506508196721317 17.381752786885247 7.43172051249e-05 0.0 0.0 0.0
226 1 22.056788852459018 16.793321311475413 6.73971427584e-05 0.0 0.0 0.0
227 1 23.578914754098363 16.624779672131147 9.12352920177e-05 0.0 0.0 0.0
228 1 26.17707147540984 16.89960655737705 4.63046254471e-05 0.0 0.0 0.0
229 1 28.780176393442623 17.369735737704918 1.32636523863e-05 0.0 0.0 0.0
230 1 31.902892459016396 17.45759147540984 6.61414356235e-06 0.0 0.0 0.0
231 1 34.68024459016394 17.204375081967214 4.34087663868e-05 0.0 0.0 0.0
232 1 37.37893049180329 17.22043147540984 3.28640473958e-05 0.0 0.0 0.0
233 1 40.02858885245902 17.30227868852459 7.2305250341e-06 0.0 0.0 0.0
234 1 42.639923934426236 17.44708918032787 2.00792198289e-05 0.0 0.0 0.0
235 1 45.65569836065574 16.50238754098361 1.04765888358e-05 0.0 0.0 0.0
236 1 47.16030360655738 16.106784262295083 1.71902098364e-05 0.0 0.0 0.0
237 1 49.97789770491804 16.38050032786885 8.51148618329e-05 0.0 0.0 0.0
238 1 52.85128524590164 16.675675409836067 4.6499418661e-05 0.0 0.0 0.0
239 1 55.03859016393443 16.10491606557377 1.07248846574e-05 0.0 0.0 0.0
240 1 58.783062295081976 16.828160655737705 9.47379591526e-05 0.0 0.0 0.0
241 1 61.5040655737705 16.706929836065576 7.28955939677e-05 0.0 0.0 0.0
242 1 64.27303606557378 16.79574491803279 4.26471646384e-05 0.0 0.0 0.0
243 1 66.85266229508197 16.93626360655738 4.28077255315e-05 0.0 0.0 0.0
244 1 69.51660983606558 16.693448524590167 4.95312677935e-05 0.0 0.0 0.0
245 1 72.18409180327869 16.641139016393446 2.44328756375e-06 0.0 0.0 0.0
246 1 74.81622950819674 16.631545573770495 7.37281140909e-05 0.0 0.0 0.0
247 1 77.40393442622953 16.631545573770495 5.36952236911e-06 0.0 0.0 0.0
248 1 79.98103606557378 16.586153442622955 7.13170340762e-05 0.0 0.0 0.0
249 1 1.303269180327869 18.68292655737705 6.87770029282e-05 0.0 0.0 0.0
250 1 3.802209508196722 18.90514098360656 1.5645610165e-05 0.0 0.0 0.0
251 1 6.143337704918033 20.36228393442623 9.43160795722e-05 0.0 0.0 0.0
252 1 9.083677377049181 19.489684590163936 4.5659601445e-05 0.0 0.0 0.0
253 1 11.88309442622951 19.54113573770492 2.96787745254e-05 0.0 0.0 0.0
254 1 14.487057704918035 19.64994557377049 5.30355095203e-05 0.0 0.0 0.0
255 1 17.056181639344263 19.69124786885246 4.09020055921e-05 0.0 0.0 0.0
256 1 19.598292459016395 19.800007213114757 3.7628997072e-05 0.0 0.0 0.0
257 1 21.983424262295085 19.466559344262297 4.24347728638e-05 0.0 0.0 0.0
258 1 24.654491147540984 19.09403081967213 5.65844955113e-05 0.0 0.0 0.0
259 1 27.247144262295087 19.432931803278688 6.85207078385e-05 0.0 0.0 0.0
260 1 29.48574885245902 18.74649573770492 5.94977823593e-05 0.0 0.0 0.0
261 1 33.28303540983607 19.483575081967217 8.57177839172e-05 0.0 0.0 0.0
262 1 35.95132524590164 19.47746557377049 5.93797616651e-05 0.0 0.0 0.0
263 1 38.66758229508197 19.590617704918035 7.22915053471e-05 0.0 0.0 0.0
264 1 41.257609836065576 19.741032786885246 9.34472910529e-05 0.0 0.0 0.0
265 1 43.85142426229509 19.82252655737705 6.4525437166e-05 0.0 0.0 0.0
266 1 46.37611540983607 19.250605901639346 9.22208419682e-05 0.0 0.0 0.0
267 1 48.778616393442626 18.391336393442625 3.83182961955e-05 0.0 0.0 0.0
268 1 51.627363934426235 18.55745442622951 2.12556808224e-05 0.0 0.0 0.0
269 1 54.3428131147541 18.967649836065576 4.71760819009e-05 0.0 0.0 0.0
270 1 57.116327868852466 18.955986229508202 2.87738730424e-05 0.0 0.0 0.0
271 1 59.97163934426231 19.00567016393443 3.45806639399e-06 0.0 0.0 0.0
272 1 62.71586885245902 18.969972459016397 9.05782609786e-05 0.0 0.0 0.0
273 1 65.4308131147541 19.19920524590164 1.36310229982e-05 0.0 0.0 0.0
274 1 68.19069508196722 19.082720655737706 1.30947555221e-05 0.0 0.0 0.0
275 1 70.9440131147541 18.96744786885246 3.09423758014e-05 0.0 0.0 0.0
276 1 73.63421639344263 18.972042622950823 8.23122357545e-05 0.0 0.0 0.0
277 1 76.25019672131148 19.009305573770494 9.81033342274e-05 0.0 0.0 0.0
278 1 78.86668196721313 18.99436 9.98733976237e-05 0.0 0.0 0.0
279 1 81.40288524590164 18.806025573770494 3.45580735295e-05 0.0 0.0 0.0
280 1 0.3161185770491804 21.08224655737705 8.93552670368e-05 0.0 0.0 0.0
281 1 2.605760786885246 22.500106885245906 6.3901550486e-05 0.0 0.0 0.0
282 1 5.447914098360656 21.752323278688525 1.48935362129e-05 0.0 0.0 0.0
283 1 8.063692459016394 21.60211016393443 8.03098590283e-05 0.0 0.0 0.0
284 1 10.797621639344262 21.667345573770493 1.83716257102e-05 0.0 0.0 0.0
285 1 13.23051868852459 21.957118032786887 8.94043249825e-05 0.0 0.0 0.0
286 1 15.786161311475412 22.059666885245903 6.47814193093e-06 0.0 0.0 0.0
287 1 18.429457704918033 22.12565967213115 9.85444064782e-05 0.0 0.0 0.0
288 1 21.13622229508197 22.074915409836066 1.07330890197e-05 0.0 0.0 0.0
289 1 23.68863344262295 21.50839737704918 7.54172629459e-05 0.0 0.0 0.0
290 1 26.13051803278689 22.70661836065574 4.7660851489e-05 0.0 0.0 0.0
291 1 28.89176327868853 21.595748196721313 4.73543942794e-05 0.0 0.0 0.0
292 1 31.682445245901643 21.558182295081966 6.38914762179e-06 0.0 0.0 0.0
293 1 34.42076721311476 21.752373770491808 1.91254079306e-06 0.0 0.0 0.0
294 1 37.08067540983607 21.767622295081967 1.69763109776e-06 0.0 0.0 0.0
295 1 39.77279737704918 22.038409836065576 3.31624675525e-05 0.0 0.0 0.0
296 1 42.79478229508197 22.124649836065576 2.46720037291e-05 0.0 0.0 0.0
297 1 45.54123344262295 21.837704918032788 7.57431757729e-05 0.0 0.0 0.0
298 1 48.862230819672135 20.833019016393443 4.23179030329e-05 0.0 0.0 0.0
299 1 50.37738885245902 20.524160655737706 1.32196915046e-05 0.0 0.0 0.0
300 1 52.45896393442624 22.177817704918034 5.48412495543e-05 0.0 0.0 0.0
301 1 55.967134426229514 21.282244590163938 6.96001686198e-05 0.0 0.0 0.0
302 1 58.6972262295082 21.131880000000002 2.83363584317e-06 0.0 0.0 0.0
303 1 61.36016393442624 21.236953442622955 7.20764894953e-05 0.0 0.0 0.0
304 1 64.03976393442623 21.329757377049184 7.97428612992e-05 0.0 0.0 0.0
305 1 66.76379672131148 21.336270819672134 6.86194910922e-05 0.0 0.0 0.0
306 1 69.5312524590164 21.22907672131148 6.52711095177e-05 0.0 0.0 0.0
307 1 72.3572786885246 21.25250491803279 9.07480642539e-05 0.0 0.0 0.0
308 1 74.9944655737705 21.353135081967217 6.55687307707e-05 0.0 0.0 0.0
309 1 77.69628196721312 21.363940327868857 2.04955988353e-06 0.0 0.0 0.0
310 1 80.41476065573771 21.315468196721312 2.21953805544e-05 0.0 0.0 0.0
311 1 1.902526098360656 23.88923737704918 1.440253682e-05 0.0 0.0 0.0
312 1 4.339462491803279 24.155278688524593 1.4838667406e-05 0.0 0.0 0.0
313 1 7.697525901639345 23.685704918032787 6.47224257409e-05 0.0 0.0 0.0
314 1 9.220106229508199 23.796281967213115 4.61923568995e-05 0.0 0.0 0.0
315 1 11.815233442622953 24.276055081967215 8.66083725699e-05 0.0 0.0 0.0
316 1 14.415308852459018 24.410918688524593 9.6360441233e-05 0.0 0.0 0.0
317 1 17.134393442622954 24.419249836065575 4.89751599985e-05 0.0 0.0 0.0
318 1 19.89104393442623 24.367243278688527 1.17521024556e-05 0.0 0.0 0.0
319 1 22.642746229508198 24.141645901639347 7.13404034204e-06 0.0 0.0 0.0
320 1 25.400305573770492 24.07105836065574 9.01369256108e-05 0.0 0.0 0.0
321 1 27.93494360655738 24.07762229508197 5.89828800887e-06 0.0 0.0 0.0
322 1 30.53209049180328 23.79547409836066 3.39008342079e-06 0.0 0.0 0.0
323 1 33.170236721311475 23.89509442622951 1.87144997342e-05 0.0 0.0 0.0
324 1 35.811412459016395 24.05671868852459 1.57616199821e-05 0.0 0.0 0.0
325 1 38.403914098360666 24.13447606557377 7.30077981701e-05 0.0 0.0 0.0
326 1 40.515380327868854 23.3888131147541 1.40915930344e-05 0.0 0.0 0.0
327 1 44.179015081967215 24.156995409836068 2.06867680648e-05 0.0 0.0 0.0
328 1 46.670785573770495 24.103171147540987 5.37400257015e-05 0.0 0.0 0.0
329 1 49.069752131147546 23.666921967213117 8.28471512797e-05 0.0 0.0 0.0
330 1 51.774800000000006 23.547003934426233 5.75602087023e-05 0.0 0.0 0.0
331 1 53.80305573770492 22.91676524590164 7.59343116244e-05 0.0 0.0 0.0
332 1 57.46876065573771 23.438345573770494 2.06720208089e-05 0.0 0.0 0.0
333 1 60.06201967213115 23.499491147540986 3.33934596418e-06 0.0 0.0 0.0
334 1 62.72142295081968 23.575329836065578 4.77913049435e-05 0.0 0.0 0.0
335 1 65.41869508196721 23.58401442622951 2.76753275484e-05 0.0 0.0 0.0
336 1 68.08718688524591 23.472124590163936 8.16369629415e-05 0.0 0.0 0.0
337 1 70.8556524590164 23.361194098360656 2.00513791829e-05 0.0 0.0 0.0
338 1 73.56302295081969 23.65182491803279 2.55825312046e-05 0.0 0.0 0.0
339 1 76.34663606557378 23.661216393442626 9.52875806358e-05 0.0 0.0 0.0
340 1 79.14186229508196 23.63864655737705 2.02111255344e-05 0.0 0.0 0.0
341 1 81.8820524590164 23.62163081967213 2.02690838821e-05 0.0 0.0 0.0
342 1 0.4859326098360656 26.087297049180332 9.48426591521e-05 0.0 0.0 0.0
343 1 3.0544763934426236 26.484061639344265 9.35518490515e-05 0.0 0.0 0.0
344 1 5.628977704918034 26.67835409836066 3.81374628014e-05 0.0 0.0 0.0
345 1 8.100097049180329 26.11244196721312 3.93650486882e-05 0.0 0.0 0.0
346 1 10.209695081967215 27.57342229508197 8.06027715518e-05 0.0 0.0 0.0
347 1 13.037185573770493 26.735712786885248 1.31371122406e-05 0.0 0.0 0.0
348 1 15.801359344262297 26.69324918032787 1.18252789709e-05 0.0 0.0 0.0
349 1 18.56593704918033 26.632154098360658 2.56549399717e-05 0.0 0.0 0.0
350 1 21.312085245901642 26.501430819672134 6.79941961085e-05 0.0 0.0 0.0
351 1 23.99638098360656 26.36762754098361 3.65594295231e-05 0.0 0.0 0.0
352 1 26.644120655737705 26.461441311475415 3.01438978264e-05 0.0 0.0 0.0
353 1 29.339221639344267 26.271390163934427 7.37437090117e-05 0.0 0.0 0.0
354 1 32.025284590163935 26.164953442622952 3.82895800842e-05 0.0 0.0 0.0
355 1 34.68095147540984 26.27866098360656 4.6738238797e-05 0.0 0.0 0.0
356 1 37.35015016393443 26.41872524590164 2.22402744012e-05 0.0 0.0 0.0
357 1 40.04328196721312 26.281185573770497 2.20000199532e-05 0.0 0.0 0.0
358 1 42.71768131147542 26.34329049180328 7.07145258376e-05 0.0 0.0 0.0
359 1 45.37158098360656 26.532028852459018 5.83583642729e-05 0.0 0.0 0.0
360 1 47.98392590163935 26.31183409836066 8.69764632981e-05 0.0 0.0 0.0
361 1 50.582183606557386 25.86250754098361 5.29079133611e-05 0.0 0.0 0.0
362 1 53.35822295081968 25.793434754098364 6.91815481096e-05 0.0 0.0 0.0
363 1 55.98884590163935 25.63408262295082 3.00623331934e-05 0.0 0.0 0.0
364 1 58.665921311475415 25.830647213114755 5.54308239166e-05 0.0 0.0 0.0
365 1 61.37985573770492 25.852611147540987 5.59529440262e-05 0.0 0.0 0.0
366 1 64.12307540983608 25.857306885245904 7.27733464853e-05 0.0 0.0 0.0
367 1 66.90820327868853 25.819539016393446 6.59458209976e-05 0.0 0.0 0.0
368 1 69.67010491803279 25.57909704918033 4.9993884519e-05 0.0 0.0 0.0
369 1 72.06240655737706 26.75555606557377 1.37157386081e-05 0.0 0.0 0.0
370 1 74.9560918032787 25.89714491803279 7.66692824267e-05 0.0 0.0 0.0
371 1 77.78262295081969 25.876493770491805 7.02549285804e-05 0.0 0.0 0.0
372 1 80.52584262295083 25.928348852459017 4.70748710668e-05 0.0 0.0 0.0
373 1 1.8319082622950822 28.67065967213115 4.1519078251e-06 0.0 0.0 0.0
374 1 4.607286163934426 28.91943278688525 1.98144364109e-05 0.0 0.0 0.0
375 1 7.617092459016394 28.650109508196724 9.04364558362e-05 0.0 0.0 0.0
376 1 9.207331803278688 28.759828196721315 6.4117811791e-05 0.0 0.0 0.0
377 1 11.823615081967214 29.155532459016396 8.45145919651e-05 0.0 0.0 0.0
378 1 14.550677377049183 28.961088524590167 7.17497888953e-05 0.0 0.0 0.0
379 1 17.274710163934426 28.900245901639344 7.80918717261e-05 0.0 0.0 0.0
380 1 20.008033442622953 28.819913442622955 1.31008242031e-05 0.0 0.0 0.0
381 1 22.72928918032787 28.74498360655738 8.49609581984e-05 0.0 0.0 0.0
382 1 25.41121180327869 28.741045245901642 6.43126245829e-05 0.0 0.0 0.0
383 1 28.045924590163935 28.63228590163935 6.9507466883e-05 0.0 0.0 0.0
384 1 30.824337049180333 28.487677377049184 8.702575156e-05 0.0 0.0 0.0
385 1 33.5092386885246 28.521961311475415 4.94419478397e-05 0.0 0.0 0.0
386 1 36.14859672131148 28.64097049180328 3.75426777958e-05 0.0 0.0 0.0
387 1 38.832589508196726 28.63980918032787 2.22387485546e-05 0.0 0.0 0.0
388 1 41.49906163934427 28.628196065573775 8.38070582e-05 0.0 0.0 0.0
389 1 44.157707540983616 28.74654885245902 2.05375723491e-05 0.0 0.0 0.0
390 1 46.81019344262295 28.750032786885246 6.50096346035e-05 0.0 0.0 0.0
391 1 49.33922688524591 28.39300524590164 9.84736595944e-05 0.0 0.0 0.0
392 1 51.964144262295086 28.016184918032792 3.11097690662e-05 0.0 0.0 0.0
393 1 54.64172459016394 28.083843934426234 6.65119237992e-05 0.0 0.0 0.0
394 1 57.32081967213116 28.05935540983607 9.23278217786e-05 0.0 0.0 0.0
395 1 60.02465573770492 28.12055147540984 3.76768723624e-05 0.0 0.0 0.0
396 1 62.74818360655738 28.10399016393443 2.84265960829e-05 0.0 0.0 0.0
397 1 65.51008524590165 28.0481462295082 2.0152233222e-05 0.0 0.0 0.0
398 1 68.30228196721312 27.939336393442627 3.12987795755e-05 0.0 0.0 0.0
399 1 71.14194098360656 27.99800786885246 1.07365394012e-05 0.0 0.0 0.0
400 1 73.7665049180328 28.199217704918034 2.50084618716e-05 0.0 0.0 0.0
401 1 76.49811147540984 28.06632327868853 4.35105773779e-05 0.0 0.0 0.0
402 1 79.19033442622951 28.176243934426235 9.58402008674e-05 0.0 0.0 0.0
403 1 81.83307540983607 28.370536393442627 8.72034380154e-05 0.0 0.0 0.0
404 1 0.30042320000000006 30.83675803278689 6.36281643417e-05 0.0 0.0 0.0
405 1 2.931655081967213 31.071645901639346 1.76657760832e-05 0.0 0.0 0.0
406 1 5.50436393442623 31.7756531147541 3.43757012527e-05 0.0 0.0 0.0
407 1 7.815474754098362 31.66179409836066 8.06061482235e-05 0.0 0.0 0.0
408 1 10.554049180327869 31.30830098360656 9.67872648055e-05 0.0 0.0 0.0
409 1 13.298935081967214 31.312087868852462 4.14342322593e-05 0.0 0.0 0.0
410 1 16.01463672131148 31.20519672131148 9.32252859154e-05 0.0 0.0 0.0
411 1 18.716200655737705 31.12481377049181 3.02435501616e-05 0.0 0.0 0.0
412 1 21.440687868852464 31.05685180327869 7.9333596759e-05 0.0 0.0 0.0