ITEM: TIMESTEP
0
ITEM: NUMBER OF ATOMS
2232
ITEM: BOX BOUNDS xy xz yz pp pp pp
0.0 82.68810555352132 0
0.0 83.16 0
-10.0 10.0 0
ITEM: ATOMS id type x y z vx vy vz
1 1 1.5905473442622953 0.46678561311475414 9.70969583759e-05 0.0 0.0 0.0
2 1 4.778599803278689 0.6986348852459017 4.54032926528e-05 0.0 0.0 0.0
3 1 7.84864786885246 0.6938634098360656 8.79236332206e-05 0.0 0.0 0.0
4 1 10.392020983606558 0.23704033442622954 1.54074790491e-07 0.0 0.0 0.0
5 1 13.20052655737705 0.3322946360655738 7.4683099732e-05 0.0 0.0 0.0
6 1 15.463518688524593 0.8491711475409837 1.68864921762e-05 0.0 0.0 0.0
7 1 18.080660327868856 0.9433636065573772 5.27270939251e-05 0.0 0.0 0.0
8 1 20.694873442622953 1.1006304262295081 5.59181015795e-05 0.0 0.0 0.0
9 1 23.253192131147546 0.882112 6.31319680415e-05 0.0 0.0 0.0
10 1 25.840745573770494 0.5952731147540984 5.88417963598e-05 0.0 0.0 0.0
11 1 28.44541573770492 0.6509504262295083 5.40839820951e-05 0.0 0.0 0.0
12 1 30.662056393442626 2.2465520000000003 3.33443737154e-05 0.0 0.0 0.0
13 1 33.452637377049186 1.0267659672131149 7.60091210437e-06 0.0 0.0 0.0
14 1 36.27013049180328 0.8736546229508199 5.00447828542e-05 0.0 0.0 0.0
15 1 39.063892459016394 0.8281059672131148 5.86035775206e-05 0.0 0.0 0.0
16 1 41.86522819672132 0.7214016393442624 6.23534254825e-05 0.0 0.0 0.0
17 1 44.443693114754105 0.6408470163934427 5.77239247896e-06 0.0 0.0 0.0
18 1 46.99438754098361 0.5994235409836066 4.48368434805e-05 0.0 0.0 0.0
19 1 49.629150819672134 0.5899967213114755 5.62780447417e-05 0.0 0.0 0.0
20 1 52.34586229508197 0.5913600000000001 1.68397040705e-05 0.0 0.0 0.0
21 1 55.07595409836066 0.4915659803278689 6.89359844165e-05 0.0 0.0 0.0
22 1 57.36373770491804 1.8783607213114757 6.88766151043e-05 0.0 0.0 0.0
23 1 61.02388852459017 0.7575638688524591 4.40983734277e-05 0.0 0.0 0.0
24 1 62.56136393442623 0.8313980327868854 1.44783486795e-05 0.0 0.0 0.0
25 1 65.16775081967214 0.849660918032787 8.53302017641e-05 0.0 0.0 0.0
26 1 68.03215081967214 0.6681277377049181 9.47563377623e-05 0.0 0.0 0.0
27 1 70.54361311475411 0.7835520000000001 7.64238853851e-05 0.0 0.0 0.0
28 1 73.16211803278689 0.45785613770491806 6.81861841228e-05 0.0 0.0 0.0
29 1 75.7639606557377 0.6937523278688525 2.45271190497e-05 0.0 0.0 0.0
30 1 78.25472131147542 0.863212918032787 9.38316759306e-05 0.0 0.0 0.0
31 1 81.45186229508198 0.6711622950819673 2.36873595074e-05 0.0 0.0 0.0
32 1 0.2195737049180328 2.6276136393442626 1.39742310282e-06 0.0 0.0 0.0
33 1 2.2908232131147543 1.8297522622950821 4.41021243605e-05 0.0 0.0 0.0
34 1 5.670280000000001 1.9605361311475413 7.32072272302e-05 0.0 0.0 0.0
35 1 10.08588918032787 2.5846905573770496 6.04447146263e-05 0.0 0.0 0.0
36 1 11.614680000000002 2.36875731147541 5.5761796209e-05 0.0 0.0 0.0
37 1 13.582699016393445 4.204679672131149 5.97067691767e-06 0.0 0.0 0.0
38 1 16.430083278688528 3.2393117377049183 8.60406226619e-05 0.0 0.0 0.0
39 1 19.249596065573773 3.3314996721311476 4.97343031286e-05 0.0 0.0 0.0
40 1 22.093395409836067 3.373150360655738 8.43926989761e-05 0.0 0.0 0.0
41 1 25.46715672131148 2.85224662295082 6.52960280012e-05 0.0 0.0 0.0
42 1 27.005490491803283 2.931872196721312 2.4851399598e-05 0.0 0.0 0.0
43 1 29.700944918032793 3.4809857049180333 7.46155928754e-05 0.0 0.0 0.0
44 1 32.31470360655738 3.5509370491803285 8.91984391353e-05 0.0 0.0 0.0
45 1 35.002634754098366 3.191783803278689 8.9223340094e-05 0.0 0.0 0.0
46 1 38.70085639344263 2.731404590163935 4.92184371304e-05 0.0 0.0 0.0
47 1 40.25878098360656 2.8898074754098366 8.55600357877e-05 0.0 0.0 0.0
48 1 43.098187540983616 3.055259016393443 9.32082461695e-05 0.0 0.0 0.0
49 1 45.81964524590165 3.037112262295082 6.65957284331e-05 0.0 0.0 0.0
50 1 48.39351540983607 2.9444295081967216 8.15497983152e-05 0.0 0.0 0.0
51 1 51.120931147540986 2.8670457704918033 3.37742641265e-05 0.0 0.0 0.0
52 1 53.721763934426235 2.817175016393443 7.28516564938e-05 0.0 0.0 0.0
53 1 56.40691803278689 3.076031344262295 5.65143089559e-05 0.0 0.0 0.0
54 1 58.7588262295082 3.854044393442623 8.31931208074e-05 0.0 0.0 0.0
55 1 61.17435409836066 3.461697836065574 5.67746615009e-05 0.0 0.0 0.0
56 1 63.90444590163935 3.203391868852459 5.96050362317e-05 0.0 0.0 0.0
57 1 66.58808524590164 2.9376737049180335 6.13296216435e-05 0.0 0.0 0.0
58 1 69.1500393442623 3.1194088524590167 1.65941542732e-06 0.0 0.0 0.0
59 1 71.70694426229508 2.894023540983607 8.74212990152e-05 0.0 0.0 0.0
60 1 74.51782295081968 2.866874098360656 7.58625267884e-05 0.0 0.0 0.0
61 1 77.17217704918033 3.1327689836065575 7.6637472937e-05 0.0 0.0 0.0
62 1 79.1448918032787 2.1226804590163937 8.45905956846e-05 0.0 0.0 0.0
63 1 1.6920308196721314 4.739610032786885 9.59557557207e-05 0.0 0.0 0.0
64 1 4.440228983606558 4.680963803278689 4.73614496234e-05 0.0 0.0 0.0
65 1 7.037295081967214 4.993942295081967 5.54011740664e-05 0.0 0.0 0.0
66 1 9.742241967213115 5.312394098360656 7.73658906116e-05 0.0 0.0 0.0
67 1 12.633604590163936 5.449984262295082 6.28723199941e-05 0.0 0.0 0.0
68 1 15.276093114754099 5.654425573770492 9.7117177119e-05 0.0 0.0 0.0
69 1 17.928225573770494 5.438320655737705 1.32707010171e-06 0.0 0.0 0.0
70 1 20.606613770491805 5.464222950819672 1.30577095179e-05 0.0 0.0 0.0
71 1 23.254706885245902 5.887495737704918 7.03075617513e-05 0.0 0.0 0.0
72 1 25.78328590163935 5.435947540983607 9.92169921832e-05 0.0 0.0 0.0
73 1 28.07773442622951 6.627352131147542 1.28115137631e-05 0.0 0.0 0.0
74 1 30.918049836065578 5.873761967213116 4.61681360178e-05 0.0 0.0 0.0
75 1 33.60820262295083 5.641651147540984 8.02283604055e-05 0.0 0.0 0.0
76 1 36.18106295081968 5.515421639344264 7.47329787076e-05 0.0 0.0 0.0
77 1 38.85929967213115 5.192980983606558 4.4890115436e-05 0.0 0.0 0.0
78 1 41.78959147540984 5.1478918032786884 9.22073190576e-05 0.0 0.0 0.0
79 1 44.60854885245902 5.3311770491803285 6.6520645375e-05 0.0 0.0 0.0
80 1 47.32536131147542 5.401057704918033 5.67888329409e-05 0.0 0.0 0.0
81 1 49.9325055737705 5.149154098360657 9.69392491901e-05 0.0 0.0 0.0
82 1 52.59377704918033 5.21141049180328 7.33436786419e-05 0.0 0.0 0.0
83 1 55.0093049180328 5.214288524590164 6.68182572228e-05 0.0 0.0 0.0
84 1 57.37787540983607 6.828360000000001 4.63242097669e-05 0.0 0.0 0.0
85 1 60.212990163934435 6.081939672131148 7.47560194008e-05 0.0 0.0 0.0
86 1 62.76181639344263 5.576668196721313 1.7672284693e-05 0.0 0.0 0.0
87 1 65.44495081967214 5.3581901639344265 9.53856958226e-05 0.0 0.0 0.0
88 1 68.00740983606558 5.407571147540984 1.32343598355e-05 0.0 0.0 0.0
89 1 70.46636065573772 5.374549508196721 7.12607954875e-05 0.0 0.0 0.0
90 1 73.08234098360657 4.968933704918033 7.80129877113e-05 0.0 0.0 0.0
91 1 75.86090491803279 5.243876721311476 9.39141869424e-06 0.0 0.0 0.0
92 1 78.94948852459017 5.090785573770492 6.25197140572e-05 0.0 0.0 0.0
93 1 81.6588786885246 4.779458163934426 4.12698521629e-05 0.0 0.0 0.0
94 1 0.19349266885245903 7.0173508196721315 5.75542752688e-05 0.0 0.0 0.0
95 1 2.7617451147540986 6.939139016393443 4.45058245278e-05 0.0 0.0 0.0
96 1 5.280887213114754 7.213763934426231 5.22873300684e-05 0.0 0.0 0.0
97 1 8.01032262295082 7.384224262295082 2.33756421959e-05 0.0 0.0 0.0
98 1 10.814485901639344 7.531912786885246 9.53085947156e-05 0.0 0.0 0.0
99 1 14.05787737704918 7.848496393442624 8.93757270946e-05 0.0 0.0 0.0
100 1 16.964740983606557 7.802649836065575 1.34533900968e-06 0.0 0.0 0.0
101 1 19.487816393442625 7.7013127868852465 7.54441494778e-05 0.0 0.0 0.0
102 1 21.9305593442623 8.953913442622952 9.34553176671e-05 0.0 0.0 0.0
103 1 24.734924590163935 8.060662950819673 3.23072292871e-05 0.0 0.0 0.0
104 1 27.44487016393443 8.042586885245901 6.71509130934e-05 0.0 0.0 0.0
105 1 29.89579278688525 8.218399344262297 8.71935266679e-07 0.0 0.0 0.0
106 1 32.50500721311476 8.033548852459017 9.95028975611e-05 0.0 0.0 0.0
107 1 35.10376983606558 7.930899016393443 1.40118170082e-05 0.0 0.0 0.0
108 1 37.723284590163935 7.571245901639345 1.75852823871e-05 0.0 0.0 0.0
109 1 40.46029377049181 7.208361311475411 4.38502273259e-05 0.0 0.0 0.0
110 1 43.26011475409836 7.432746885245903 8.35821801054e-06 0.0 0.0 0.0
111 1 46.03711344262296 7.688235409836066 7.40144764511e-05 0.0 0.0 0.0
112 1 49.55543278688525 7.42168918032787 9.15046116769e-06 0.0 0.0 0.0
113 1 51.111842622950824 7.472635409836066 9.672109906e-05 0.0 0.0 0.0
114 1 53.80053114754099 7.733829508196722 2.23330338846e-05 0.0 0.0 0.0
115 1 56.55586885245903 8.119384918032788 2.61207837215e-05 0.0 0.0 0.0
116 1 59.31979016393443 8.376994098360658 5.35796083253e-05 0.0 0.0 0.0
117 1 61.87619016393443 8.165130491803279 9.70261265553e-05 0.0 0.0 0.0
118 1 64.3644262295082 7.725447868852459 6.87579344242e-06 0.0 0.0 0.0
119 1 66.9172918032787 7.756247868852459 6.33618016316e-05 0.0 0.0 0.0
120 1 69.37927213114756 7.85824131147541 7.34783378558e-05 0.0 0.0 0.0
121 1 72.7541442622951 7.162615737704919 7.83939338533e-05 0.0 0.0 0.0
122 1 74.27798688524591 7.190992131147541 2.76369201767e-05 0.0 0.0 0.0
123 1 76.7308786885246 6.490165901639345 4.36057292708e-05 0.0 0.0 0.0
124 1 80.31731147540984 7.1502452459016395 6.7576949476e-05 0.0 0.0 0.0
125 1 1.4230508852459016 9.364512786885248 5.27241098961e-05 0.0 0.0 0.0
126 1 3.7585946885245907 10.610145573770493 4.89337898382e-05 0.0 0.0 0.0
127 1 6.606095081967214 9.572791475409836 4.78534814604e-05 0.0 0.0 0.0
128 1 9.383649180327868 9.615103606557378 7.95067690025e-05 0.0 0.0 0.0
129 1 11.502638688524591 8.920891803278689 2.59317639389e-05 0.0 0.0 0.0
130 1 15.350063606557379 9.80252918032787 4.19692556343e-05 0.0 0.0 0.0
131 1 18.355487213114756 10.182025573770494 8.92557615917e-05 0.0 0.0 0.0
132 1 21.13571737704918 10.265791475409838 3.16725179983e-05 0.0 0.0 0.0
133 1 23.59012393442623 10.478816393442623 6.10235056621e-05 0.0 0.0 0.0
134 1 26.124105573770496 10.351980983606559 7.49126377487e-05 0.0 0.0 0.0
135 1 28.655714098360658 10.57252918032787 4.79065552323e-05 0.0 0.0 0.0
136 1 31.215446557377053 10.455085245901639 2.65432019195e-05 0.0 0.0 0.0
137 1 33.966441967213115 10.330420983606558 6.2644356034e-05 0.0 0.0 0.0
138 1 37.281178360655744 9.834641967213114 8.05436792377e-05 0.0 0.0 0.0
139 1 38.769777704918035 9.504627540983607 9.71315247028e-05 0.0 0.0 0.0
140 1 41.31183803278689 9.388698360655738 8.71272773018e-05 0.0 0.0 0.0
141 1 44.61122491803279 9.780464262295084 1.36447405939e-05 0.0 0.0 0.0
142 1 47.15681967213115 10.21252262295082 3.32778338583e-05 0.0 0.0 0.0
143 1 49.542961311475416 10.137895737704918 9.04956206454e-05 0.0 0.0 0.0
144 1 52.43674754098361 9.951681967213116 3.14821688029e-05 0.0 0.0 0.0
145 1 55.169868852459025 10.17364393442623 8.20910313415e-06 0.0 0.0 0.0
146 1 57.90904918032788 10.395504918032788 1.76953839221e-05 0.0 0.0 0.0
147 1 60.69417704918033 10.65033704918033 9.56137771613e-05 0.0 0.0 0.0
148 1 63.995836065573776 10.154911475409836 3.96802617522e-05 0.0 0.0 0.0
149 1 65.53331147540983 10.107297704918034 1.16370275015e-06 0.0 0.0 0.0
150 1 68.08668196721312 10.270891147540985 2.00480541983e-05 0.0 0.0 0.0
151 1 70.75668852459016 10.36268524590164 9.31171590542e-05 0.0 0.0 0.0
152 1 73.16413770491803 9.526540983606559 5.27449120933e-05 0.0 0.0 0.0
153 1 76.03156721311476 9.13719868852459 9.28092524427e-05 0.0 0.0 0.0
154 1 78.7096524590164 9.378145573770492 5.30845357004e-05 0.0 0.0 0.0
155 1 81.43520000000001 9.44100786885246 8.566644469e-05 0.0 0.0 0.0
156 1 0.17126718688524592 12.842034754098362 7.0315402703e-05 0.0 0.0 0.0
157 1 3.1209640000000003 12.035781639344263 2.35163929073e-05 0.0 0.0 0.0
158 1 5.700322622950821 11.867896393442624 6.04320889904e-05 0.0 0.0 0.0
159 1 8.392848524590164 11.751310819672133 2.21154465457e-05 0.0 0.0 0.0
160 1 11.040487213114755 11.829421639344263 4.97336960593e-05 0.0 0.0 0.0
161 1 14.475495081967214 11.658910819672132 2.27175154882e-06 0.0 0.0 0.0
162 1 15.931476721311478 11.19893049180328 5.92475800613e-05 0.0 0.0 0.0
163 1 19.4241462295082 12.373773770491804 6.09468411261e-06 0.0 0.0 0.0
164 1 22.0329062295082 12.77286098360656 1.06947469617e-05 0.0 0.0 0.0
165 1 24.687260327868856 12.795834754098363 2.89074570971e-05 0.0 0.0 0.0
166 1 27.31157180327869 12.86404918032787 4.85916593962e-05 0.0 0.0 0.0
167 1 29.94042754098361 12.90373573770492 4.34442257677e-06 0.0 0.0 0.0
168 1 32.53343409836066 12.58881836065574 1.60151985657e-05 0.0 0.0 0.0
169 1 35.10816262295082 12.750695081967214 2.28837201463e-05 0.0 0.0 0.0
170 1 37.49748524590164 12.605076721311477 5.67172518732e-05 0.0 0.0 0.0
171 1 40.77298950819672 11.624424918032789 4.8096904911e-05 0.0 0.0 0.0
172 1 42.003878688524594 10.734102950819674 5.25701701688e-05 0.0 0.0 0.0
173 1 45.35794819672132 12.28344393442623 7.8882073223e-05 0.0 0.0 0.0
174 1 48.33863081967214 12.70232393442623 8.19990954484e-05 0.0 0.0 0.0
175 1 51.191114754098365 12.156961967213118 7.94805830659e-05 0.0 0.0 0.0
176 1 53.949986885245906 12.361049836065575 1.58915870776e-05 0.0 0.0 0.0
177 1 57.34354098360656 12.292936393442623 8.17053560313e-05 0.0 0.0 0.0
178 1 58.855770491803284 12.610428852459018 4.36905029552e-05 0.0 0.0 0.0
179 1 61.42075409836066 13.285908196721312 9.42405129995e-05 0.0 0.0 0.0
180 1 64.04683278688526 12.80744786885246 4.83821848328e-05 0.0 0.0 0.0
181 1 66.83095081967214 12.60992393442623 6.88365018643e-06 0.0 0.0 0.0
182 1 69.47924590163935 12.624566557377051 9.34854244705e-05 0.0 0.0 0.0
183 1 73.4347737704918 11.731013114754099 2.07566523204e-05 0.0 0.0 0.0
184 1 74.93993442622951 11.313950819672131 3.15872624916e-05 0.0 0.0 0.0
185 1 77.39434098360657 12.62380918032787 3.10223019677e-05 0.0 0.0 0.0
186 1 80.3112524590164 11.676380983606558 8.96681726074e-05 0.0 0.0 0.0
187 1 2.0940061639344263 14.30437836065574 4.64007634393e-05 0.0 0.0 0.0
188 1 5.36541049180328 14.027329836065576 9.07008426063e-06 0.0 0.0 0.0
189 1 6.899048524590165 14.033136393442623 3.84247290649e-06 0.0 0.0 0.0
190 1 9.474433442622951 14.122203934426231 5.80386881407e-05 0.0 0.0 0.0
191 1 12.084960655737707 14.357192786885246 3.24070352548e-05 0.0 0.0 0.0
192 1 14.645147540983608 14.318364590163936 4.81198677259e-05 0.0 0.0 0.0
193 1 17.492784262295082 14.352497049180329 3.56937732322e-05 0.0 0.0 0.0
194 1 20.273670819672134 14.832522622950822 3.6660153865e-05 0.0 0.0 0.0
195 1 23.06036393442623 15.061149508196722 6.33406995093e-05 0.0 0.0 0.0
196 1 25.764957377049182 15.150974426229508 4.01738825272e-05 0.0 0.0 0.0
197 1 28.50671278688525 15.230448524590166 1.46925485488e-05 0.0 0.0 0.0
198 1 32.0969324590164 14.875390163934426 4.0753584903e-05 0.0 0.0 0.0
199 1 33.6269855737705 14.986674098360657 2.75695817415e-05 0.0 0.0 0.0
200 1 36.202572459016395 15.14521836065574 4.7619202261e-05 0.0 0.0 0.0
201 1 38.71135868852459 14.847367213114756 3.15634824661e-07 0.0 0.0 0.0
202 1 41.29350950819673 14.33750098360656 9.42287006055e-06 0.0 0.0 0.0
203 1 43.71368262295083 13.841267540983608 5.87571178708e-05 0.0 0.0 0.0
204 1 46.231102950819675 14.956076065573772 9.56399734564e-05 0.0 0.0 0.0
205 1 49.91326819672132 14.4561062295082 1.1452483765e-05 0.0 0.0 0.0
206 1 52.54580983606558 14.488521967213117 7.645243989e-05 0.0 0.0 0.0
207 1 55.121901639344266 14.939312786885246 6.08454555279e-05 0.0 0.0 0.0
208 1 57.63790819672132 14.842570491803281 5.15783118493e-05 0.0 0.0 0.0
209 1 59.94437377049181 16.483604590163935 5.72367503756e-05 0.0 0.0 0.0
210 1 63.8408262295082 15.021563934426231 2.60330652638e-05 0.0 0.0 0.0
211 1 65.3964786885246 14.912047213114755 8.95603927197e-05 0.0 0.0 0.0
212 1 68.04830819672131 15.005608524590166 4.86248158447e-06 0.0 0.0 0.0
213 1 70.80465573770492 14.577488524590164 9.6428658377e-05 0.0 0.0 0.0
214 1 73.4888 14.172948196721313 1.87685568769e-05 0.0 0.0 0.0
215 1 76.37137704918034 13.823797377049182 5.58520512696e-05 0.0 0.0 0.0
216 1 78.9873573770492 14.169767213114756 9.37301792584e-05 0.0 0.0 0.0
217 1 82.2435737704918 14.282565901639344 7.54245956924e-05 0.0 0.0 0.0
218 1 0.5088816393442623 16.623062950819673 6.4143848069e-05 0.0 0.0 0.0
219 1 2.958016852459017 16.872441967213117 9.64971054921e-05 0.0 0.0 0.0
220 1 5.39772524590164 16.771205901639345 4.69653223878e-06 0.0 0.0 0.0
221 1 8.06545967213115 16.46613442622951 7.34285773863e-06 0.0 0.0 0.0
222 1 10.754451147540983 16.571813770491804 4.04839605181e-05 0.0 0.0 0.0
223 1 13.421882622950822 16.71596786885246 3.4844246962e-05 0.0 0.0 0.0
224 1 15.99984262295082 16.549950819672134 2.11789565039e-05 0.0 0.0 0.0
225 1 18.61794360655738 16.757118688524592 1.71048908055e-05 0.0 0.0 0.0
226 1 21.43260918032787 17.125405901639347 9.79095657312e-05 0.0 0.0 0.0
227 1 24.156894426229513 17.368321967213117 6.83929076889e-06 0.0 0.0 0.0
228 1 26.81341967213115 17.411441967213115 4.80809923968e-05 0.0 0.0 0.0
229 1 29.560527213114757 17.597453770491803 7.0828196941e-05 0.0 0.0 0.0
230 1 32.19731016393443 17.46142885245902 8.10760587349e-05 0.0 0.0 0.0
231 1 35.01116786885246 17.438202622950822 8.159452842e-05 0.0 0.0 0.0
232 1 37.74499606557377 17.377864918032788 5.09190197245e-05 0.0 0.0 0.0
233 1 40.463424262295085 16.82760524590164 4.41582878711e-05 0.0 0.0 0.0
234 1 43.12540262295083 16.47638426229508 5.613028706e-08 0.0 0.0 0.0
235 1 45.673118032786896 16.427356721311476 1.34510329309e-05 0.0 0.0 0.0
236 1 48.17044262295082 16.59655475409836 7.46931104691e-05 0.0 0.0 0.0
237 1 50.9704655737705 16.747373770491805 7.31825739603e-05 0.0 0.0 0.0
238 1 53.671272131147546 17.027805245901643 4.60770698791e-05 0.0 0.0 0.0
239 1 56.42509508196722 17.308842622950824 6.81378904703e-05 0.0 0.0 0.0
240 1 59.23546885245902 17.869655081967213 4.58352034541e-05 0.0 0.0 0.0
241 1 62.2316524590164 18.1089862295082 9.74423918222e-05 0.0 0.0 0.0
242 1 63.670163934426235 17.603260327868853 1.49845105412e-05 0.0 0.0 0.0
243 1 66.4472131147541 17.388114754098364 5.96896348815e-05 0.0 0.0 0.0
244 1 70.59259016393443 16.599028852459018 9.33140814088e-05 0.0 0.0 0.0
245 1 72.14268852459017 16.584891147540983 9.01941446621e-05 0.0 0.0 0.0
246 1 74.77634098360657 16.146773770491805 6.80845258547e-05 0.0 0.0 0.0
247 1 77.48775081967214 16.273710163934428 9.68980710966e-05 0.0 0.0 0.0
248 1 79.74574426229509 15.512647213114755 8.33159768282e-05 0.0 0.0 0.0
249 1 1.4304327868852462 19.143916721311477 6.12811014141e-05 0.0 0.0 0.0
250 1 4.121448983606558 19.25302950819672 9.25056307701e-05 0.0 0.0 0.0
251 1 6.6903154098360655 18.896910819672133 2.00570336917e-05 0.0 0.0 0.0
252 1 9.41449967213115 18.795220327868854 8.32670579766e-05 0.0 0.0 0.0
253 1 12.097684590163936 18.943312786885247 7.68540159195e-05 0.0 0.0 0.0
254 1 14.668727213114757 19.023140327868855 9.99150887427e-05 0.0 0.0 0.0
255 1 17.098544262295082 19.005013770491807 7.41456278301e-06 0.0 0.0 0.0
256 1 19.65625704918033 19.04071147540984 1.41484438433e-05 0.0 0.0 0.0
257 1 22.46950885245902 19.476354754098363 4.97998999503e-05 0.0 0.0 0.0
258 1 25.46594491803279 19.713009836065577 9.14875907258e-05 0.0 0.0 0.0
259 1 28.246680000000005 19.689076721311476 4.53105610955e-05 0.0 0.0 0.0
260 1 30.99767540983607 19.814902295081968 6.0167078465e-05 0.0 0.0 0.0
261 1 33.73756262295082 19.63626229508197 8.88950504984e-05 0.0 0.0 0.0
262 1 36.52758819672131 19.682563278688527 7.14604014442e-05 0.0 0.0 0.0
263 1 40.27074754098361 18.891003278688526 4.48911816314e-05 0.0 0.0 0.0
264 1 41.80620327868853 18.90776655737705 5.10690889288e-05 0.0 0.0 0.0
265 1 44.21637901639345 18.92402491803279 8.34258312609e-05 0.0 0.0 0.0
266 1 46.66523147540985 18.925994098360658 4.54597873908e-05 0.0 0.0 0.0
267 1 49.2364255737705 18.76856065573771 3.92604523066e-06 0.0 0.0 0.0
268 1 51.94192786885247 19.088173770491803 2.73828824419e-05 0.0 0.0 0.0
269 1 54.646773770491805 19.341238688524594 6.59913785399e-05 0.0 0.0 0.0
270 1 57.2036786885246 19.633283278688523 3.23324198754e-05 0.0 0.0 0.0
271 1 59.68232131147541 20.56712918032787 8.2981128548e-05 0.0 0.0 0.0
272 1 62.39171147540984 20.885328524590165 9.62496210108e-06 0.0 0.0 0.0
273 1 65.04606557377049 19.716544262295084 7.6256033119e-05 0.0 0.0 0.0
274 1 67.33334426229509 18.675049836065575 8.28299884133e-05 0.0 0.0 0.0
275 1 71.15860327868853 19.101251147540985 3.43026270798e-05 0.0 0.0 0.0
276 1 73.78316721311475 18.694691147540986 9.03265187948e-05 0.0 0.0 0.0
277 1 76.2991737704918 18.440818360655737 6.31563102383e-05 0.0 0.0 0.0
278 1 78.95453770491804 18.36831213114754 5.46784410515e-05 0.0 0.0 0.0
279 1 81.48720655737706 18.554172459016392 8.7203884906e-05 0.0 0.0 0.0
280 1 82.61519344262297 21.122337049180327 4.98234697552e-05 0.0 0.0 0.0
281 1 2.6867445901639346 21.460682622950824 5.61362211569e-05 0.0 0.0 0.0
282 1 5.409489836065574 21.430791475409837 7.14267433747e-05 0.0 0.0 0.0
283 1 8.047131147540984 21.069926557377052 8.37586314043e-05 0.0 0.0 0.0
284 1 10.718601967213116 21.14238229508197 2.43418634626e-05 0.0 0.0 0.0
285 1 13.327513442622951 21.377876065573773 2.81272928427e-05 0.0 0.0 0.0
286 1 15.858364590163937 21.5178393442623 5.27884671963e-05 0.0 0.0 0.0
287 1 18.2575331147541 21.40347540983607 4.0360389801e-05 0.0 0.0 0.0
288 1 20.854629508196723 21.305369836065577 2.79616623399e-06 0.0 0.0 0.0
289 1 23.09808131147541 20.88022885245902 7.12474935926e-05 0.0 0.0 0.0
290 1 26.737631475409838 21.840078032786888 8.02609247345e-05 0.0 0.0 0.0
291 1 29.521396065573775 21.93929442622951 4.74728451694e-05 0.0 0.0 0.0
292 1 32.18892852459017 21.93459868852459 1.11909533861e-05 0.0 0.0 0.0
293 1 34.88438295081968 21.857144262295083 1.14789965944e-05 0.0 0.0 0.0
294 1 38.58305901639345 21.721674754098363 4.15553323135e-05 0.0 0.0 0.0
295 1 40.109224262295086 21.56893704918033 1.17792392816e-05 0.0 0.0 0.0
296 1 42.85895737704918 21.471639344262297 6.9179462747e-05 0.0 0.0 0.0
297 1 45.54582819672132 21.4261462295082 9.45828483457e-05 0.0 0.0 0.0
298 1 48.30419540983607 21.166466885245903 6.99324521751e-05 0.0 0.0 0.0
299 1 51.291593442622954 21.547175081967215 2.42491229496e-05 0.0 0.0 0.0
300 1 52.828059016393446 21.389135737704922 9.83124784867e-05 0.0 0.0 0.0
301 1 55.54502295081968 21.825940327868857 7.82860937666e-05 0.0 0.0 0.0
302 1 58.079206557377056 22.323739016393446 3.16390197063e-06 0.0 0.0 0.0
303 1 60.31245901639345 21.95974360655738 6.53665369578e-05 0.0 0.0 0.0
304 1 64.23819672131148 22.310712131147543 4.58260167846e-05 0.0 0.0 0.0
305 1 67.00514754098361 21.493956721311477 8.72159897663e-05 0.0 0.0 0.0
306 1 70.8092 21.301582950819675 2.78673796254e-05 0.0 0.0 0.0
307 1 72.35020983606557 21.17434360655738 2.28248806021e-06 0.0 0.0 0.0
308 1 75.81041311475411 20.817921967213117 6.59853350962e-05 0.0 0.0 0.0
309 1 77.34788852459018 20.680937704918037 1.57986703009e-05 0.0 0.0 0.0
310 1 79.90529836065573 20.87624 8.02549735471e-05 0.0 0.0 0.0
311 1 1.1791300327868854 23.49979409836066 7.72341262998e-07 0.0 0.0 0.0
312 1 3.913968065573771 23.712162622950824 4.69216887645e-05 0.0 0.0 0.0
313 1 7.551251147540984 23.359679344262297 8.0133874585e-05 0.0 0.0 0.0
314 1 9.08564655737705 23.346904918032788 2.00788905636e-05 0.0 0.0 0.0
315 1 11.6570931147541 23.568462950819672 5.53204020531e-05 0.0 0.0 0.0
316 1 14.383549508196722 23.871110819672133 1.58212965689e-05 0.0 0.0 0.0
317 1 17.468043278688526 23.939072786885248 6.87123878983e-05 0.0 0.0 0.0
318 1 20.111996065573774 23.573865573770494 2.82956037344e-05 0.0 0.0 0.0
319 1 22.425530491803283 24.86726360655738 4.92231976369e-05 0.0 0.0 0.0
320 1 25.125276721311476 23.912261639344266 1.12115782355e-05 0.0 0.0 0.0
321 1 27.863901639344267 24.011124590163934 9.2702379005e-05 0.0 0.0 0.0
322 1 30.576725245901642 24.208345573770494 6.92885514008e-05 0.0 0.0 0.0
323 1 33.29348721311476 24.138616393442625 9.169002406e-05 0.0 0.0 0.0
324 1 35.88093967213115 24.331596065573773 8.32518163227e-05 0.0 0.0 0.0
325 1 38.43759213114755 24.135536393442624 9.27090449206e-05 0.0 0.0 0.0
326 1 41.28432 23.835564590163937 7.86685328743e-05 0.0 0.0 0.0
327 1 44.32852131147541 23.8309193442623 9.24401749346e-05 0.0 0.0 0.0
328 1 47.11839540983607 23.58224721311476 8.36663450526e-05 0.0 0.0 0.0
329 1 49.91660065573771 24.01137704918033 4.81911715256e-05 0.0 0.0 0.0
330 1 52.42866885245902 23.820518032786886 4.16276318742e-05 0.0 0.0 0.0
331 1 53.97775737704919 23.821426885245906 2.02677264029e-05 0.0 0.0 0.0
332 1 56.797724590163945 24.408242622950823 8.80062117735e-06 0.0 0.0 0.0
333 1 59.649501639344265 24.659489836065575 6.64382356096e-05 0.0 0.0 0.0
334 1 61.96354098360656 23.878634098360656 4.02055447783e-05 0.0 0.0 0.0
335 1 65.70346885245903 23.923218360655742 7.94356102966e-05 0.0 0.0 0.0
336 1 68.12909508196722 23.871615737704918 6.84708625442e-05 0.0 0.0 0.0
337 1 70.47999344262296 23.867273442622952 6.1570714961e-05 0.0 0.0 0.0
338 1 73.19039344262296 23.7152931147541 3.40795344866e-05 0.0 0.0 0.0
339 1 75.73820983606558 23.53584524590164 7.85213277714e-05 0.0 0.0 0.0
340 1 78.38499016393443 23.201084590163937 5.04384863268e-05 0.0 0.0 0.0
341 1 81.15194098360658 23.268440655737706 1.48575517031e-05 0.0 0.0 0.0
342 1 82.43039344262296 25.646453114754102 3.52907050995e-05 0.0 0.0 0.0
343 1 2.2765643278688525 25.8466531147541 4.39147476623e-05 0.0 0.0 0.0
344 1 4.917048327868853 26.10385836065574 3.68876013957e-05 0.0 0.0 0.0
345 1 7.485258360655738 25.969701639344265 2.97092131955e-05 0.0 0.0 0.0
346 1 10.231103606557378 25.83539344262295 2.70359027589e-05 0.0 0.0 0.0
347 1 12.911763934426231 25.92784393442623 6.77071012296e-05 0.0 0.0 0.0
348 1 15.171676065573772 25.202630163934426 1.78913315934e-05 0.0 0.0 0.0
349 1 18.986230819672134 26.03842098360656 8.04827915786e-05 0.0 0.0 0.0
350 1 21.712182295081966 26.232006557377055 1.97378664008e-05 0.0 0.0 0.0
351 1 24.30513836065574 26.426046557377052 8.76414053245e-05 0.0 0.0 0.0
352 1 26.81927672131148 26.143342950819676 3.44116554653e-05 0.0 0.0 0.0
353 1 29.377140983606562 27.257545573770493 8.68429392823e-05 0.0 0.0 0.0
354 1 32.106475409836065 26.402113442622955 8.48041065475e-05 0.0 0.0 0.0
355 1 34.648535737704925 26.55273049180328 3.21000130421e-05 0.0 0.0 0.0
356 1 37.325308196721316 26.56202098360656 2.82133983048e-06 0.0 0.0 0.0
357 1 39.88908 26.062556065573776 9.42775999875e-05 0.0 0.0 0.0
358 1 42.03139672131148 25.200408524590166 4.60820127843e-05 0.0 0.0 0.0
359 1 45.51002950819672 25.873363278688526 3.92478848986e-05 0.0 0.0 0.0
360 1 48.2600655737705 25.974144918032792 9.16692400024e-05 0.0 0.0 0.0
361 1 50.65135737704919 27.164893114754104 6.51207877144e-05 0.0 0.0 0.0
362 1 52.927022950819676 27.12096524590164 7.94565844136e-05 0.0 0.0 0.0
363 1 55.40718032786886 26.220746885245905 4.70637064939e-05 0.0 0.0 0.0
364 1 58.242295081967214 26.691330491803278 1.67686123783e-05 0.0 0.0 0.0
365 1 61.415200000000006 26.8099862295082 9.77536748614e-05 0.0 0.0 0.0
366 1 64.97436721311476 26.29365704918033 3.83917353897e-05 0.0 0.0 0.0
367 1 66.50628852459018 26.262907540983612 3.45397709951e-05 0.0 0.0 0.0
368 1 69.06975737704919 26.346219016393444 1.28402611272e-05 0.0 0.0 0.0
369 1 71.83973770491804 26.044076065573776 2.68791703155e-05 0.0 0.0 0.0
370 1 74.5789180327869 26.00575278688525 3.78059677275e-05 0.0 0.0 0.0
371 1 77.19338360655739 25.73158229508197 4.16225230269e-05 0.0 0.0 0.0
372 1 79.82905573770493 25.45357442622951 3.26083848156e-05 0.0 0.0 0.0
373 1 0.7641379016393444 28.14817049180328 8.47985998258e-05 0.0 0.0 0.0
374 1 3.533315409836066 28.26571540983607 8.29849157911e-05 0.0 0.0 0.0
375 1 6.285674098360657 28.382856393442626 5.33325247524e-05 0.0 0.0 0.0
376 1 9.00132524590164 28.145292459016396 7.65977733756e-05 0.0 0.0 0.0
377 1 11.717885245901641 28.162661639344265 5.55428272348e-05 0.0 0.0 0.0
378 1 14.522704918032789 28.038704262295084 5.34119687918e-05 0.0 0.0 0.0
379 1 17.334139016393443 28.124136393442626 9.33581437136e-05 0.0 0.0 0.0
380 1 20.071905573770493 28.380129836065578 1.79795111388e-05 0.0 0.0 0.0
381 1 22.845824262295086 28.662278032786887 2.09760537707e-05 0.0 0.0 0.0
382 1 25.676293770491807 28.703226885245904 6.88080489899e-05 0.0 0.0 0.0
383 1 29.453636065573775 28.77144131147541 9.62237890223e-05 0.0 0.0 0.0
384 1 30.970409836065578 28.83420262295082 7.21315294868e-05 0.0 0.0 0.0
385 1 33.39532918032788 28.843846557377052 8.83396298765e-05 0.0 0.0 0.0
386 1 36.123704262295085 28.803453114754102 7.08706532505e-05 0.0 0.0 0.0
387 1 38.78618754098361 28.61491672131148 8.44137204628e-06 0.0 0.0 0.0
388 1 41.25367147540984 28.139889836065578 4.65387190444e-05 0.0 0.0 0.0
389 1 43.82496655737705 28.221888524590167 9.60587350805e-05 0.0 0.0 0.0
390 1 46.7139055737705 28.098335081967214 3.46348655142e-05 0.0 0.0 0.0
391 1 49.336954754098365 28.763261639344265 3.58863819611e-05 0.0 0.0 0.0
392 1 51.76167213114755 29.639142950819675 7.85779322592e-06 0.0 0.0 0.0
393 1 54.245868852459026 28.89196524590164 9.36007823508e-05 0.0 0.0 0.0
394 1 56.74218360655738 28.47152 3.86934826908e-05 0.0 0.0 0.0
395 1 59.09611147540984 27.98392065573771 7.85671781176e-05 0.0 0.0 0.0
396 1 62.61892459016394 29.156693770491806 8.96804729798e-05 0.0 0.0 0.0
397 1 64.99910819672132 29.036927213114758 7.92657341042e-05 0.0 0.0 0.0
398 1 67.57267540983608 28.67793049180328 1.34962163892e-05 0.0 0.0 0.0
399 1 70.378 28.36543672131148 7.61360725373e-05 0.0 0.0 0.0
400 1 73.19140327868853 28.263695737704918 2.64439285064e-06 0.0 0.0 0.0
401 1 75.7336655737705 28.228200000000005 9.10215787762e-05 0.0 0.0 0.0
402 1 79.3680655737705 27.717626885245902 3.31959762406e-06 0.0 0.0 0.0
403 1 80.90857049180329 27.8818262295082 8.57563960974e-06 0.0 0.0 0.0
404 1 82.2864918032787 30.464633442622954 2.54629914689e-07 0.0 0.0 0.0
405 1 2.2810379016393445 30.40480065573771 8.26330567878e-05 0.0 0.0 0.0
406 1 4.954780852459018 30.53724065573771 2.90613907594e-05 0.0 0.0 0.0
407 1 7.663898360655739 30.51058098360656 2.87351564937e-05 0.0 0.0 0.0
408 1 10.344003278688525 30.432066229508198 5.71942058664e-05 0.0 0.0 0.0
409 1 13.067985573770493 30.30699803278689 6.9165905153e-05 0.0 0.0 0.0
410 1 15.860838688524591 30.30972459016394 3.34957658784e-05 0.0 0.0 0.0
411 1 18.606229508196723 30.535422950819676 2.18738138529e-05 0.0 0.0 0.0
412 1 21.314256393442623 30.726786885245904 7.42878600144e-05 0.0 0.0 0.0
413 1 24.092163934426235 30.83357704918033 4.12484428156e-05 0.0 0.0 0.0