ITEM: TIMESTEP
0
ITEM: NUMBER OF ATOMS
2232
ITEM: BOX BOUNDS xy xz yz pp pp pp
0.0 82.68810555352132 0
0.0 83.16 0
-10.0 10.0 0
ITEM: ATOMS id type x y z vx vy vz
1 1 1.5836905573770494 1.0975857704918033 4.01562862253e-05 0.0 0.0 0.0
2 1 4.271237967213115 0.9406875409836067 8.12120477442e-06 0.0 0.0 0.0
3 1 6.932625573770492 0.6548332459016394 8.06942193528e-05 0.0 0.0 0.0
4 1 9.42747606557377 1.762497180327869 1.62073933381e-05 0.0 0.0 0.0
5 1 12.292532459016396 0.991032918032787 4.55909715614e-05 0.0 0.0 0.0
6 1 15.038579672131148 1.1016503606557377 1.51797634436e-05 0.0 0.0 0.0
7 1 17.859152786885247 1.164174360655738 9.51754048606e-05 0.0 0.0 0.0
8 1 21.51162885245902 0.46899563934426236 5.00440660204e-05 0.0 0.0 0.0
9 1 23.0462262295082 0.30410001311475415 1.9058861163e-05 0.0 0.0 0.0
10 1 25.74773967213115 0.5928444590163935 8.84344679309e-05 0.0 0.0 0.0
11 1 28.46359278688525 0.7623454426229509 1.32375702738e-05 0.0 0.0 0.0
12 1 30.980962622950823 0.3729309442622951 3.65023518278e-05 0.0 0.0 0.0
13 1 33.750740983606555 0.40754913442622953 2.41331791272e-05 0.0 0.0 0.0
14 1 36.23882557377049 0.8393201967213115 8.45981119791e-06 0.0 0.0 0.0
15 1 38.59992327868853 0.7117274098360656 3.3100434578e-05 0.0 0.0 0.0
16 1 40.96773639344263 2.065261180327869 7.5460519394e-05 0.0 0.0 0.0
17 1 43.812747540983615 0.8640611803278689 6.82602445883e-05 0.0 0.0 0.0
18 1 46.353091147540994 1.890620131147541 5.84301242218e-06 0.0 0.0 0.0
19 1 49.15493180327869 0.8511756721311476 5.57066281875e-05 0.0 0.0 0.0
20 1 51.81872786885246 0.2985893377049181 3.87583388167e-06 0.0 0.0 0.0
21 1 54.417540983606564 1.4078932459016396 9.43610174943e-06 0.0 0.0 0.0
22 1 57.177422950819675 0.3544943672131148 4.2281243792e-05 0.0 0.0 0.0
23 1 59.904990163934436 0.3783992065573771 9.64623099906e-05 0.0 0.0 0.0
24 1 62.579036065573774 0.7119243278688525 5.26346644574e-05 0.0 0.0 0.0
25 1 65.15411803278688 0.7101874098360655 4.192494344e-05 0.0 0.0 0.0
26 1 67.80392786885247 0.2603993573770492 1.88169495868e-05 0.0 0.0 0.0
27 1 70.57138360655739 83.13778360655739 2.26535812339e-05 0.0 0.0 0.0
28 1 73.36105573770493 0.5797872786885246 1.71531967402e-05 0.0 0.0 0.0
29 1 76.32038032786886 1.0417569836065574 3.05029838029e-06 0.0 0.0 0.0
30 1 79.02472131147542 0.9982280000000001 1.30124903359e-05 0.0 0.0 0.0
31 1 81.62504918032788 1.1606399344262297 2.13615941156e-05 0.0 0.0 0.0
32 1 0.3451932721311476 3.4951688524590168 3.37132158469e-05 0.0 0.0 0.0
33 1 3.0385714754098365 3.3639356065573778 9.10438489017e-05 0.0 0.0 0.0
34 1 5.834529836065575 3.1731068852459017 2.79371286089e-05 0.0 0.0 0.0
35 1 8.615820327868853 3.0656249836065577 6.010352964e-05 0.0 0.0 0.0
36 1 11.217158032786887 3.309056065573771 9.97358326353e-05 0.0 0.0 0.0
37 1 13.756996721311475 3.3127369180327872 4.82216664467e-05 0.0 0.0 0.0
38 1 16.35788 3.3307019016393444 8.10441518628e-05 0.0 0.0 0.0
39 1 19.01960590163935 3.4025365901639346 9.83112696385e-05 0.0 0.0 0.0
40 1 21.688350163934427 3.090477049180328 1.14698311629e-05 0.0 0.0 0.0
41 1 24.39057049180328 2.73058662295082 7.96643315697e-05 0.0 0.0 0.0
42 1 27.133083278688527 2.9737551475409836 4.84887799342e-05 0.0 0.0 0.0
43 1 30.77980327868853 2.677024918032787 2.72338937751e-06 0.0 0.0 0.0
44 1 32.33661704918033 2.5307501639344263 9.61514561275e-05 0.0 0.0 0.0
45 1 34.580977704918034 4.115152655737705 7.52391493361e-05 0.0 0.0 0.0
46 1 37.487235409836074 3.4081260327868854 3.94291696294e-06 0.0 0.0 0.0
47 1 40.12629049180328 3.382405508196722 5.7939271084e-05 0.0 0.0 0.0
48 1 42.825430819672135 3.1775905573770498 1.71138030041e-05 0.0 0.0 0.0
49 1 45.612174426229515 3.2390744262295086 2.60956627605e-05 0.0 0.0 0.0
50 1 48.337923934426236 3.1887441967213115 6.38268792902e-05 0.0 0.0 0.0
51 1 50.99924590163935 2.778059016393443 6.53054067056e-05 0.0 0.0 0.0
52 1 53.69904262295083 2.763083147540984 5.32211225941e-06 0.0 0.0 0.0
53 1 56.242819672131155 2.818548393442623 1.03898340804e-05 0.0 0.0 0.0
54 1 58.72095737704919 2.6568382950819673 2.34436999632e-05 0.0 0.0 0.0
55 1 61.40156721311476 2.843647868852459 4.93852134616e-05 0.0 0.0 0.0
56 1 64.08116721311477 3.08393331147541 4.26176414558e-05 0.0 0.0 0.0
57 1 66.74107540983607 2.7117178360655743 8.56283613717e-05 0.0 0.0 0.0
58 1 69.39340983606559 2.342844918032787 8.69694636983e-05 0.0 0.0 0.0
59 1 71.79934426229508 2.4131699016393444 5.10893042342e-05 0.0 0.0 0.0
60 1 73.94423606557378 2.0068623606557376 4.47125366822e-05 0.0 0.0 0.0
61 1 77.78413770491804 3.2532979672131153 1.88236337097e-06 0.0 0.0 0.0
62 1 80.37638688524592 3.448968852459017 9.36271366108e-05 0.0 0.0 0.0
63 1 1.6659972459016394 5.7862091803278695 4.16052615089e-05 0.0 0.0 0.0
64 1 4.428403803278689 5.521127213114754 8.32875277174e-05 0.0 0.0 0.0
65 1 7.979421639344263 5.21484393442623 7.11539581256e-05 0.0 0.0 0.0
66 1 9.51457442622951 5.44892393442623 9.61203017054e-05 0.0 0.0 0.0
67 1 12.281979672131149 5.696030819672132 8.20178855574e-06 0.0 0.0 0.0
68 1 15.054282622950822 5.699464262295082 1.31226285097e-05 0.0 0.0 0.0
69 1 17.681522622950823 5.669169180327869 3.47654249159e-05 0.0 0.0 0.0
70 1 20.44322229508197 5.4944675409836075 6.21387056915e-06 0.0 0.0 0.0
71 1 23.89979016393443 5.013018098360656 8.07515463486e-05 0.0 0.0 0.0
72 1 25.442870163934426 5.065893114754099 7.29487315915e-05 0.0 0.0 0.0
73 1 27.913484590163936 5.4439757377049185 8.04403419229e-05 0.0 0.0 0.0
74 1 30.6483731147541 5.292146885245902 6.57918192382e-05 0.0 0.0 0.0
75 1 33.552055737704926 5.292752786885247 4.95324283065e-05 0.0 0.0 0.0
76 1 36.094469508196724 5.804992131147541 5.38342417278e-05 0.0 0.0 0.0
77 1 39.06757836065574 5.873862950819673 4.20168601072e-05 0.0 0.0 0.0
78 1 41.81993704918033 5.468464262295082 6.94406890482e-05 0.0 0.0 0.0
79 1 44.306203934426236 6.283200000000001 9.88538565704e-05 0.0 0.0 0.0
80 1 47.17883409836066 5.4008052459016405 2.6159267569e-06 0.0 0.0 0.0
81 1 49.96128590163934 5.219943606557377 8.87827321788e-05 0.0 0.0 0.0
82 1 52.35646557377049 5.0445552786885255 1.64453237766e-05 0.0 0.0 0.0
83 1 54.824000000000005 5.140570491803278 6.16008588052e-05 0.0 0.0 0.0
84 1 57.395547540983614 5.173289180327869 5.24684720555e-05 0.0 0.0 0.0
85 1 59.96457049180328 5.040733049180328 2.95168131594e-05 0.0 0.0 0.0
86 1 62.656793442622956 5.297196065573771 4.74125844011e-05 0.0 0.0 0.0
87 1 66.57344262295082 4.7914196721311475 9.93264363146e-05 0.0 0.0 0.0
88 1 68.1179868852459 4.780377114754098 1.12549746272e-05 0.0 0.0 0.0
89 1 70.72336393442623 4.876089377049181 9.38764105925e-05 0.0 0.0 0.0
90 1 73.24896393442623 4.803815409836066 3.53760083033e-05 0.0 0.0 0.0
91 1 75.98208524590166 5.054885901639345 5.21783602693e-05 0.0 0.0 0.0
92 1 78.75711475409837 5.691335081967214 8.03002097502e-05 0.0 0.0 0.0
93 1 81.5432524590164 5.82660262295082 6.61684616551e-05 0.0 0.0 0.0
94 1 0.02317215278688525 8.061268852459017 8.98441296146e-06 0.0 0.0 0.0
95 1 3.708976393442623 7.8120918032786895 1.0830097294e-05 0.0 0.0 0.0
96 1 5.253924590163935 7.9307475409836075 5.01077566665e-05 0.0 0.0 0.0
97 1 7.861018360655738 7.942209180327869 4.26534841039e-05 0.0 0.0 0.0
98 1 10.767478032786885 7.808456393442624 9.45219606543e-05 0.0 0.0 0.0
99 1 13.674392131147542 7.929030819672132 6.60569426811e-05 0.0 0.0 0.0
100 1 16.52268524590164 8.042788852459017 3.3288185596e-05 0.0 0.0 0.0
101 1 19.567038032786886 7.697778360655739 9.30955448558e-05 0.0 0.0 0.0
102 1 21.08002491803279 7.611740327868853 5.52631299248e-05 0.0 0.0 0.0
103 1 23.58679147540984 7.942865573770493 5.17358905174e-05 0.0 0.0 0.0
104 1 26.542329180327872 7.739181639344263 3.87900905235e-05 0.0 0.0 0.0
105 1 29.323114754098366 7.5934118032786895 8.62788193864e-05 0.0 0.0 0.0
106 1 32.05053049180328 7.448550819672132 5.42110019484e-05 0.0 0.0 0.0
107 1 34.60612262295082 7.867430819672132 6.67716550964e-05 0.0 0.0 0.0
108 1 36.835891147540984 7.155849836065574 6.26116435338e-05 0.0 0.0 0.0
109 1 40.810353442622954 7.851475409836067 6.60692128906e-05 0.0 0.0 0.0
110 1 43.64728590163935 7.65536524590164 8.61795005512e-05 0.0 0.0 0.0
111 1 46.18586229508197 7.532821639344263 8.46591447515e-05 0.0 0.0 0.0
112 1 48.90035213114755 7.4173973770491815 2.39345510028e-05 0.0 0.0 0.0
113 1 51.47639344262296 7.603308196721312 8.77900471309e-05 0.0 0.0 0.0
114 1 53.771750819672135 7.502880000000001 1.9073902274e-05 0.0 0.0 0.0
115 1 56.124668852459024 8.578860327868854 3.14452823256e-05 0.0 0.0 0.0
116 1 58.83557377049181 7.473190819672133 9.83329310211e-06 0.0 0.0 0.0
117 1 61.347036065573775 7.405834754098362 6.73174888449e-05 0.0 0.0 0.0
118 1 63.40003278688525 6.658253114754099 4.34552215387e-05 0.0 0.0 0.0
119 1 67.03443278688526 7.5335790163934435 6.13076588502e-05 0.0 0.0 0.0
120 1 69.62617704918033 7.191497049180329 9.63622734292e-05 0.0 0.0 0.0
121 1 72.2568 7.273192786885247 7.52652022601e-05 0.0 0.0 0.0
122 1 74.66374426229508 7.156960655737706 2.7636205088e-05 0.0 0.0 0.0
123 1 76.91113442622952 8.481916065573772 3.8290938789e-05 0.0 0.0 0.0
124 1 79.87853770491803 8.022996065573771 9.15754811356e-05 0.0 0.0 0.0
125 1 0.9568348196721312 10.43973573770492 6.47524305458e-05 0.0 0.0 0.0
126 1 3.465903803278689 10.535064262295082 5.96875832368e-05 0.0 0.0 0.0
127 1 6.814676721311477 10.30492262295082 4.8106365913e-05 0.0 0.0 0.0
128 1 9.541940983606558 9.989298360655738 2.55299482012e-05 0.0 0.0 0.0
129 1 12.211745573770493 9.959104262295083 3.0534623303e-05 0.0 0.0 0.0
130 1 15.651449180327871 10.025299016393443 6.15452937855e-05 0.0 0.0 0.0
131 1 17.088647868852462 10.551272131147542 2.68737196324e-05 0.0 0.0 0.0
132 1 20.451048524590167 10.105328524590165 4.05069279254e-05 0.0 0.0 0.0
133 1 21.998268852459017 10.099067540983608 5.03183461051e-05 0.0 0.0 0.0
134 1 24.26393704918033 9.333056393442625 5.49000225857e-05 0.0 0.0 0.0
135 1 27.923986885245906 9.83676262295082 9.90879724231e-05 0.0 0.0 0.0
136 1 30.534211147540987 9.752643278688526 5.73356553211e-05 0.0 0.0 0.0
137 1 33.23991540983607 10.02545049180328 9.67601300077e-05 0.0 0.0 0.0
138 1 36.37520393442623 9.967081967213115 6.90597213026e-05 0.0 0.0 0.0
139 1 38.55811606557377 8.881053770491803 9.34528921836e-05 0.0 0.0 0.0
140 1 42.16080721311476 9.811314754098362 1.42931560264e-05 0.0 0.0 0.0
141 1 45.715985573770496 9.718864262295083 5.83616254353e-05 0.0 0.0 0.0
142 1 47.227205245901644 9.611013770491805 6.71201535995e-05 0.0 0.0 0.0
143 1 49.78794754098361 9.80560918032787 4.04432614187e-05 0.0 0.0 0.0
144 1 52.43674754098361 10.145368524590165 3.82643892096e-05 0.0 0.0 0.0
145 1 55.50412459016394 9.974554754098362 7.26197084941e-05 0.0 0.0 0.0
146 1 58.13424262295082 9.872106885245902 5.98032943924e-05 0.0 0.0 0.0
147 1 60.573501639344265 9.779504918032789 7.85377192381e-05 0.0 0.0 0.0
148 1 62.96832786885246 9.582889836065574 1.55304596234e-05 0.0 0.0 0.0
149 1 65.73426885245901 9.821312131147542 2.13971809646e-06 0.0 0.0 0.0
150 1 68.37499016393444 9.686448524590165 9.03716588636e-05 0.0 0.0 0.0
151 1 70.94350819672131 9.577891147540985 5.1746648482e-05 0.0 0.0 0.0
152 1 73.51707540983608 9.790007213114754 6.04672862043e-05 0.0 0.0 0.0
153 1 76.21586229508198 9.858322622950821 9.4418782847e-05 0.0 0.0 0.0
154 1 78.48698360655739 11.368532459016395 7.6366393051e-05 0.0 0.0 0.0
155 1 81.16961311475411 10.273213770491804 4.41048823411e-05 0.0 0.0 0.0
156 1 82.63892459016395 12.768316721311477 7.35225628968e-05 0.0 0.0 0.0
157 1 2.4138767868852464 12.843145573770492 3.70031241333e-06 0.0 0.0 0.0
158 1 4.413872262295082 11.773173770491805 2.73899646537e-05 0.0 0.0 0.0
159 1 8.296863606557377 12.366654426229509 8.14781677717e-05 0.0 0.0 0.0
160 1 11.497185573770492 12.154437377049181 7.59009989649e-05 0.0 0.0 0.0
161 1 12.987754098360657 12.479756065573772 6.57639302901e-05 0.0 0.0 0.0
162 1 15.393234098360656 12.726560000000003 5.64210981295e-05 0.0 0.0 0.0
163 1 17.55610098360656 12.032550163934427 5.28177648015e-05 0.0 0.0 0.0
164 1 21.21120262295082 12.835723278688524 3.29377123743e-05 0.0 0.0 0.0
165 1 23.760180327868852 12.205888524590165 9.47905049734e-05 0.0 0.0 0.0
166 1 26.397013770491807 12.025834754098362 6.73335939308e-05 0.0 0.0 0.0
167 1 29.113927213114756 12.121870163934428 6.55175558235e-05 0.0 0.0 0.0
168 1 31.838565901639345 12.099956721311477 7.98759396962e-05 0.0 0.0 0.0
169 1 34.10554688524591 11.303297049180328 7.83658078399e-05 0.0 0.0 0.0
170 1 37.92954360655738 11.895060983606559 9.67677323621e-05 0.0 0.0 0.0
171 1 41.15258688524591 12.044617704918034 2.47774454857e-05 0.0 0.0 0.0
172 1 42.6589593442623 12.311466885245903 5.10857592333e-05 0.0 0.0 0.0
173 1 45.17324918032787 12.286372459016395 3.88170718935e-05 0.0 0.0 0.0
174 1 47.90788524590164 11.946108196721314 9.74831931777e-06 0.0 0.0 0.0
175 1 50.594301639344266 12.172210491803279 6.07684050264e-05 0.0 0.0 0.0
176 1 53.08051803278689 11.563380327868853 4.04390669711e-05 0.0 0.0 0.0
177 1 56.7260262295082 12.172260983606558 3.33096245524e-05 0.0 0.0 0.0
178 1 59.38340983606558 12.253249836065576 8.47183675126e-05 0.0 0.0 0.0
179 1 61.77217704918033 12.19447737704918 2.35323213174e-05 0.0 0.0 0.0
180 1 64.41188852459017 11.87158229508197 3.23739684106e-05 0.0 0.0 0.0
181 1 67.20307540983607 12.067641967213117 3.59172318552e-05 0.0 0.0 0.0
182 1 69.80744262295083 12.002204590163936 7.42847235647e-06 0.0 0.0 0.0
183 1 72.07553442622952 13.307266229508198 7.21612081771e-05 0.0 0.0 0.0
184 1 74.7829049180328 12.221591475409838 2.71851910032e-05 0.0 0.0 0.0
185 1 77.59832786885246 12.612448524590164 1.16095644856e-05 0.0 0.0 0.0
186 1 80.1804786885246 12.805630163934428 6.69398371583e-05 0.0 0.0 0.0
187 1 1.4674382295081967 15.219188852459018 2.70753293978e-05 0.0 0.0 0.0
188 1 4.007302163934426 14.801419672131148 2.57959764497e-05 0.0 0.0 0.0
189 1 6.603318032786886 14.34552918032787 1.30046110595e-05 0.0 0.0 0.0
190 1 9.238889180327869 14.886750819672132 8.63856178809e-05 0.0 0.0 0.0
191 1 11.744393442622952 14.91224918032787 6.63398330194e-05 0.0 0.0 0.0
192 1 14.406624262295082 15.043628852459017 9.23360090083e-05 0.0 0.0 0.0
193 1 17.130000655737707 14.89684918032787 6.80228331849e-05 0.0 0.0 0.0
194 1 19.901697704918035 15.202223606557379 5.1490067714e-05 0.0 0.0 0.0
195 1 22.619923934426232 14.863827540983607 3.61112728966e-05 0.0 0.0 0.0
196 1 25.24529573770492 14.49872131147541 5.17806733918e-05 0.0 0.0 0.0
197 1 27.861528524590167 14.348255737704921 1.8665725217e-05 0.0 0.0 0.0
198 1 30.68417180327869 14.328866885245903 6.42559597618e-05 0.0 0.0 0.0
199 1 33.454202622950824 14.141340327868855 3.99051090138e-05 0.0 0.0 0.0
200 1 36.11749377049181 14.103118032786886 7.52465571109e-05 0.0 0.0 0.0
201 1 38.62840065573771 14.582992131147543 6.77423125727e-05 0.0 0.0 0.0
202 1 41.17763081967214 14.837824262295085 5.93931748863e-05 0.0 0.0 0.0
203 1 44.76153901639345 14.434647213114756 9.79229834124e-05 0.0 0.0 0.0
204 1 46.28659344262295 14.240455737704918 8.29655983904e-05 0.0 0.0 0.0
205 1 49.05258491803279 14.25812786885246 9.95414614067e-05 0.0 0.0 0.0
206 1 51.35319344262296 13.490551475409838 9.03145700793e-06 0.0 0.0 0.0
207 1 54.883075409836074 14.001023606557379 2.84351136025e-06 0.0 0.0 0.0
208 1 57.52935081967214 14.371078032786887 9.82176177107e-05 0.0 0.0 0.0
209 1 60.07262295081968 14.664687868852461 4.33465192058e-05 0.0 0.0 0.0
210 1 63.76155409836066 14.205666885245902 3.87592728853e-05 0.0 0.0 0.0
211 1 65.29196065573771 14.053282622950821 8.3262016159e-06 0.0 0.0 0.0
212 1 67.96600655737706 14.382691147540985 7.59528383005e-05 0.0 0.0 0.0
213 1 71.38480655737705 14.711140327868854 7.57723879616e-05 0.0 0.0 0.0
214 1 73.82608524590165 14.832472131147544 6.82765042459e-05 0.0 0.0 0.0
215 1 76.2840262295082 14.557392786885247 6.43867514244e-05 0.0 0.0 0.0
216 1 78.90758032786886 15.030551475409837 4.09316609846e-06 0.0 0.0 0.0
217 1 81.5164918032787 15.21646229508197 7.08722880605e-05 0.0 0.0 0.0
218 1 0.10659425573770492 17.537015081967215 1.89569972851e-05 0.0 0.0 0.0
219 1 2.7882432131147543 17.430982295081968 8.45332538133e-05 0.0 0.0 0.0
220 1 6.1554052459016395 16.723238688524592 7.13817791422e-05 0.0 0.0 0.0
221 1 7.689699672131148 16.83411868852459 7.82147165641e-05 0.0 0.0 0.0
222 1 10.484622950819674 17.29086754098361 7.38813685301e-05 0.0 0.0 0.0
223 1 13.15937573770492 17.28894885245902 1.61983740255e-05 0.0 0.0 0.0
224 1 15.845236721311476 17.24774754098361 5.36394702397e-05 0.0 0.0 0.0
225 1 18.6186 17.283596721311476 9.23099061108e-05 0.0 0.0 0.0
226 1 21.363182950819674 17.313639344262295 3.41668782223e-05 0.0 0.0 0.0
227 1 24.122004590163936 17.03214754098361 1.91564068561e-05 0.0 0.0 0.0
228 1 26.840079344262296 16.787817704918037 2.33639241203e-05 0.0 0.0 0.0
229 1 29.457019016393446 16.47754557377049 7.25926478793e-05 0.0 0.0 0.0
230 1 32.163581639344265 16.44997704918033 5.40502756522e-05 0.0 0.0 0.0
231 1 34.68928262295082 16.479868196721313 8.46880755597e-06 0.0 0.0 0.0
232 1 37.19074754098361 16.730913442622953 5.48778997475e-05 0.0 0.0 0.0
233 1 39.77880590163935 17.081225573770496 7.37828042439e-05 0.0 0.0 0.0
234 1 42.47012 17.41164393442623 2.42854165353e-05 0.0 0.0 0.0
235 1 45.103923934426234 16.694559344262295 3.03659792421e-05 0.0 0.0 0.0
236 1 47.942522622950825 16.386862295081972 7.92922683951e-05 0.0 0.0 0.0
237 1 50.58016393442623 16.285373770491805 7.54660555202e-05 0.0 0.0 0.0
238 1 53.345095081967216 16.101331147540986 8.46650098266e-05 0.0 0.0 0.0
239 1 55.973698360655746 16.424175737704918 3.70233542264e-05 0.0 0.0 0.0
240 1 57.98680655737705 17.876168524590167 1.78798469744e-05 0.0 0.0 0.0
241 1 60.8340393442623 17.053303606557378 2.42597018721e-05 0.0 0.0 0.0
242 1 63.50758032786886 16.80286426229508 4.5790256851e-05 0.0 0.0 0.0
243 1 66.24171147540984 16.466841311475413 9.3704882923e-05 0.0 0.0 0.0
244 1 68.60321311475411 15.793381639344263 1.24080926092e-05 0.0 0.0 0.0
245 1 72.11794754098361 17.175897704918036 9.95772179674e-06 0.0 0.0 0.0
246 1 75.80839344262296 16.99579344262295 6.41710048603e-05 0.0 0.0 0.0
247 1 77.34334426229509 17.052798688524593 9.63978726796e-05 0.0 0.0 0.0
248 1 79.98255081967214 17.435324590163937 4.73744910326e-05 0.0 0.0 0.0
249 1 1.2882832131147544 19.795311475409836 2.62435174685e-05 0.0 0.0 0.0
250 1 4.073946295081968 19.94729180327869 8.44777179743e-05 0.0 0.0 0.0
251 1 6.464718032786886 19.28357704918033 6.23435304378e-05 0.0 0.0 0.0
252 1 9.180268196721313 19.185521967213116 4.85317109161e-05 0.0 0.0 0.0
253 1 11.87648 19.596979672131148 9.99730531511e-05 0.0 0.0 0.0
254 1 14.507910819672132 19.585921967213118 3.22709597981e-05 0.0 0.0 0.0
255 1 17.144592786885248 19.492360655737706 1.00555476907e-05 0.0 0.0 0.0
256 1 19.866050491803282 19.602180327868854 3.76599464088e-05 0.0 0.0 0.0
257 1 23.037440655737708 19.413946885245903 7.02632454902e-05 0.0 0.0 0.0
258 1 25.79399016393443 19.178099672131147 5.40967746662e-05 0.0 0.0 0.0
259 1 29.120188196721312 18.71837180327869 8.29215939264e-05 0.0 0.0 0.0
260 1 30.66382360655738 18.704234098360658 2.51172106334e-05 0.0 0.0 0.0
261 1 33.26975606557377 18.89473967213115 2.36953128731e-05 0.0 0.0 0.0
262 1 35.850745573770496 19.040610491803278 7.23520573341e-05 0.0 0.0 0.0
263 1 38.36776196721312 19.247929836065577 4.56405896786e-05 0.0 0.0 0.0
264 1 41.008230819672136 19.485039344262297 1.781595213e-05 0.0 0.0 0.0
265 1 43.54796852459017 18.542357377049182 7.08156265556e-05 0.0 0.0 0.0
266 1 46.50805049180328 18.584316065573773 1.70516619714e-05 0.0 0.0 0.0
267 1 48.96639540983607 18.622083934426232 8.45851192168e-05 0.0 0.0 0.0
268 1 51.66270819672132 18.374371147540984 6.57964071463e-05 0.0 0.0 0.0
269 1 54.23324590163935 18.618953442622953 7.34763732836e-06 0.0 0.0 0.0
270 1 57.026957377049186 19.079085245901638 2.96772212845e-06 0.0 0.0 0.0
271 1 59.577803278688535 19.38203606557377 6.63636066023e-05 0.0 0.0 0.0
272 1 62.300321311475415 19.180927213114757 3.89858961531e-05 0.0 0.0 0.0
273 1 65.07131147540984 18.869443278688525 4.21630426452e-05 0.0 0.0 0.0
274 1 67.51309508196722 18.612540983606557 2.239833626e-05 0.0 0.0 0.0
275 1 70.06040655737705 18.572097049180332 7.67761694456e-05 0.0 0.0 0.0
276 1 72.42342295081968 18.683280000000003 8.06628393245e-05 0.0 0.0 0.0
277 1 75.95330491803279 19.76173442622951 2.97654795849e-05 0.0 0.0 0.0
278 1 78.54201967213116 19.565573770491806 1.51039813435e-05 0.0 0.0 0.0
279 1 81.20546229508199 19.640402622950823 1.07497662449e-05 0.0 0.0 0.0
280 1 82.61216393442625 21.884813770491807 2.61363329903e-05 0.0 0.0 0.0
281 1 2.0010103606557377 21.162982950819675 3.53753886536e-05 0.0 0.0 0.0
282 1 5.716732459016394 21.961460327868856 6.66767770857e-05 0.0 0.0 0.0
283 1 8.269900983606558 21.40115278688525 3.16880544554e-05 0.0 0.0 0.0
284 1 10.601612459016394 22.79356524590164 3.10876870255e-05 0.0 0.0 0.0
285 1 13.344680655737706 21.946565245901642 8.5994625095e-05 0.0 0.0 0.0
286 1 15.983836721311478 21.878754754098363 7.73917544929e-05 0.0 0.0 0.0
287 1 18.57593442622951 21.78332524590164 8.94995380497e-05 0.0 0.0 0.0
288 1 20.68846098360656 20.91400786885246 1.50195398129e-05 0.0 0.0 0.0
289 1 24.514982295081968 21.486685901639348 7.24438459737e-05 0.0 0.0 0.0
290 1 26.964440655737707 21.703194754098366 8.3425836674e-05 0.0 0.0 0.0
291 1 29.237076721311478 21.491634098360656 3.96268560168e-05 0.0 0.0 0.0
292 1 31.95131409836066 21.182876721311477 8.65455272499e-05 0.0 0.0 0.0
293 1 34.59753901639345 21.354296393442624 5.88270460148e-05 0.0 0.0 0.0
294 1 37.15126295081968 21.568381639344263 9.05628540103e-05 0.0 0.0 0.0
295 1 39.62803737704918 21.66916327868853 5.26963618704e-05 0.0 0.0 0.0
296 1 42.32652131147542 21.825435409836068 4.41109973762e-05 0.0 0.0 0.0
297 1 44.85762491803279 21.233015081967213 4.59445637456e-05 0.0 0.0 0.0
298 1 47.669260983606556 21.08810360655738 2.47197738393e-05 0.0 0.0 0.0
299 1 50.37456131147541 20.750616393442627 8.72460804463e-05 0.0 0.0 0.0
300 1 52.54429508196722 22.00851868852459 1.41449022031e-05 0.0 0.0 0.0
301 1 55.33901639344263 20.997874754098362 5.32188048073e-05 0.0 0.0 0.0
302 1 58.08425573770493 21.578278032786887 2.0929451991e-05 0.0 0.0 0.0
303 1 60.82343606557378 21.48224262295082 2.60246570709e-05 0.0 0.0 0.0
304 1 63.65552131147542 21.179392786885245 3.3324024193e-05 0.0 0.0 0.0
305 1 66.37500983606557 21.257200655737705 6.1360514675e-05 0.0 0.0 0.0
306 1 68.98745573770492 20.97419409836066 4.1648688152e-05 0.0 0.0 0.0
307 1 71.50800655737706 22.205739672131152 4.7820198305e-05 0.0 0.0 0.0
308 1 74.49863606557378 22.002762622950822 5.53813200298e-05 0.0 0.0 0.0
309 1 77.22064918032788 22.018819016393444 8.48211972271e-05 0.0 0.0 0.0
310 1 79.84672786885247 21.905616393442628 7.48094836742e-05 0.0 0.0 0.0
311 1 1.7042851803278691 24.027837377049185 8.39712119818e-05 0.0 0.0 0.0
312 1 4.375049114754099 24.21314229508197 1.50275658743e-05 0.0 0.0 0.0
313 1 7.129190163934427 23.98093049180328 4.7071128653e-05 0.0 0.0 0.0
314 1 9.894272786885248 24.15396590163935 7.55415524102e-06 0.0 0.0 0.0
315 1 12.346912131147542 24.412635409836067 6.1751111979e-06 0.0 0.0 0.0
316 1 14.924064262295085 24.242478032786888 3.63817015868e-05 0.0 0.0 0.0
317 1 17.575136393442623 24.181736393442627 1.32306053326e-05 0.0 0.0 0.0
318 1 20.26690491803279 23.856468196721313 5.20725375483e-05 0.0 0.0 0.0
319 1 23.046377704918033 23.522616393442625 2.6560533341e-05 0.0 0.0 0.0
320 1 25.760261639344264 24.027281967213117 5.1707680996e-05 0.0 0.0 0.0
321 1 28.270057704918038 24.153309508196724 8.35988101879e-05 0.0 0.0 0.0
322 1 30.740621639344266 23.583459016393448 1.92779276955e-05 0.0 0.0 0.0
323 1 33.360439344262296 23.594971147540985 3.52711145119e-05 0.0 0.0 0.0
324 1 35.976823606557375 23.86010360655738 8.73945777172e-05 0.0 0.0 0.0
325 1 38.60830491803279 24.063585573770496 1.97316596019e-05 0.0 0.0 0.0
326 1 41.18207409836066 23.9548262295082 6.38495064058e-05 0.0 0.0 0.0
327 1 43.884294426229516 23.835312131147543 4.7221790946e-05 0.0 0.0 0.0
328 1 46.40615803278689 23.42582360655738 2.4445379813e-05 0.0 0.0 0.0
329 1 49.08116327868853 23.259200655737708 8.67755305831e-05 0.0 0.0 0.0
330 1 51.85053770491804 23.388712131147546 8.60072279442e-05 0.0 0.0 0.0
331 1 54.41148196721312 23.360436721311476 8.92328139286e-06 0.0 0.0 0.0
332 1 56.79217049180328 24.556991475409838 6.8151751319e-05 0.0 0.0 0.0
333 1 59.69494426229509 23.75619147540984 8.22934658939e-05 0.0 0.0 0.0
334 1 62.48108196721312 23.40724262295082 8.07810005959e-05 0.0 0.0 0.0
335 1 64.47954754098362 24.66282229508197 3.18624657607e-05 0.0 0.0 0.0
336 1 68.04527868852459 23.52095016393443 3.85939087837e-05 0.0 0.0 0.0
337 1 70.82990163934427 23.58224721311476 8.64076860196e-05 0.0 0.0 0.0
338 1 73.1999868852459 23.988504262295084 7.21814684168e-05 0.0 0.0 0.0
339 1 75.8447475409836 24.288728524590166 2.62585987014e-05 0.0 0.0 0.0
340 1 78.79750819672132 24.288880000000002 9.66495491616e-05 0.0 0.0 0.0
341 1 81.57859672131148 24.03632 5.68283687648e-05 0.0 0.0 0.0
342 1 0.19609249180327873 26.170659016393444 8.17291963464e-05 0.0 0.0 0.0
343 1 2.8341251147540985 26.473407868852462 4.4253182751e-05 0.0 0.0 0.0
344 1 6.587615081967214 26.140515409836066 2.40332973159e-05 0.0 0.0 0.0
345 1 8.140793442622952 26.221655737704918 4.32706171629e-05 0.0 0.0 0.0
346 1 10.838419016393443 26.69951016393443 5.15721156165e-05 0.0 0.0 0.0
347 1 13.585678032786888 26.688502950819675 2.49735759552e-05 0.0 0.0 0.0
348 1 16.261794098360657 26.55404327868853 7.45455407525e-05 0.0 0.0 0.0
349 1 18.88317704918033 26.342381639344264 4.06125673366e-06 0.0 0.0 0.0
350 1 22.60497836065574 25.63993967213115 7.86412686008e-05 0.0 0.0 0.0
351 1 24.134072131147544 25.96758098360656 6.58851326053e-06 0.0 0.0 0.0
352 1 26.869920000000004 26.534654426229512 7.79981937654e-05 0.0 0.0 0.0
353 1 30.31512721311476 26.130164590163936 5.96753991223e-05 0.0 0.0 0.0
354 1 31.83846491803279 25.902345573770493 6.01825798494e-05 0.0 0.0 0.0
355 1 34.47686360655738 26.06689836065574 7.8253007837e-05 0.0 0.0 0.0
356 1 37.3442931147541 26.318852459016394 8.3116341671e-05 0.0 0.0 0.0
357 1 40.82393573770492 26.1354662295082 8.70784017256e-06 0.0 0.0 0.0
358 1 42.3748924590164 26.1231462295082 9.79552833579e-05 0.0 0.0 0.0
359 1 44.997032786885256 26.022718032786887 8.37538909103e-05 0.0 0.0 0.0
360 1 47.65790032786886 25.69103737704918 7.29736532177e-05 0.0 0.0 0.0
361 1 50.37410688524591 25.581975081967215 8.85280584727e-05 0.0 0.0 0.0
362 1 53.09415081967214 25.754051147540984 6.76299074823e-05 0.0 0.0 0.0
363 1 55.88180327868853 25.802270819672135 6.78362661142e-05 0.0 0.0 0.0
364 1 58.478091803278694 26.01575016393443 5.61900603427e-05 0.0 0.0 0.0
365 1 61.18243278688525 25.799241311475413 6.78955416972e-05 0.0 0.0 0.0
366 1 63.688845901639354 25.96798491803279 2.28567876644e-05 0.0 0.0 0.0
367 1 65.88776393442623 25.24302360655738 8.94776816206e-05 0.0 0.0 0.0
368 1 69.51307540983608 25.72996655737705 2.10819850482e-05 0.0 0.0 0.0
369 1 71.94980983606558 26.228674098360656 5.44080115832e-05 0.0 0.0 0.0
370 1 74.50267540983607 26.393176393442623 2.36556811246e-05 0.0 0.0 0.0
371 1 76.58950163934428 25.63499147540984 7.00477905606e-05 0.0 0.0 0.0
372 1 80.19158688524591 26.291940327868854 2.86225183447e-05 0.0 0.0 0.0
373 1 1.016743344262295 29.70235868852459 8.07745009502e-05 0.0 0.0 0.0
374 1 3.8662785573770493 28.869496393442628 2.95391038591e-05 0.0 0.0 0.0
375 1 6.523540983606558 28.676971147540986 9.03348605387e-05 0.0 0.0 0.0
376 1 9.391980327868852 28.72816983606558 6.24262042771e-07 0.0 0.0 0.0
377 1 12.174432131147542 28.94175016393443 3.78009362877e-05 0.0 0.0 0.0
378 1 14.881651147540985 28.93397442622951 4.47213512158e-05 0.0 0.0 0.0
379 1 17.584376393442625 28.82188262295082 9.2576037915e-05 0.0 0.0 0.0
380 1 20.15824655737705 28.75720262295082 4.24323668777e-05 0.0 0.0 0.0
381 1 22.569987540983607 27.994473442622954 4.37613765647e-05 0.0 0.0 0.0
382 1 25.422875409836067 28.51979016393443 1.39667373423e-05 0.0 0.0 0.0
383 1 27.861023606557378 29.107464262295085 7.50634597462e-05 0.0 0.0 0.0
384 1 30.344109508196723 28.864497704918033 4.95036379491e-05 0.0 0.0 0.0
385 1 32.964482622950825 28.330900327868857 3.66826280573e-05 0.0 0.0 0.0
386 1 35.71063081967213 28.281216393442623 8.54816269167e-05 0.0 0.0 0.0
387 1 38.38255606557377 28.855358688524593 7.91626491512e-05 0.0 0.0 0.0
388 1 40.894321311475416 28.81849967213115 4.65865831375e-05 0.0 0.0 0.0
389 1 43.639409180327874 28.486364590163937 2.92523622628e-05 0.0 0.0 0.0
390 1 46.266194754098365 28.186594754098365 9.69652689135e-05 0.0 0.0 0.0
391 1 49.02420852459017 27.926864918032788 8.01593287324e-05 0.0 0.0 0.0
392 1 51.68896393442623 27.943527213114756 9.78743056149e-05 0.0 0.0 0.0
393 1 54.278688524590166 27.97922491803279 3.10840848365e-05 0.0 0.0 0.0
394 1 56.90931147540984 28.206185573770497 7.44597590525e-05 0.0 0.0 0.0
395 1 59.637888524590174 28.117824918032788 3.83072758579e-05 0.0 0.0 0.0
396 1 62.23114754098361 28.30419016393443 3.13721454995e-05 0.0 0.0 0.0
397 1 65.33689836065575 28.03163540983607 5.80504007194e-05 0.0 0.0 0.0
398 1 68.09476065573772 27.86496196721312 5.16900689644e-05 0.0 0.0 0.0
399 1 70.58451147540985 28.3831593442623 8.54261504019e-05 0.0 0.0 0.0
400 1 73.32116721311476 28.658895081967216 9.61118233684e-05 0.0 0.0 0.0
401 1 76.07852459016395 28.542561967213118 9.88821248024e-05 0.0 0.0 0.0
402 1 78.78942950819673 28.563970491803282 5.04879779321e-05 0.0 0.0 0.0
403 1 81.5432524590164 28.463340327868856 8.49271908385e-06 0.0 0.0 0.0
404 1 0.11160657704918034 30.948849836065577 1.32129936485e-05 0.0 0.0 0.0
405 1 2.7785891803278693 31.17515409836066 2.71771003315e-05 0.0 0.0 0.0
406 1 5.466848524590164 31.041754754098363 5.26508175854e-05 0.0 0.0 0.0
407 1 8.11504262295082 30.844988196721314 9.98623403341e-05 0.0 0.0 0.0
408 1 10.845790819672132 31.064678032786887 1.92042873421e-05 0.0 0.0 0.0
409 1 13.510697704918034 31.245034754098363 4.4077564747e-05 0.0 0.0 0.0
410 1 16.21433180327869 31.178940983606562 1.98643651731e-05 0.0 0.0 0.0
411 1 19.069643278688527 31.17858754098361 7.44164424614e-05 0.0 0.0 0.0
412 1 23.373968524590165 31.384341639344264 2.7099321914e-05 0.0 0.0 0.0