# input file

2232 atoms
1 atom types

0.0 82.68810555352132 xlo xhi
0.0 83.16 ylo yhi
-10.0 10.0 zlo zhi
0.0 0.0 0.0 xy xz yz

Masses

1 12.0100 #C

Atoms

1 1 1.3843438688524592 0.7399169836065574 9.660063174885924e-05
2 1 4.052835672131147 0.8367956065573771 4.492689431970949e-05
3 1 6.7544904918032795 1.034577049180328 8.126654806405904e-05
4 1 9.125838032786886 0.8108276721311477 2.5651183510899512e-05
5 1 12.519291147540985 83.07820327868853 3.469600973666862e-05
6 1 14.041921967213117 0.05878255737704918 2.828870634899373e-05
7 1 16.500923278688525 0.5096895081967213 5.0163931198175685e-05
8 1 19.044346885245904 0.49860605245901646 4.444266992842221e-05
9 1 21.700619672131147 0.4494245114754099 2.5859605101172813e-05
10 1 24.273631475409836 1.023029573770492 4.9673414376153694e-05
11 1 27.405739016393444 1.0565005901639346 2.9823578943050867e-05
12 1 30.212881311475414 0.8213703606557379 9.583582092634701e-06
13 1 32.861681311475415 0.4859088786885246 5.826893141518885e-06
14 1 35.57768590163935 0.6549443278688525 3.618196294226086e-05
15 1 38.63597442622951 0.4382678426229509 8.753479314474197e-05
16 1 41.44311672131148 0.4353923344262296 2.5130712720243255e-05
17 1 44.025620983606565 0.7066378360655738 1.1974580462233276e-05
18 1 46.58267737704919 0.9045909508196722 2.4798575065381956e-05
19 1 49.17396721311476 0.6831692459016394 1.4912806407477753e-05
20 1 51.85407213114754 0.4303774885245902 4.234795564263667e-05
21 1 54.43117377049181 0.9043839344262296 2.524886880994538e-05
22 1 57.31375081967214 0.7430424262295083 5.346686521917653e-05
23 1 59.64344262295083 1.964545180327869 9.952975290737367e-05
24 1 63.33085901639345 0.49177956065573775 8.41058272176893e-05
25 1 64.8728786885246 0.3669713967213115 3.989510354809893e-05
26 1 67.55348852459016 0.7733980983606559 4.315428542381636e-05
27 1 70.79607213114754 1.1883397377049183 3.205194561436441e-05
28 1 73.4888 1.063529049180328 2.337625062200699e-07
29 1 76.1189180327869 0.9746180327868853 4.19455168630053e-06
30 1 78.86920655737705 0.957612393442623 9.750384993032819e-05
31 1 81.38622295081969 0.8877014426229509 8.168804556530998e-05
32 1 0.06736616393442624 3.088603803278689 5.744589147788539e-05
33 1 2.5846451147540987 3.0758798688524593 6.039437170792703e-05
34 1 5.217419016393443 3.1913495737704918 9.947773432819433e-05
35 1 7.791945573770493 3.5230908196721313 8.456343899326078e-05
36 1 11.10309704918033 3.0249386885245904 9.969278057620513e-05
37 1 12.58765704918033 2.680246295081967 9.829581293396306e-05
38 1 15.182632786885248 2.6856640655737705 4.8109560758929976e-05
39 1 17.789928524590167 2.857285704918033 6.554039123320843e-05
40 1 20.38990295081967 2.7754839344262296 4.1653344509032585e-05
41 1 22.76019016393443 4.096167737704918 4.0362453106485055e-05
42 1 24.991372459016397 2.4007034754098364 7.1233161481264135e-06
43 1 28.968763278688527 3.0348451803278693 1.0826428324665128e-05
44 1 31.69022098360656 2.9152300983606563 9.276984777863995e-05
45 1 34.302767868852456 2.777821704918033 9.238129231451138e-05
46 1 36.41761704918033 1.9412381639344265 5.914626660333558e-05
47 1 39.96976590163935 2.5804290491803283 1.7970779948553183e-05
48 1 42.564893114754106 2.9564970491803284 5.681320682530397e-05
49 1 45.45307475409837 3.191541442622951 3.958415299539267e-05
50 1 48.15176065573771 3.1040139016393447 1.0793989602055355e-06
51 1 50.66902950819673 2.8730391475409838 4.744361205244993e-05
52 1 53.19311475409836 2.9854238032786884 8.266907082384961e-05
53 1 55.338511475409845 2.1485777049180332 1.4663155751499392e-05
54 1 58.98704918032788 3.3618553442622954 1.4272525694240646e-05
55 1 61.29048524590164 3.7737977704918038 6.948135587608311e-05
56 1 63.71106229508197 2.965444196721312 1.7969681412313866e-05
57 1 66.29472786885246 3.68154924590164 8.143894709265082e-05
58 1 68.40780983606558 2.075940196721312 5.7287919220606725e-05
59 1 72.12956065573772 3.3750236065573778 6.906677791667134e-05
60 1 74.57639344262296 3.318907016393443 9.904219049824201e-05
61 1 77.26760655737706 3.1528344262295085 3.978502806466189e-05
62 1 80.18098360655739 3.367404393442623 7.638867821711176e-05
63 1 1.1432404590163934 5.472503606557377 7.164453133455453e-05
64 1 3.6959192131147547 5.424990819672132 7.644234107192972e-06
65 1 6.15429442622951 5.6935567213114755 3.485779724335191e-05
66 1 8.28721967213115 5.0170826885245905 9.555680806575764e-05
67 1 12.568520655737705 5.171471475409837 5.3971491081438754e-05
68 1 14.109782950819675 5.031149704918033 3.315479214663696e-05
69 1 16.708141639344266 5.07584 7.33205905626062e-06
70 1 19.17360590163935 6.226800655737706 6.222437255832832e-05
71 1 22.162266229508198 5.523803278688525 6.186150477173179e-05
72 1 24.816620327868854 5.227870819672131 2.9241408080416898e-05
73 1 27.61179606557377 5.041813573770492 7.302264368389357e-05
74 1 30.413384262295082 5.187123934426229 8.096880562505742e-05
75 1 33.23128131147541 5.144458360655738 3.468311986168146e-05
76 1 35.933047213114754 4.849641770491804 6.646428372769683e-05
77 1 38.51045180327869 4.786587606557378 3.393471719268504e-05
78 1 41.05281508196721 5.055946229508198 1.4237483110147276e-06
79 1 43.201241311475414 4.364728590163935 3.0070043697182095e-05
80 1 46.86992524590165 5.381870819672131 4.276849034931978e-05
81 1 49.37073377049181 5.391817704918033 4.271110176838474e-05
82 1 51.823777049180336 5.347839344262296 4.806610600178248e-05
83 1 55.44908852459017 4.838614360655738 8.710799258977992e-05
84 1 56.968891803278694 5.1615750819672135 7.707397236808704e-05
85 1 59.94437377049181 6.082091147540984 7.00019632484237e-05
86 1 62.67699016393443 5.714207868852459 8.580924805843349e-05
87 1 66.53355409836065 5.178843278688525 4.340966528337795e-05
88 1 68.04982295081967 5.003959868852459 2.100421925138746e-05
89 1 70.5476524590164 5.340164590163935 3.451238447735961e-05
90 1 73.31510819672131 5.811354098360656 3.2349638460220136e-05
91 1 76.64302295081968 5.290430163934427 8.331865704688995e-05
92 1 77.94975081967213 4.510836721311476 4.76963494015651e-05
93 1 81.42358688524591 5.5567239344262305 8.70504666664257e-05
94 1 82.54147540983607 7.988257704918033 4.873303960355943e-05
95 1 2.524014557377049 7.803760655737706 7.764319293262909e-05
96 1 4.851651344262296 9.118819672131147 3.638827836061065e-09
97 1 7.506515409836066 7.973009180327869 5.751517914237875e-05
98 1 10.018432131147541 8.115850491803279 3.368347046296526e-05
99 1 12.699546885245903 7.854050491803279 8.656615052044338e-05
100 1 15.439030163934428 7.526813114754099 7.353526337483925e-05
101 1 18.226531147540985 7.46748524590164 1.7898471585716702e-05
102 1 20.915017704918036 7.731557377049181 4.339399936376879e-05
103 1 23.998703606557378 7.6277967213114755 5.578901545548068e-05
104 1 26.65639016393443 7.2649121311475415 3.237518831549757e-06
105 1 29.217283934426234 7.267790163934427 3.9704705153748054e-05
106 1 31.955302950819675 7.29692393442623 8.776188468647683e-06
107 1 34.79627475409836 7.247542950819673 1.4698849803812964e-05
108 1 37.32081442622951 7.213107540983607 4.217846823671456e-06
109 1 39.97587540983607 7.291268852459017 5.3529592084003735e-05
110 1 42.58493836065574 7.244059016393443 7.917753190719229e-05
111 1 45.33426754098361 7.444763934426231 5.641195936422551e-05
112 1 47.91071278688525 7.795227540983607 8.03739082856464e-05
113 1 50.34426622950821 7.817898360655738 2.4066048486106185e-05
114 1 52.70081967213115 7.757459672131148 1.8374287601777606e-05
115 1 55.211272131147545 7.482430819672132 7.21373138873101e-05
116 1 57.5308655737705 6.670118688524591 4.546845532648898e-05
117 1 61.12234754098361 8.080910163934428 1.562376538807473e-05
118 1 63.70298360655739 7.96836393442623 2.6915149858935217e-05
119 1 66.27907540983607 7.649407213114755 1.134989435284618e-05
120 1 68.94554754098361 7.592704918032787 9.804311974220166e-05
121 1 71.69078688524591 7.7483206557377065 7.069120064402737e-05
122 1 74.38452459016393 8.362553442622952 6.236704109424229e-06
123 1 76.962131147541 7.905855081967214 6.127939051639542e-06
124 1 79.81592786885247 7.710754754098361 3.2025853198088615e-05
125 1 1.2093140327868854 10.22105573770492 1.3866490343548221e-05
126 1 4.067170295081968 10.448470819672133 7.3665424020504e-05
127 1 6.634521967213115 10.586919344262297 9.335880051303898e-05
128 1 9.111599344262297 10.432919344262297 9.624020739337262e-05
129 1 11.783019672131148 10.165363278688526 7.196354889389853e-05
130 1 13.79617836065574 11.152023606557378 8.371758033108288e-05
131 1 17.05360655737705 9.787230163934428 9.113156593751401e-05
132 1 19.73169180327869 9.79515737704918 6.690453305467315e-05
133 1 21.828969836065575 8.960073442622951 5.9756556176703815e-05
134 1 25.603181639344264 9.67892524590164 5.911451730892494e-05
135 1 28.151856393442625 9.633886557377052 4.0018145669924645e-05
136 1 30.654331147540987 9.50149704918033 8.307235561902501e-05
137 1 33.44854754098361 9.372339016393443 7.316693012773556e-05
138 1 36.14137639344263 9.671300983606558 3.9306768692534836e-05
139 1 38.74751081967214 9.562036721311475 2.1104238815787814e-05
140 1 41.41686098360656 9.652063606557377 7.861021690430445e-05
141 1 43.999264262295085 9.566177049180329 9.677526295478025e-05
142 1 46.61958688524591 9.989045901639345 4.732208369772283e-05
143 1 49.063945573770496 10.2950262295082 3.23555833040396e-05
144 1 51.54051803278689 10.30376131147541 2.710047819903e-05
145 1 53.91615737704918 9.976877377049181 4.3827515641080716e-05
146 1 56.63261639344263 9.53608393442623 6.624270566038935e-05
147 1 59.73533770491804 10.283514098360657 8.85224645297533e-05
148 1 62.65325901639345 10.35268786885246 4.850008280361521e-05
149 1 65.4575737704918 10.059986885245902 3.384782736231902e-05
150 1 67.86704262295083 11.069469508196724 4.7029729147782456e-05
151 1 70.55017704918033 9.873571147540984 6.740163390888432e-05
152 1 72.77131147540985 11.439271475409837 5.138308687637178e-05
153 1 76.7541049180328 10.185509508196722 2.6546115832153307e-05
154 1 78.3057180327869 9.958750819672133 3.905383377668038e-05
155 1 81.06408524590165 10.133553442622953 6.3391671373886e-05
156 1 82.46018360655738 12.38402360655738 8.61375377493546e-05
157 1 2.5263927213114754 12.488895081967215 2.848219728049507e-05
158 1 5.316180983606558 12.892324590163936 7.221735735658541e-05
159 1 7.986692459016394 12.971344262295084 7.084794262789407e-05
160 1 10.431657049180329 12.633251147540983 3.092399096076781e-05
161 1 13.12085049180328 12.511414426229509 2.8925094180989022e-05
162 1 15.161779672131148 11.806195409836066 9.15677067577286e-05
163 1 18.691964590163934 12.006294426229509 3.4727927442642095e-05
164 1 21.40468721311476 11.837853770491805 4.163889444092971e-05
165 1 24.145483278688527 11.81992918032787 5.2712219330561864e-05
166 1 26.89708459016394 12.031742295081969 1.695077807955934e-05
167 1 29.630306885245904 11.983421639344263 6.53889258511502e-05
168 1 32.328386885245905 11.54883868852459 3.730966448973725e-05
169 1 34.38532196721312 12.970637377049183 4.0574588585412534e-05
170 1 38.15589836065574 11.853960655737707 4.136544617930494e-05
171 1 39.70609770491804 11.87456131147541 8.69209092983568e-05
172 1 43.39033311475411 11.860928524590165 2.9229063961446268e-05
173 1 44.94134032786886 12.04976786885246 2.5481038794446864e-05
174 1 47.7039993442623 12.631887868852461 3.536304439526591e-05
175 1 50.43161704918033 12.759076721311477 5.185372733846795e-05
176 1 53.25118032786886 12.571196721311477 6.955114907345559e-05
177 1 55.81919344262296 11.843660327868854 8.047871880965471e-05
178 1 58.605331147540994 12.997297049180329 4.394329115373507e-05
179 1 61.4500393442623 12.379125901639345 2.403018208458385e-06
180 1 64.37149508196723 12.374632131147541 5.857735454209259e-05
181 1 67.23185573770492 12.47940262295082 3.507275668828893e-05
182 1 69.9165049180328 12.346811147540985 3.2931621627607544e-06
183 1 71.79227540983608 13.816375081967216 3.0153068068855705e-05
184 1 74.52691147540985 13.18285442622951 7.276481757533538e-06
185 1 76.95960655737706 12.640925901639346 9.999734634390302e-05
186 1 79.71746885245902 12.3463062295082 4.168110162377419e-05
187 1 1.1555756065573772 14.694881967213117 6.493922283331308e-05
188 1 3.7980590819672133 14.857415081967215 3.284708970681854e-05
189 1 6.549998688524591 15.263924590163935 5.8024243297630664e-05
190 1 9.665746885245902 15.269731147540986 9.859328419366809e-05
191 1 12.223661639344263 14.76365180327869 2.4671079945045827e-05
192 1 14.770064262295085 14.660951475409838 4.4420099508447995e-05
193 1 17.239062950819672 14.185975081967214 2.7251887293718324e-05
194 1 20.009295737704917 14.153306885245902 8.376547726124725e-05
195 1 22.71393967213115 14.055958688524592 5.218183411747646e-06
196 1 25.37500918032787 14.146692459016396 6.475795671137289e-05
197 1 28.091013770491806 14.259238688524592 5.694075262448751e-05
198 1 31.718243934426233 13.885599344262296 3.639509746344021e-05
199 1 33.25304327868853 14.009657704918034 4.735371800063012e-05
200 1 35.54077639344263 14.870542950819674 3.150328554859049e-05
201 1 37.864964590163936 14.663880000000002 7.204561788314495e-05
202 1 40.46352524590164 14.505133770491804 8.116351509538935e-05
203 1 42.99250819672131 14.37521836065574 1.5359062877925502e-05
204 1 45.88068983606558 14.546284590163935 5.137804177466934e-05
205 1 49.31352655737705 15.042265573770493 8.509793814228073e-05
206 1 52.21559344262295 14.845499016393445 2.9335611215770087e-05
207 1 55.00476065573771 14.551333770491803 8.307837920641205e-05
208 1 57.80301639344263 14.384205901639346 3.140386088773384e-06
209 1 60.24278032786886 14.701546885245904 7.592671651092664e-05
210 1 62.91985573770493 14.42252918032787 9.843444606190521e-05
211 1 65.61056393442624 14.613135737704921 8.729465914902636e-05
212 1 68.38205901639344 14.722702950819674 3.0232883126553126e-05
213 1 71.05055081967214 15.15132786885246 5.0898280369466365e-05
214 1 73.60846557377049 15.548900327868854 1.5246667534304093e-05
215 1 76.1956655737705 15.270185573770492 7.130675496086806e-05
216 1 78.65663606557378 14.74401049180328 7.731567584097875e-05
217 1 81.21000655737706 14.647520655737706 4.1484306560186414e-05
218 1 82.5944918032787 17.01664655737705 7.812283349904183e-05
219 1 2.5614390819672135 17.095413770491803 8.827334079001044e-05
220 1 5.177681967213116 17.227045901639343 9.11534915506277e-05
221 1 7.3707934426229516 16.582164590163934 5.570075279122303e-05
222 1 12.0082131147541 17.052748196721314 4.364339829055047e-05
223 1 13.546950819672132 17.081124590163938 4.247170599677934e-05
224 1 15.907240655737706 16.822808524590165 6.327780155975741e-05
225 1 18.63480786885246 16.36373704918033 2.1252072706788018e-05
226 1 21.355962622950823 16.356264262295085 7.220741977306624e-05
227 1 23.803855737704918 16.3893868852459 5.46422951409562e-06
228 1 26.43533704918033 16.440080655737706 9.289861744168454e-05
229 1 28.915443934426232 16.679512786885248 2.1527104504743822e-06
230 1 31.39176393442623 16.575449180327873 1.495966088981544e-05
231 1 33.971137704918036 16.815234754098363 1.5892295245481038e-05
232 1 36.547431475409844 17.26183475409836 9.470969996197994e-05
233 1 39.16189704918033 16.949997377049183 4.843282207090341e-05
234 1 41.83028786885246 16.83341180327869 6.864230876252833e-05
235 1 44.418851147540984 16.52844131147541 1.4139994398818023e-05
236 1 46.75344065573771 15.830998032786887 1.2468965975748136e-05
237 1 51.04468852459017 17.029370491803277 5.38885646183639e-05
238 1 53.920701639344266 16.95772262295082 1.4648094056512019e-05
239 1 56.42761967213115 16.792008524590166 7.48176743944865e-05
240 1 59.10671475409836 16.98746229508197 8.683769766152055e-05
241 1 61.79590819672132 16.798420983606558 5.6033339232130874e-05
242 1 64.27909508196721 17.746202622950822 7.919693332723583e-05
243 1 67.04352131147542 16.899101639344263 1.5061660089245943e-05
244 1 69.62971147540983 17.20068918032787 4.480306304070254e-05
245 1 72.29668852459017 17.659912131147543 5.173229235737805e-05
246 1 75.00456393442624 17.718230163934425 6.623331338880156e-05
247 1 77.56803278688525 17.40513049180328 1.3340257949203194e-05
248 1 80.0375868852459 17.107430819672132 5.9479358706870045e-05
249 1 1.307621573770492 19.361839344262297 5.0307873501405755e-06
250 1 4.090512655737705 19.47867737704918 7.747644098061687e-05
251 1 6.671330491803279 19.45762229508197 9.171901969748486e-07
252 1 9.144520000000002 19.440354098360658 2.9327121495424414e-05
253 1 11.850173770491805 19.706849836065576 3.446189322459588e-05
254 1 15.084476721311477 19.51573836065574 7.726784240117666e-05
255 1 17.478899016393445 18.752504262295083 9.413343327001602e-05
256 1 20.10972393442623 18.574268196721317 6.208594910813413e-05
257 1 22.408868196721315 18.830817049180332 7.181754303190485e-05
258 1 24.889025573770493 18.70680918032787 6.579474722436516e-05
259 1 27.511367868852464 18.970426885245903 7.555391833455483e-05
260 1 30.27725836065574 19.02369573770492 5.323726901457671e-06
261 1 32.816137704918035 19.02339278688525 3.4329104716952865e-05
262 1 35.127652459016396 20.499520655737705 2.7344318978917293e-05
263 1 37.91570885245902 19.447927868852464 2.5423828157117712e-05
264 1 40.685436721311476 19.183249836065578 2.308623851734748e-05
265 1 43.45157967213115 19.004104918032787 4.794741483258103e-06
266 1 46.05887540983607 18.60284655737705 3.027989529129939e-05
267 1 48.42870819672132 17.769782295081967 3.597156392209074e-05
268 1 52.03028852459017 19.013900327868857 1.2272586300645973e-05
269 1 55.50462950819673 19.398647868852464 2.698531592657697e-05
270 1 57.77878032786886 19.216271475409837 9.262446601745214e-05
271 1 60.4144524590164 19.23465049180328 4.400766538670543e-05
272 1 64.15791475409837 19.262622950819672 6.580695631691173e-05
273 1 65.68226229508198 19.304581639344264 1.4838259377880637e-07
274 1 68.20129836065576 19.396426229508197 6.209651928147203e-05
275 1 71.00005901639345 19.664133770491805 4.55095906296969e-05
276 1 73.71298360655739 19.92699409836066 4.64752235098441e-05
277 1 76.33148852459017 19.91810754098361 9.375081476585526e-05
278 1 78.8525442622951 19.693520000000003 5.1484732050250195e-05
279 1 81.35188852459017 19.45792524590164 6.035815859540178e-05
280 1 82.6828524590164 21.724754754098363 5.541364201970296e-05
281 1 2.745471606557377 21.587669508196726 4.969464797786786e-05
282 1 5.463263606557377 21.877997377049184 9.493804031714946e-05
283 1 8.125443934426231 21.925358688524593 3.984126254542517e-05
284 1 10.676239344262296 21.748435409836066 1.858712392616829e-05
285 1 12.913531147540986 20.839027540983608 5.901511526145825e-05
286 1 17.472991475409838 21.193227540983607 2.6117972228367936e-05
287 1 18.985170491803277 20.914512786885247 2.6696024095292927e-06
288 1 21.24811213114754 22.463550819672133 9.719187845269062e-05
289 1 23.850964590163937 21.186865573770493 5.643472169526677e-05
290 1 26.510923278688526 21.975699016393445 5.56370311023249e-05
291 1 29.339676065573773 21.10648262295082 7.520468754388452e-05
292 1 31.610696393442627 22.643402622950823 1.3149927923957294e-05
293 1 34.42980524590165 21.885520655737707 3.6679379848750394e-05
294 1 36.97832852459017 21.880521967213117 4.252082823779363e-05
295 1 39.578757377049186 21.503701639344268 1.7412924722896863e-05
296 1 42.30491081967214 21.29557442622951 8.871222572607274e-06
297 1 45.095239344262296 21.13496 1.6366682284673484e-05
298 1 47.59458360655738 20.635596065573772 3.4313443241537737e-06
299 1 50.160425573770496 20.987220983606562 5.856665417779926e-05
300 1 52.62558688524591 21.62902229508197 3.538230147946849e-05
301 1 54.48570491803279 20.561070163934428 6.189677857990609e-05
302 1 58.67904918032788 21.507640000000002 9.642733776341448e-05
303 1 61.109724590163935 21.830535081967213 2.8289151318823394e-05
304 1 63.64996721311476 21.688754098360658 7.967183236526728e-05
305 1 66.54011803278689 21.709910163934428 5.994556282735419e-06
306 1 69.73574426229509 21.640281967213117 6.49929572968755e-05
307 1 72.49461639344263 22.024575081967214 8.065060059854032e-05
308 1 75.05354098360657 22.26622885245902 8.331653932813758e-05
309 1 77.62963278688527 22.217807213114757 3.356530554822913e-05
310 1 80.14059016393443 22.003772459016393 4.0948108214644075e-05
311 1 1.6728792786885247 23.82026557377049 5.106094869261313e-06
312 1 4.107609180327869 24.99970360655738 2.541611009326248e-05
313 1 7.013816393442624 24.255302950819676 1.0886396748734318e-05
314 1 10.546879344262297 23.83859409836066 5.6749633721593934e-05
315 1 12.10253180327869 23.70458885245902 2.4897106379442692e-05
316 1 14.784656393442626 23.841017704918034 5.2789660770129665e-05
317 1 17.540751475409838 23.86823278688525 2.1056479233034556e-06
318 1 20.524211147540985 23.844905573770493 6.765290051973718e-05
319 1 23.158772459016394 23.841825573770496 5.82767364770205e-05
320 1 25.76975409836066 23.309339016393444 2.672694923963791e-05
321 1 28.452282622950822 23.405929836065575 2.2308770693056103e-05
322 1 30.948092459016397 24.041318688524594 9.969562491167445e-05
323 1 33.21593180327869 24.307460983606557 9.364886714932084e-05
324 1 35.807979016393446 24.256110819672134 8.077025841513833e-05
325 1 38.46102032786885 24.005116065573773 8.878497925674009e-05
326 1 40.944863606557384 23.633748852459018 4.22199584353332e-05
327 1 43.58240393442623 23.39886098360656 9.888522282527223e-05
328 1 47.04482885245902 23.238044590163938 7.015297383638392e-05
329 1 48.60346032786885 23.186088524590165 3.660783375876287e-05
330 1 51.24615081967214 23.661519344262295 2.209170601160826e-06
331 1 54.17770491803279 23.600878688524592 8.808033277346389e-05
332 1 56.92445901639345 23.496562622950822 4.838938607416332e-05
333 1 59.46520655737706 24.105847213114757 2.74745772706386e-05
334 1 62.668406557377054 24.109078688524594 6.161437759004634e-05
335 1 65.3348786885246 23.710395409836067 5.830750831991714e-05
336 1 67.37727213114755 22.994876065573774 9.472981815374012e-05
337 1 70.7864786885246 25.093365901639345 6.996137108473612e-05
338 1 73.69480655737706 24.52649442622951 4.257228195351693e-06
339 1 76.36935737704918 24.63277967213115 5.5246953527190616e-05
340 1 78.96312131147542 24.543712131147544 1.3437415584095115e-05
341 1 81.5897049180328 24.250607213114755 1.6409163455632505e-05
342 1 0.46775657049180336 26.20746754098361 1.8684275210202574e-05
343 1 3.2787761311475414 26.298150819672134 1.6923531220781285e-05
344 1 5.629230163934427 26.529807213114758 5.2198055741132946e-05
345 1 8.360028852459019 26.6412931147541 5.763590190017158e-05
346 1 10.72698360655738 26.540612459016394 4.251089836672618e-05
347 1 13.36765442622951 26.154754098360655 1.2677934554606053e-05
348 1 16.22311737704918 26.106736393442628 6.712423647686137e-05
349 1 19.088880655737707 25.9575331147541 6.494928960932783e-05
350 1 21.958430819672135 26.20166098360656 9.702967602000821e-05
351 1 25.477305573770494 25.619389508196722 6.0645170945243346e-05
352 1 27.012407868852463 25.558092459016393 4.4017179891719585e-05
353 1 28.96482491803279 27.195390163934427 3.936430688026973e-05
354 1 31.820338360655743 26.730007213114757 3.5684994071312597e-05
355 1 34.532909508196724 26.628821639344267 4.700772449870845e-05
356 1 37.31551278688525 26.41039409836066 3.495216056355454e-05
357 1 39.996223606557386 26.218828196721315 1.5382152259695337e-05
358 1 42.374337049180326 25.804189508196725 6.912387434028352e-05
359 1 44.78759278688525 27.022152786885247 1.5402538875587402e-06
360 1 47.268406557377055 27.055073442622955 4.6085927468654257e-07
361 1 49.91291475409837 25.789698360655738 1.4302675129309918e-05
362 1 52.660426229508204 25.716636721311477 8.748932571527463e-05
363 1 55.509678688524595 25.875685901639347 1.938734117297838e-05
364 1 58.33469508196722 26.18661442622951 2.6066177557830475e-06
365 1 60.35133770491804 25.368798688524592 7.426554353851804e-05
366 1 64.27758032786886 26.10729180327869 1.268475734055783e-05
367 1 66.96626885245901 25.888359344262298 8.191018415827078e-05
368 1 69.7463475409836 26.223271475409838 9.356244852726243e-05
369 1 72.39918688524591 26.74369049180328 1.6972305429612113e-05
370 1 75.03990819672131 26.903749508196725 6.496681412649277e-05
371 1 77.68012459016394 26.993523934426232 1.6020680488141082e-05
372 1 80.388 26.75479868852459 1.2560573753335991e-05
373 1 1.5898909508196724 28.387754098360656 4.9339481214399e-05
374 1 4.156232786885247 28.89312655737705 3.786704376515957e-05
375 1 6.774081311475411 28.747356721311476 7.647281831894526e-06
376 1 9.493216393442625 29.10145573770492 6.516456266541905e-05
377 1 12.199577049180329 28.75200196721312 4.392169689604889e-05
378 1 14.887154754098363 28.294748196721315 3.822886195164638e-05
379 1 17.641280655737706 28.198510819672137 3.970033946731877e-06
380 1 20.346782950819673 28.252991475409836 8.114117286751887e-05
381 1 23.077884590163936 28.421684590163938 7.331720437126195e-05
382 1 26.188331147540985 28.022496393442626 4.889894400314067e-05
383 1 27.75438491803279 28.155188852459016 6.788164118741783e-05
384 1 30.242721967213114 29.01556918032787 3.133600332526856e-05
385 1 33.456525245901645 28.935085245901643 5.761174295482844e-05
386 1 36.19737180327869 28.676920655737707 3.195975078812672e-05
387 1 38.88015278688525 28.583258360655737 5.833766228691323e-05
388 1 41.553693770491805 28.488586229508197 8.644953239900253e-05
389 1 44.083939016393444 28.417594754098364 4.49957724691214e-05
390 1 46.70143409836066 28.48505180327869 4.160384187724037e-05
391 1 49.093331803278694 28.39325770491804 3.6575560176483495e-05
392 1 51.528400000000005 28.009520000000002 6.355510048381164e-05
393 1 54.17972459016394 27.902325901639347 4.5917522090459374e-05
394 1 56.31704262295083 27.223968524590166 8.693229965178077e-05
395 1 60.0908 28.301059672131153 5.858365852433677e-05
396 1 62.73051147540984 28.126862950819678 6.594712614093397e-05
397 1 65.4732262295082 28.240368524590167 3.901377587749877e-05
398 1 67.9725704918033 28.21441573770492 8.787347744148984e-05
399 1 70.61228196721312 28.653593442622956 4.296000381633605e-05
400 1 73.21866885245902 29.072019016393444 6.431751461491221e-05
401 1 75.93361311475411 29.28357967213115 3.183600563577498e-05
402 1 79.05097704918035 29.2093062295082 8.21708842250917e-05
403 1 0.050276809180327876 28.395580327868856 1.2889438514423835e-05
404 1 0.0245509324590164 31.043875409836065 2.6854481711418798e-05
405 1 2.7195390163934428 30.98570885245902 1.801024827492509e-05
406 1 6.321927213114755 30.90138754098361 5.385368086405906e-05
407 1 7.844103606557377 31.067606557377054 4.787789879559907e-05
408 1 10.049131147540985 30.53946229508197 5.12541199096467e-05
409 1 13.523068196721312 30.758243278688525 3.698403329695063e-05
410 1 16.164243934426228 30.47665049180328 8.010650613072516e-05
411 1 18.809408524590168 30.50719803278689 3.0208136769339902e-05
412 1 22.2676931147541 30.451253114754103 5.395233871807991e-05
413 1 23.7522531147541 30.8201462295082 1.2237471527639232e-05
414 1 26.229128524590166 30.980053770491807 4.4934119763633784e-05
415 1 28.84197836065574 30.875434754098364 2.4612743880423918e-05
416 1 31.130216393442627 30.263979016393446 4.804971482838776e-05
417 1 34.97521770491803 30.990404590163937 6.571619817874339e-05
418 1 37.59296524590164 30.902195409836068 9.283369683307416e-05
419 1 40.17960983606557 30.83428393442623 5.1685039119871456e-05
420 1 42.619323278688526 30.93986229508197 5.574000751065515e-05
421 1 44.996830819672134 30.729210491803283 7.714028504769015e-05
422 1 47.674966557377054 30.89416721311476 3.7125154211430105e-05
423 1 50.584203278688534 30.638325245901644 7.961759926273253e-05
424 1 53.25017049180328 30.207731147540986 5.6360138009947474e-05
425 1 55.88129836065575 30.083016393442627 2.681089733071609e-05
426 1 58.55837377049181 30.56945442622951 1.939040101893488e-05
427 1 62.32657704918033 30.33077967213115 2.8053767652764286e-05
428 1 63.876675409836075 30.37975672131148 4.0018377202824994e-05
429 1 66.5704131147541 30.651705573770496 5.915729575495832e-05
430 1 69.23335081967214 30.67599213114754 6.211528052730773e-05
431 1 71.46559344262295 32.13894163934427 9.351064197540455e-05
432 1 74.3517049180328 31.403932459016396 9.681203229870156e-05
433 1 76.62232131147542 30.66639868852459 9.461103869597717e-05
434 1 80.16583606557379 31.35137049180328 1.711957645314357e-05
435 1 1.2826281311475412 33.27879409836066 4.45380294837792e-05
436 1 3.7599428196721316 33.491112131147545 1.8400183752443034e-05
437 1 6.2534098360655745 33.41148655737705 3.2284902295595776e-06
438 1 9.063581639344264 33.40835606557377 9.553170878937015e-05
439 1 12.010182295081968 33.18341508196722 3.5788250189893756e-05
440 1 14.66090098360656 32.88591737704919 8.826431768096101e-05
441 1 17.249312786885245 32.78649901639344 6.603147150538964e-05
442 1 19.721441967213117 33.09146950819673 5.1974002704297365e-05
443 1 22.0975862295082 33.07879606557377 7.874291320510644e-05
444 1 24.801927213114755 33.328680000000006 8.67686386268751e-05
445 1 27.983567213114757 33.226434098360656 7.326346023821403e-05
446 1 30.66417704918033 32.99735278688525 7.495433973860884e-05
447 1 33.41542491803279 33.035625573770496 8.074736321023035e-06
448 1 36.361015737704925 33.26440393442623 9.118105484510353e-06
449 1 39.047886557377055 33.21088262295082 5.951730176251238e-05
450 1 41.09926754098361 34.71947672131148 5.216889844102435e-06
451 1 44.523520655737705 33.23814819672131 5.7589361660151676e-05
452 1 46.046 33.01850885245902 1.2306334941301156e-05
453 1 48.39396983606558 32.23825901639345 8.070595139552036e-05
454 1 52.06007868852459 32.64370819672131 5.2047761912053026e-05
455 1 54.63768524590164 32.466835409836065 3.1976977510787186e-05
456 1 57.195600000000006 32.58352196721312 4.469099110097792e-05
457 1 59.11731803278689 32.06911147540984 6.239518394849404e-05
458 1 62.54470163934427 33.14519278688525 8.75024012348016e-05
459 1 65.21470819672132 32.82361049180329 4.2465886843941105e-05
460 1 67.86603278688526 32.98932459016394 7.332603810326366e-05
461 1 70.57037377049181 33.385887213114756 7.351267284099896e-05