ITEM: TIMESTEP
0
ITEM: NUMBER OF ATOMS
2232
ITEM: BOX BOUNDS xy xz yz pp pp pp
0.0 82.68810555352132 0
0.0 83.16 0
-10.0 10.0 0
ITEM: ATOMS id type x y z vx vy vz
1 1 1.1089060327868854 0.32360701639344264 5.25513565038e-05 0.0 0.0 0.0
2 1 3.8836376393442626 0.5103358032786885 7.55940373649e-05 0.0 0.0 0.0
3 1 6.584434098360656 0.6157222950819672 3.88971299866e-05 0.0 0.0 0.0
4 1 9.213946229508197 0.5416154754098361 7.45220366259e-05 0.0 0.0 0.0
5 1 12.061229508196723 0.8774415081967214 1.88246528088e-06 0.0 0.0 0.0
6 1 14.56537049180328 1.4489228852459017 9.23584834823e-05 0.0 0.0 0.0
7 1 17.108844590163937 1.7397354754098362 9.10533574014e-05 0.0 0.0 0.0
8 1 20.256857049180333 1.3782192131147541 1.75633892789e-06 0.0 0.0 0.0
9 1 23.04617573770492 1.1087394098360657 2.64536322819e-05 0.0 0.0 0.0
10 1 25.764099016393445 1.1923538360655739 1.53549072886e-07 0.0 0.0 0.0
11 1 28.975933114754103 1.238432655737705 4.49898540718e-05 0.0 0.0 0.0
12 1 30.505329836065577 1.2230124590163935 6.91359476369e-05 0.0 0.0 0.0
13 1 32.980337049180335 1.158670754098361 8.86786609704e-05 0.0 0.0 0.0
14 1 35.80621180327869 1.057863868852459 7.25007683297e-05 0.0 0.0 0.0
15 1 38.393613770491804 0.9284432786885247 9.71037924097e-05 0.0 0.0 0.0
16 1 41.147184262295085 0.8072780983606558 5.95936265052e-05 0.0 0.0 0.0
17 1 43.9016131147541 0.9853273442622952 4.79217094001e-05 0.0 0.0 0.0
18 1 46.567428852459024 0.7782857049180328 8.89287538259e-05 0.0 0.0 0.0
19 1 49.31448590163935 0.6435887213114755 2.21163129395e-05 0.0 0.0 0.0
20 1 52.00100327868853 0.9003445901639345 4.63634384142e-05 0.0 0.0 0.0
21 1 54.70029508196721 0.8163161311475411 9.81714292183e-05 0.0 0.0 0.0
22 1 57.37383606557378 0.6231142950819673 4.63592827766e-05 0.0 0.0 0.0
23 1 59.985777049180335 0.4093224065573771 6.59443008432e-05 0.0 0.0 0.0
24 1 62.695672131147546 0.23993099016393446 4.2084194708e-05 0.0 0.0 0.0
25 1 65.48180983606558 0.15635241311475412 8.87221602605e-05 0.0 0.0 0.0
26 1 68.19019016393443 0.4322603278688525 3.0436850335e-05 0.0 0.0 0.0
27 1 70.68044590163936 0.6603974426229509 2.99908873078e-05 0.0 0.0 0.0
28 1 73.3656 0.5714914754098361 4.33216776818e-05 0.0 0.0 0.0
29 1 75.88867540983608 0.6827299672131149 3.72215013204e-05 0.0 0.0 0.0
30 1 78.38549508196722 0.3239927737704918 7.26481732437e-05 0.0 0.0 0.0
31 1 81.07317377049182 0.18237538360655742 6.56925384915e-05 0.0 0.0 0.0
32 1 82.36374426229509 2.5040702950819678 9.66700379523e-05 0.0 0.0 0.0
33 1 2.258301442622951 2.60639193442623 8.56250150394e-05 0.0 0.0 0.0
34 1 4.976961901639345 2.8548015081967217 5.30316176266e-05 0.0 0.0 0.0
35 1 7.9439259016393455 2.9661813770491805 3.55064502278e-05 0.0 0.0 0.0
36 1 10.536074098360658 2.797417573770492 1.73597511889e-05 0.0 0.0 0.0
37 1 13.11968918032787 3.4758759344262296 9.81058927694e-05 0.0 0.0 0.0
38 1 15.542790819672133 3.9373255737704924 6.37058505717e-05 0.0 0.0 0.0
39 1 17.944685901639346 3.024302491803279 7.17820577212e-05 0.0 0.0 0.0
40 1 21.636444590163936 3.410928327868853 1.70829879075e-05 0.0 0.0 0.0
41 1 24.162196065573774 3.428964 3.91107575793e-05 0.0 0.0 0.0
42 1 26.591861639344266 3.7778421639344266 9.67288361138e-05 0.0 0.0 0.0
43 1 29.18128327868853 3.978385508196722 2.12702655465e-05 0.0 0.0 0.0
44 1 32.38493770491803 3.5622017704918036 9.97392774161e-06 0.0 0.0 0.0
45 1 34.82773114754099 4.460274229508197 3.92038612596e-05 0.0 0.0 0.0
46 1 37.540706229508196 3.34812662295082 1.15905103236e-05 0.0 0.0 0.0
47 1 40.146234754098366 3.0290941639344267 5.59155416168e-06 0.0 0.0 0.0
48 1 42.714550819672134 4.020687540983607 7.58813067777e-05 0.0 0.0 0.0
49 1 45.56001639344263 3.162286491803279 7.78587504632e-05 0.0 0.0 0.0
50 1 48.27066885245902 2.8778207213114757 4.29915933571e-05 0.0 0.0 0.0
51 1 50.70689836065574 4.087074163934427 8.04671721737e-05 0.0 0.0 0.0
52 1 53.49859016393443 3.161726032786886 8.99127924401e-05 0.0 0.0 0.0
53 1 56.20899016393443 3.031472327868853 9.48441273677e-05 0.0 0.0 0.0
54 1 58.8396131147541 2.878573049180328 5.94171799344e-05 0.0 0.0 0.0
55 1 61.35057049180328 2.5977426885245904 9.30033769639e-05 0.0 0.0 0.0
56 1 64.11550163934427 2.3924480655737708 3.30048921805e-05 0.0 0.0 0.0
57 1 66.85114754098362 2.564514032786885 3.18654835788e-05 0.0 0.0 0.0
58 1 69.21921311475411 2.934906754098361 5.15514588378e-05 0.0 0.0 0.0
59 1 71.87760655737705 2.859527540983607 6.05852353775e-05 0.0 0.0 0.0
60 1 74.49762622950821 3.0649130491803285 1.68954772386e-05 0.0 0.0 0.0
61 1 77.18076065573771 2.9371536393442628 8.50409211035e-05 0.0 0.0 0.0
62 1 79.73059672131147 2.52583731147541 3.94432877238e-05 0.0 0.0 0.0
63 1 0.7929434754098361 4.913261442622951 5.74678303075e-05 0.0 0.0 0.0
64 1 3.5084229508196727 4.944334098360657 5.46041771536e-05 0.0 0.0 0.0
65 1 5.705573770491804 4.211713180327869 4.99538829003e-05 0.0 0.0 0.0
66 1 9.324270819672131 5.204745573770492 3.97354671935e-05 0.0 0.0 0.0
67 1 11.728488524590166 5.353191475409837 4.43795805675e-05 0.0 0.0 0.0
68 1 13.092777049180329 7.347920655737705 8.48611890405e-05 0.0 0.0 0.0
69 1 17.232499016393444 5.815797377049181 9.25811123586e-05 0.0 0.0 0.0
70 1 20.055142295081968 5.5841914754098365 5.33325002893e-05 0.0 0.0 0.0
71 1 22.771853770491806 5.821805901639345 2.96250744291e-05 0.0 0.0 0.0
72 1 25.34188655737705 6.0328616393442624 1.46034433039e-05 0.0 0.0 0.0
73 1 28.02037573770492 6.172622950819672 6.50353266564e-05 0.0 0.0 0.0
74 1 30.28927540983607 5.0821514754098365 4.11204621778e-05 0.0 0.0 0.0
75 1 34.26323278688525 5.900674098360657 1.20424509951e-05 0.0 0.0 0.0
76 1 36.78489442622951 5.819028852459017 6.89686313612e-05 0.0 0.0 0.0
77 1 39.29544786885246 5.538698360655738 3.30772044032e-05 0.0 0.0 0.0
78 1 41.96070819672131 5.3517777049180335 3.18351622375e-05 0.0 0.0 0.0
79 1 44.55250295081967 5.4807337704918035 2.01605418915e-06 0.0 0.0 0.0
80 1 47.196405245901644 5.282654426229509 9.96876764422e-05 0.0 0.0 0.0
81 1 49.95967016393443 5.430040000000001 5.85589118671e-05 0.0 0.0 0.0
82 1 52.503901639344264 5.578637377049181 8.51683252206e-05 0.0 0.0 0.0
83 1 55.10170491803279 5.371217049180329 7.59449548002e-05 0.0 0.0 0.0
84 1 57.74747540983607 5.303002622950821 2.14277654847e-05 0.0 0.0 0.0
85 1 60.35436721311476 5.169552786885246 6.2510826212e-05 0.0 0.0 0.0
86 1 62.80978360655738 4.672627606557377 6.14720194089e-05 0.0 0.0 0.0
87 1 65.5620918032787 4.680342754098361 3.71825405819e-05 0.0 0.0 0.0
88 1 68.0568918032787 5.2532177049180335 6.14476690441e-06 0.0 0.0 0.0
89 1 70.66024918032787 5.171067540983607 3.28640230215e-05 0.0 0.0 0.0
90 1 73.0000393442623 6.320866885245902 7.51474041658e-05 0.0 0.0 0.0
91 1 75.81041311475411 5.3316819672131155 1.44634923734e-05 0.0 0.0 0.0
92 1 79.29283278688526 4.933488459016394 3.78432220022e-05 0.0 0.0 0.0
93 1 80.83283278688526 4.808384918032787 4.19438802485e-05 0.0 0.0 0.0
94 1 82.25468196721313 7.195637377049181 7.61099765852e-05 0.0 0.0 0.0
95 1 2.327803409836066 7.164231475409837 8.93852454998e-05 0.0 0.0 0.0
96 1 5.1929304918032795 7.056885901639345 8.24469176984e-07 0.0 0.0 0.0
97 1 7.88828393442623 7.297024918032788 4.8613660465e-05 0.0 0.0 0.0
98 1 10.49982098360656 7.74468524590164 4.5558608598e-05 0.0 0.0 0.0
99 1 14.626314098360657 7.452741639344263 8.36362180549e-05 0.0 0.0 0.0
100 1 16.391659016393444 8.281665573770493 9.2043328373e-06 0.0 0.0 0.0
101 1 18.746142295081967 7.871167213114755 2.6855419571e-05 0.0 0.0 0.0
102 1 21.501833442622953 7.963920655737706 5.30449375545e-05 0.0 0.0 0.0
103 1 24.104635409836067 8.296257704918034 5.60766719357e-07 0.0 0.0 0.0
104 1 26.81952918032787 8.36108918032787 7.140249475e-05 0.0 0.0 0.0
105 1 29.703419016393447 7.97028262295082 4.13758538309e-05 0.0 0.0 0.0
106 1 32.57458491803279 7.925092459016394 4.19642422683e-05 0.0 0.0 0.0
107 1 36.27108983606558 8.099844590163935 7.97765895754e-05 0.0 0.0 0.0
108 1 37.820329836065575 8.062228196721312 1.44643820972e-05 0.0 0.0 0.0
109 1 41.24539081967213 7.659808524590165 5.09373927793e-05 0.0 0.0 0.0
110 1 42.795135737704925 7.665059672131148 4.39047260062e-05 0.0 0.0 0.0
111 1 45.641156721311475 7.65344655737705 4.92284747585e-06 0.0 0.0 0.0
112 1 48.44648131147542 7.574931803278689 1.21203796105e-05 0.0 0.0 0.0
113 1 51.12345573770492 7.870106885245902 5.22872035315e-05 0.0 0.0 0.0
114 1 53.78639344262296 7.814969836065575 4.9516318803e-06 0.0 0.0 0.0
115 1 56.44882622950821 7.674855081967214 9.21871001575e-05 0.0 0.0 0.0
116 1 59.153167213114756 7.622293114754099 3.20379089689e-05 0.0 0.0 0.0
117 1 62.65578360655738 7.068398032786886 5.0233108577e-05 0.0 0.0 0.0
118 1 64.18921967213116 6.838609836065575 1.45057467896e-05 0.0 0.0 0.0
119 1 66.48356721311475 8.402441967213116 7.70926351658e-05 0.0 0.0 0.0
120 1 69.44087213114754 7.6414295081967225 4.67101818458e-05 0.0 0.0 0.0
121 1 72.29214426229508 7.686114754098361 2.55196271743e-05 0.0 0.0 0.0
122 1 74.70363278688525 7.7150465573770495 9.14172714248e-05 0.0 0.0 0.0
123 1 76.85054426229509 9.073579016393444 4.10558985339e-05 0.0 0.0 0.0
124 1 79.40088524590165 7.561652459016394 9.455579375e-05 0.0 0.0 0.0
125 1 1.288061049180328 9.391879344262296 8.28906615986e-05 0.0 0.0 0.0
126 1 3.9140892459016396 9.207028852459018 9.11349410588e-05 0.0 0.0 0.0
127 1 6.624221639344263 9.477462950819673 4.9746749939e-05 0.0 0.0 0.0
128 1 9.082465573770493 9.877307540983608 4.49641197046e-05 0.0 0.0 0.0
129 1 11.788876721311476 9.936938360655738 8.84715720482e-05 0.0 0.0 0.0
130 1 14.57728655737705 10.38464918032787 5.01605723159e-05 0.0 0.0 0.0
131 1 17.246636721311475 10.478412459016395 2.09745331084e-05 0.0 0.0 0.0
132 1 19.81914360655738 10.070236721311476 1.59988566513e-05 0.0 0.0 0.0
133 1 22.523939016393445 10.468011147540984 9.7121698661e-05 0.0 0.0 0.0
134 1 25.48442491803279 10.613023606557379 5.23550901376e-05 0.0 0.0 0.0
135 1 28.224615081967215 10.25332 2.54972172913e-05 0.0 0.0 0.0
136 1 30.847613770491805 10.12168786885246 5.78566003319e-05 0.0 0.0 0.0
137 1 33.42814885245902 10.466092459016394 5.71597850731e-06 0.0 0.0 0.0
138 1 36.01292524590164 10.709715409836067 1.13164216294e-06 0.0 0.0 0.0
139 1 38.5871993442623 10.754047213114756 8.73148690593e-05 0.0 0.0 0.0
140 1 41.17344 10.272506885245901 7.18348027684e-06 0.0 0.0 0.0
141 1 44.10499409836066 9.791875409836067 8.33841346892e-05 0.0 0.0 0.0
142 1 47.04679803278689 9.777081311475412 1.58431384632e-05 0.0 0.0 0.0
143 1 49.755279344262306 9.996215737704919 6.30382770192e-05 0.0 0.0 0.0
144 1 52.3292 10.142238032786887 8.27611026395e-05 0.0 0.0 0.0
145 1 54.98658360655738 10.04812131147541 5.2667549703e-06 0.0 0.0 0.0
146 1 57.63588852459017 9.935120655737705 7.17859134045e-05 0.0 0.0 0.0
147 1 60.20238688524591 10.01353442622951 5.55784697249e-05 0.0 0.0 0.0
148 1 62.74313442622951 9.808234754098361 6.16368949444e-05 0.0 0.0 0.0
149 1 65.53735081967214 9.649791475409836 5.18643090064e-05 0.0 0.0 0.0
150 1 68.12303606557379 9.927445901639345 8.10627954312e-05 0.0 0.0 0.0
151 1 71.54688524590163 9.71664262295082 3.64802588665e-06 0.0 0.0 0.0
152 1 73.04649180327868 10.124868852459016 1.6372503588e-05 0.0 0.0 0.0
153 1 76.2921049180328 10.51628131147541 9.66290302098e-05 0.0 0.0 0.0
154 1 78.82780327868853 10.10628786885246 5.95926774996e-06 0.0 0.0 0.0
155 1 81.39076721311476 9.437120000000002 3.49937895499e-05 0.0 0.0 0.0
156 1 0.1216645442622951 11.774436065573772 8.10532625357e-05 0.0 0.0 0.0
157 1 3.3465462295081974 11.465022295081969 7.66331297885e-05 0.0 0.0 0.0
158 1 4.876301442622951 11.528995409836067 6.55111024104e-05 0.0 0.0 0.0
159 1 7.399927213114754 12.13595737704918 5.46726585027e-05 0.0 0.0 0.0
160 1 10.335672131147541 12.2422931147541 1.20561046523e-06 0.0 0.0 0.0
161 1 13.09777573770492 12.332875409836067 3.20204209046e-05 0.0 0.0 0.0
162 1 15.630747540983608 12.73125573770492 9.01699001437e-05 0.0 0.0 0.0
163 1 19.29054491803279 12.44395737704918 9.02335622736e-05 0.0 0.0 0.0
164 1 20.81741704918033 12.419216393442623 2.05418056493e-05 0.0 0.0 0.0
165 1 23.079904262295084 11.904704918032788 4.41067205527e-05 0.0 0.0 0.0
166 1 26.67714229508197 12.607601311475412 3.6304816262e-05 0.0 0.0 0.0
167 1 29.264897704918035 12.51181836065574 6.75568772791e-05 0.0 0.0 0.0
168 1 31.89304655737705 12.633251147540983 3.09339373129e-05 0.0 0.0 0.0
169 1 34.538160655737705 12.920953442622952 7.02846357222e-05 0.0 0.0 0.0
170 1 37.29531606557377 13.238748852459018 5.72567956394e-06 0.0 0.0 0.0
171 1 40.43676459016394 12.802802622950821 9.66831128419e-05 0.0 0.0 0.0
172 1 43.11010360655738 11.966405901639346 4.81077103673e-06 0.0 0.0 0.0
173 1 45.808789508196725 11.744342950819673 1.61887580476e-05 0.0 0.0 0.0
174 1 48.51075737704918 12.13025180327869 7.81764259143e-05 0.0 0.0 0.0
175 1 50.902301639344266 12.458347540983608 2.74536890173e-05 0.0 0.0 0.0
176 1 53.503134426229515 12.40169573770492 1.20789155714e-05 0.0 0.0 0.0
177 1 56.25594754098361 12.306771147540985 5.92787207915e-05 0.0 0.0 0.0
178 1 58.865868852459016 12.351001967213117 8.60994421531e-05 0.0 0.0 0.0
179 1 61.42832786885246 12.288594098360658 2.60911985637e-05 0.0 0.0 0.0
180 1 64.09076065573771 12.000336393442623 7.90097422307e-05 0.0 0.0 0.0
181 1 66.66836721311476 12.108893770491804 2.9290962217e-05 0.0 0.0 0.0
182 1 69.02986885245903 13.44692655737705 1.24898922648e-05 0.0 0.0 0.0
183 1 71.63171147540984 12.284706229508199 6.86036438656e-05 0.0 0.0 0.0
184 1 73.86344918032788 11.46729442622951 6.8327159416e-05 0.0 0.0 0.0
185 1 77.62559344262296 12.621789508196722 7.32487184224e-05 0.0 0.0 0.0
186 1 80.21430819672133 12.011343606557377 6.63086926962e-05 0.0 0.0 0.0
187 1 0.8604510163934427 14.366786229508199 3.94189199249e-05 0.0 0.0 0.0
188 1 3.246133180327869 14.28281836065574 9.70294114246e-05 0.0 0.0 0.0
189 1 5.9543468852459025 14.170625573770494 4.52740218428e-07 0.0 0.0 0.0
190 1 7.957861639344263 13.592645901639345 1.33673800948e-05 0.0 0.0 0.0
191 1 11.451641967213115 14.4475731147541 2.02927626924e-06 0.0 0.0 0.0
192 1 13.884084590163935 14.902302295081968 4.88675641312e-05 0.0 0.0 0.0
193 1 16.506376393442626 15.158598688524592 8.87670627544e-05 0.0 0.0 0.0
194 1 19.235205901639347 14.944462950819673 4.20643571954e-05 0.0 0.0 0.0
195 1 22.16332655737705 14.703920000000002 1.27464247336e-05 0.0 0.0 0.0
196 1 24.876049180327872 14.773699672131148 6.25030629606e-05 0.0 0.0 0.0
197 1 27.58776196721312 14.874329836065575 8.31395519269e-05 0.0 0.0 0.0
198 1 30.318308196721315 14.879328524590166 1.26361208234e-06 0.0 0.0 0.0
199 1 33.03082885245902 15.069177704918033 4.53361008705e-05 0.0 0.0 0.0
200 1 35.5763731147541 15.240193442622951 6.28909858792e-05 0.0 0.0 0.0
201 1 37.97185573770492 14.684783606557378 6.61942194496e-05 0.0 0.0 0.0
202 1 41.840083278688525 14.462064262295083 4.40214088557e-05 0.0 0.0 0.0
203 1 45.29160196721312 13.864746229508198 1.30757413975e-05 0.0 0.0 0.0
204 1 46.793884590163934 14.099634098360658 8.58906978986e-05 0.0 0.0 0.0
205 1 49.19678950819672 14.75638098360656 1.72668281315e-05 0.0 0.0 0.0
206 1 52.152478688524596 14.80601442622951 7.04523679249e-05 0.0 0.0 0.0
207 1 54.85681967213115 14.564613114754101 1.77837331788e-05 0.0 0.0 0.0
208 1 57.53944918032787 14.680693770491803 2.05214852803e-05 0.0 0.0 0.0
209 1 60.02819016393443 14.710231475409838 3.87524528528e-05 0.0 0.0 0.0
210 1 62.48764590163935 14.421872786885247 2.51845356459e-05 0.0 0.0 0.0
211 1 65.21975737704919 14.45595475409836 5.10940211945e-05 0.0 0.0 0.0
212 1 68.48506229508197 14.865443278688526 5.5934270898e-05 0.0 0.0 0.0
213 1 71.10457704918034 14.772235409836066 8.1719598609e-05 0.0 0.0 0.0
214 1 73.61200000000001 14.294027540983608 9.59897054883e-05 0.0 0.0 0.0
215 1 76.31129180327869 14.690034754098363 8.93311985131e-05 0.0 0.0 0.0
216 1 79.71191475409837 14.418439344262296 6.38720391669e-05 0.0 0.0 0.0
217 1 81.20748196721313 14.14800524590164 5.21747147662e-05 0.0 0.0 0.0
218 1 81.9709180327869 16.710110819672135 3.73830122737e-05 0.0 0.0 0.0
219 1 1.8901808524590165 16.787161311475412 5.88365806534e-05 0.0 0.0 0.0
220 1 4.644493573770492 16.461135737704918 6.71065274018e-05 0.0 0.0 0.0
221 1 7.389071475409836 16.58862754098361 2.05775396587e-05 0.0 0.0 0.0
222 1 9.924668852459018 16.548638032786886 9.26760025663e-06 0.0 0.0 0.0
223 1 12.179430819672133 18.11388393442623 6.47392677359e-05 0.0 0.0 0.0
224 1 15.083315409836068 17.3605462295082 8.15698399348e-05 0.0 0.0 0.0
225 1 17.879551475409837 17.2589062295082 4.71670993305e-05 0.0 0.0 0.0
226 1 20.674676721311474 16.874360655737707 1.68422361756e-05 0.0 0.0 0.0
227 1 23.385177704918036 17.086729180327872 7.38579384567e-05 0.0 0.0 0.0
228 1 26.08840786885246 17.1240931147541 3.84652421208e-05 0.0 0.0 0.0
229 1 28.85515672131148 17.111470163934428 1.11738560948e-05 0.0 0.0 0.0
230 1 31.592317377049184 17.207808524590163 9.81432023074e-05 0.0 0.0 0.0
231 1 34.20526819672132 17.546305573770493 2.97532525934e-05 0.0 0.0 0.0
232 1 37.023114754098366 17.399677377049183 8.33828244964e-05 0.0 0.0 0.0
233 1 39.72851606557377 17.055525245901638 9.26853528836e-05 0.0 0.0 0.0
234 1 43.6068924590164 16.72031016393443 3.83090657288e-05 0.0 0.0 0.0
235 1 45.121596065573776 16.66941442622951 5.97719849806e-05 0.0 0.0 0.0
236 1 47.58675737704918 16.815537704918036 4.47892192053e-06 0.0 0.0 0.0
237 1 49.782797377049185 16.184794098360655 9.42818162534e-05 0.0 0.0 0.0
238 1 53.37740983606558 16.899101639344263 6.79677496171e-06 0.0 0.0 0.0
239 1 55.936334426229514 16.86850360655738 2.78406855518e-05 0.0 0.0 0.0
240 1 58.57251147540985 17.142977049180327 1.79854930581e-05 0.0 0.0 0.0
241 1 61.31421639344263 17.033813770491804 9.28404217428e-05 0.0 0.0 0.0
242 1 63.83426229508197 16.634979016393444 5.30535980903e-05 0.0 0.0 0.0
243 1 65.89836721311477 15.842611147540985 5.24152208411e-05 0.0 0.0 0.0
244 1 69.61405901639345 17.074661639344264 5.62429277586e-05 0.0 0.0 0.0
245 1 72.27901639344263 16.875673442622954 9.48340709846e-05 0.0 0.0 0.0
246 1 74.70161311475411 16.78605049180328 8.05977133823e-05 0.0 0.0 0.0
247 1 77.27063606557378 17.192004590163936 2.76734659771e-05 0.0 0.0 0.0
248 1 80.41274098360655 16.680219672131148 7.62373828509e-05 0.0 0.0 0.0
249 1 0.909412918032787 19.11609573770492 4.85981169047e-05 0.0 0.0 0.0
250 1 3.5955112131147544 18.783253770491807 9.55186164474e-05 0.0 0.0 0.0
251 1 5.922940983606558 19.87796655737705 3.91894425713e-05 0.0 0.0 0.0
252 1 8.750936393442624 19.1599731147541 9.45114537258e-05 0.0 0.0 0.0
253 1 11.424325901639346 19.46878098360656 4.44920783579e-05 0.0 0.0 0.0
254 1 14.031470163934427 19.615207213114758 1.52824784504e-05 0.0 0.0 0.0
255 1 16.85381049180328 19.460146885245905 4.65864734825e-05 0.0 0.0 0.0
256 1 19.528765245901642 19.188702950819675 3.07586315268e-05 0.0 0.0 0.0
257 1 21.56469573770492 20.465438688524593 2.08360913837e-05 0.0 0.0 0.0
258 1 24.973548852459018 19.437375081967215 6.94440476872e-05 0.0 0.0 0.0
259 1 27.78927475409836 19.30862098360656 5.82781577131e-05 0.0 0.0 0.0
260 1 30.47680196721312 19.347651147540983 9.94066002374e-05 0.0 0.0 0.0
261 1 32.77751147540984 20.852205901639348 6.61786401289e-05 0.0 0.0 0.0
262 1 35.610101639344265 19.662164590163936 2.07969339644e-05 0.0 0.0 0.0
263 1 38.47808655737705 19.517707540983608 8.42357532352e-05 0.0 0.0 0.0
264 1 41.784744262295085 19.301703606557382 4.22565054238e-05 0.0 0.0 0.0
265 1 43.32954098360656 19.192590819672134 8.26884838466e-06 0.0 0.0 0.0
266 1 46.22554885245902 19.201527868852462 7.91894724245e-05 0.0 0.0 0.0
267 1 49.04152721311476 19.060453770491804 2.77702752972e-05 0.0 0.0 0.0
268 1 51.71269508196722 19.021524590163935 8.23648451709e-05 0.0 0.0 0.0
269 1 54.49984262295083 19.228995409836067 1.58224262061e-05 0.0 0.0 0.0
270 1 57.10168524590164 19.274690491803284 7.47355859735e-05 0.0 0.0 0.0
271 1 59.174373770491805 18.563563934426234 3.14914201346e-05 0.0 0.0 0.0
272 1 62.71839344262296 19.17269704918033 5.90817092677e-05 0.0 0.0 0.0
273 1 65.16926557377049 18.7742662295082 8.28751608151e-05 0.0 0.0 0.0
274 1 67.76201967213116 18.789110819672135 7.54933804499e-05 0.0 0.0 0.0
275 1 70.63550819672132 19.1869862295082 2.17894957489e-05 0.0 0.0 0.0
276 1 73.15454426229508 19.27655868852459 7.72892808274e-05 0.0 0.0 0.0
277 1 75.57057704918034 19.313013770491807 1.05495575609e-05 0.0 0.0 0.0
278 1 78.32742950819673 19.625103606557378 3.46997799601e-05 0.0 0.0 0.0
279 1 80.86918688524591 19.443535081967216 8.59874667142e-05 0.0 0.0 0.0
280 1 82.36828852459017 21.54308524590164 6.88618087944e-05 0.0 0.0 0.0
281 1 2.531734754098361 21.285122622950823 2.95928762937e-05 0.0 0.0 0.0
282 1 5.351424262295082 21.305773770491804 4.27185617256e-05 0.0 0.0 0.0
283 1 7.668745573770493 22.828758032786887 2.62187301391e-05 0.0 0.0 0.0
284 1 10.254784262295082 21.71899868852459 7.26343839101e-05 0.0 0.0 0.0
285 1 12.757208524590164 21.87315016393443 4.83178180872e-05 0.0 0.0 0.0
286 1 15.45129967213115 21.658812459016396 7.96514413443e-05 0.0 0.0 0.0
287 1 18.133424262295087 21.657297704918033 9.910200072e-05 0.0 0.0 0.0
288 1 20.835240655737707 21.801199344262297 4.24117535937e-05 0.0 0.0 0.0
289 1 22.886975081967215 21.21660524590164 8.76532475009e-05 0.0 0.0 0.0
290 1 26.4081724590164 21.499106885245904 7.4276476083e-05 0.0 0.0 0.0
291 1 29.068888524590168 21.629274754098365 6.27946158361e-05 0.0 0.0 0.0
292 1 32.31849049180328 22.353731147540984 5.510214213e-05 0.0 0.0 0.0
293 1 34.6163724590164 21.95868327868853 4.45418016131e-05 0.0 0.0 0.0
294 1 37.304253114754104 21.686027540983606 1.79378392975e-05 0.0 0.0 0.0
295 1 39.663886557377054 22.062544918032792 7.02972439699e-05 0.0 0.0 0.0
296 1 42.21150098360656 21.835079344262297 5.478617447e-06 0.0 0.0 0.0
297 1 45.01425049180328 21.378936393442626 9.71173394952e-05 0.0 0.0 0.0
298 1 47.823462950819675 21.36293049180328 4.91688702119e-05 0.0 0.0 0.0
299 1 50.57965901639345 21.403273442622954 2.34028789721e-05 0.0 0.0 0.0
300 1 53.25572459016394 21.285072131147544 6.00433646693e-05 0.0 0.0 0.0
301 1 55.9984393442623 21.571310163934427 6.23368314231e-05 0.0 0.0 0.0
302 1 58.5699868852459 21.493855737704923 7.38851011875e-06 0.0 0.0 0.0
303 1 61.199600000000004 21.3984262295082 3.3961475477e-05 0.0 0.0 0.0
304 1 63.80396721311476 21.377472131147545 5.18311425756e-05 0.0 0.0 0.0
305 1 66.17506229508197 21.098656393442624 3.78876489631e-05 0.0 0.0 0.0
306 1 68.74105573770493 20.92748918032787 8.57979386079e-05 0.0 0.0 0.0
307 1 71.3716786885246 21.569845901639344 7.51785499781e-05 0.0 0.0 0.0
308 1 74.14923278688526 21.782668852459018 5.80587822561e-05 0.0 0.0 0.0
309 1 76.95051803278689 21.61321836065574 4.2633320326e-05 0.0 0.0 0.0
310 1 79.69777704918033 21.90228393442623 8.56584804468e-05 0.0 0.0 0.0
311 1 0.9912348852459018 23.562605901639348 7.68660472119e-06 0.0 0.0 0.0
312 1 3.792232327868853 23.565736393442627 5.54015594762e-05 0.0 0.0 0.0
313 1 7.16216131147541 24.282316065573774 5.02249918475e-05 0.0 0.0 0.0
314 1 9.54537442622951 24.357700327868855 6.59285243261e-05 0.0 0.0 0.0
315 1 11.902786229508198 24.22475540983607 8.17836706194e-06 0.0 0.0 0.0
316 1 14.507456393442624 23.971942950819674 5.49041062307e-05 0.0 0.0 0.0
317 1 17.11298491803279 24.863123278688526 4.42427818504e-05 0.0 0.0 0.0
318 1 19.844692459016393 23.94119344262295 5.21258638338e-05 0.0 0.0 0.0
319 1 22.422652459016394 24.06030360655738 7.18474824819e-05 0.0 0.0 0.0
320 1 25.0335331147541 23.806178360655743 3.55045996376e-05 0.0 0.0 0.0
321 1 27.461532459016397 23.8107731147541 1.98642942939e-05 0.0 0.0 0.0
322 1 29.67696131147541 25.422723934426234 3.99043549879e-05 0.0 0.0 0.0
323 1 31.30946229508197 23.54165180327869 5.05213503104e-05 0.0 0.0 0.0
324 1 35.718204590163936 23.980678032786887 7.86813874115e-05 0.0 0.0 0.0
325 1 38.28884327868853 24.343865573770497 8.02025871201e-05 0.0 0.0 0.0
326 1 41.11562688524591 24.303320655737707 2.70035608772e-05 0.0 0.0 0.0
327 1 43.882981639344266 23.770127213114755 5.55070493098e-05 0.0 0.0 0.0
328 1 46.62721114754099 23.592850491803283 3.77037771208e-05 0.0 0.0 0.0
329 1 49.27520327868853 23.67949442622951 5.32481169668e-05 0.0 0.0 0.0
330 1 52.87501639344263 23.41042360655738 9.04525457754e-05 0.0 0.0 0.0
331 1 54.427134426229514 23.62132786885246 6.64848582132e-06 0.0 0.0 0.0
332 1 57.21024262295082 23.942960655737707 7.11957255774e-05 0.0 0.0 0.0
333 1 59.886813114754105 23.8169331147541 3.61966068024e-05 0.0 0.0 0.0
334 1 62.65780327868853 23.76103868852459 5.30866740875e-05 0.0 0.0 0.0
335 1 65.2424786885246 23.72423016393443 7.47966753868e-05 0.0 0.0 0.0
336 1 67.80493770491803 23.306360000000005 7.18838085047e-05 0.0 0.0 0.0
337 1 70.57542295081969 24.18809836065574 8.07357411407e-05 0.0 0.0 0.0
338 1 73.41760655737706 24.524676721311476 7.34994972303e-05 0.0 0.0 0.0
339 1 76.0108655737705 23.74993049180328 3.9327327173e-05 0.0 0.0 0.0
340 1 78.10173114754099 25.176929836065575 3.33411799551e-06 0.0 0.0 0.0
341 1 80.92018360655739 24.02879672131148 3.35675152187e-05 0.0 0.0 0.0
342 1 82.63438032786885 25.979295081967216 9.34092361029e-05 0.0 0.0 0.0
343 1 2.427746885245902 25.72542229508197 8.57933743321e-05 0.0 0.0 0.0
344 1 4.54508531147541 24.92916655737705 7.36511167589e-05 0.0 0.0 0.0
345 1 8.078385573770493 26.780095081967215 3.32617195448e-05 0.0 0.0 0.0
346 1 10.593028852459017 26.826648524590166 9.09203961682e-05 0.0 0.0 0.0
347 1 13.43849442622951 26.49572524590164 2.92746078316e-05 0.0 0.0 0.0
348 1 17.247697049180328 26.376615081967216 8.30280357731e-05 0.0 0.0 0.0
349 1 18.766944918032788 26.37404 9.20970084044e-07 0.0 0.0 0.0
350 1 21.24270950819672 26.36873836065574 9.83284817359e-05 0.0 0.0 0.0
351 1 23.821426885245906 26.2747731147541 8.03900619003e-05 0.0 0.0 0.0
352 1 26.43235803278689 26.295878688524596 9.13801656461e-05 0.0 0.0 0.0
353 1 29.094740327868855 26.830132459016397 8.96082465116e-05 0.0 0.0 0.0
354 1 31.541270163934428 26.62245967213115 5.65757061042e-05 0.0 0.0 0.0
355 1 34.23672459016394 26.022869508196724 7.28159567865e-05 0.0 0.0 0.0
356 1 36.642053114754106 27.284760655737706 3.82448702961e-05 0.0 0.0 0.0
357 1 39.517258360655745 26.453918032786888 1.41717514525e-05 0.0 0.0 0.0
358 1 42.895967868852466 26.162024918032788 6.46851571803e-05 0.0 0.0 0.0
359 1 45.58410098360656 25.89643803278689 7.96758172664e-05 0.0 0.0 0.0
360 1 48.014675409836066 25.992675409836068 6.63576078995e-05 0.0 0.0 0.0
361 1 50.39920131147541 26.193481311475413 3.405907904e-05 0.0 0.0 0.0
362 1 52.83209836065575 25.992473442622952 5.38659748432e-05 0.0 0.0 0.0
363 1 55.70053770491804 26.056497049180333 1.38343040509e-06 0.0 0.0 0.0
364 1 58.87293770491804 26.229078032786887 3.73189282146e-05 0.0 0.0 0.0
365 1 61.48790819672132 26.006005245901644 8.28240511246e-05 0.0 0.0 0.0
366 1 64.13872786885247 26.14157573770492 7.26040859735e-05 0.0 0.0 0.0
367 1 67.29749508196721 25.71572786885246 1.33991791117e-05 0.0 0.0 0.0
368 1 70.12907540983608 25.67013377049181 6.17961433557e-05 0.0 0.0 0.0
369 1 72.74505573770493 25.90668786885246 4.0900155463e-05 0.0 0.0 0.0
370 1 75.28327868852459 26.275833442622954 5.23185656191e-05 0.0 0.0 0.0
371 1 77.27972459016394 27.55458885245902 9.62843144176e-05 0.0 0.0 0.0
372 1 79.98053114754099 26.464824262295082 2.52355135786e-05 0.0 0.0 0.0
373 1 1.6651590819672133 28.226533770491805 2.9584017544e-05 0.0 0.0 0.0
374 1 4.058177704918033 27.837040000000002 6.02504047001e-05 0.0 0.0 0.0
375 1 6.08532262295082 29.44798098360656 5.15053100916e-05 0.0 0.0 0.0
376 1 9.782180983606558 30.49028327868853 7.32044428998e-05 0.0 0.0 0.0
377 1 12.173775737704918 28.80284721311476 9.79910091263e-05 0.0 0.0 0.0
378 1 14.782232786885247 28.87131409836066 7.18055543842e-06 0.0 0.0 0.0
379 1 17.191752131147542 28.825619016393446 5.11227649001e-05 0.0 0.0 0.0
380 1 19.948099672131146 28.805472786885247 2.65085839986e-05 0.0 0.0 0.0
381 1 22.57922754098361 28.7011062295082 8.39100237196e-05 0.0 0.0 0.0
382 1 25.082156721311478 28.63445704918033 1.69538280518e-05 0.0 0.0 0.0
383 1 27.634719344262297 28.82309442622951 2.96122881931e-06 0.0 0.0 0.0
384 1 30.939761311475415 30.255546885245906 5.29429808659e-05 0.0 0.0 0.0
385 1 33.33892983606558 28.531201311475414 2.25672531367e-05 0.0 0.0 0.0
386 1 36.010855081967215 28.669397377049183 1.63875271011e-05 0.0 0.0 0.0
387 1 38.49323409836066 28.624712131147543 8.72565508292e-05 0.0 0.0 0.0
388 1 40.577838688524594 27.551256393442628 9.23165132156e-05 0.0 0.0 0.0
389 1 44.39350426229509 28.246629508196722 2.31041987874e-05 0.0 0.0 0.0
390 1 46.888354754098366 28.422643934426233 4.52768111542e-06 0.0 0.0 0.0
391 1 49.29332983606558 28.5909331147541 7.41992679601e-05 0.0 0.0 0.0
392 1 51.815698360655745 28.53357442622951 8.72404316042e-05 0.0 0.0 0.0
393 1 54.43470819672132 28.105302950819674 2.16748190037e-05 0.0 0.0 0.0
394 1 56.613429508196724 27.32515409836066 7.16210947089e-05 0.0 0.0 0.0
395 1 60.442727868852465 28.43476196721312 4.84747514314e-06 0.0 0.0 0.0
396 1 63.023363934426236 28.355540327868855 7.69192072864e-05 0.0 0.0 0.0
397 1 65.10463606557377 27.357519344262297 8.60374759818e-05 0.0 0.0 0.0
398 1 68.55575081967214 29.140485901639344 5.61564335089e-05 0.0 0.0 0.0
399 1 71.33986885245902 28.126862950819678 8.03670777356e-06 0.0 0.0 0.0
400 1 73.59735737704919 29.517962622950822 4.20245668868e-05 0.0 0.0 0.0
401 1 76.47942950819673 28.86475016393443 9.95497177444e-05 0.0 0.0 0.0
402 1 79.05350163934428 28.942356065573776 7.32819245294e-05 0.0 0.0 0.0
403 1 81.68260983606558 28.440518032786887 9.3931673872e-06 0.0 0.0 0.0
404 1 0.4032952000000001 30.591115409836068 3.34486671753e-05 0.0 0.0 0.0
405 1 2.9105798032786887 30.56556655737705 1.5416973751e-05 0.0 0.0 0.0
406 1 5.421355409836066 30.82716459016394 2.85826546755e-05 0.0 0.0 0.0
407 1 7.496972459016394 30.038684590163935 1.04827311137e-05 0.0 0.0 0.0
408 1 12.15676 31.22009180327869 5.97636541162e-05 0.0 0.0 0.0
409 1 13.672019016393444 31.13279147540984 7.59632623678e-06 0.0 0.0 0.0
410 1 16.165859672131152 31.304312131147544 7.61136976067e-05 0.0 0.0 0.0
411 1 18.820213770491804 31.04650098360656 3.40809867859e-05 0.0 0.0 0.0
412 1 21.495118032786888 31.076139672131152 6.86599047226e-06 0.0 0.0 0.0