# input file

2232 atoms
1 atom types

0.0 82.68810555352132 xlo xhi
0.0 83.16 ylo yhi
-10.0 10.0 zlo zhi
0.0 0.0 0.0 xy xz yz

Masses

1 12.0100 #C

Atoms

1 1 1.1089060327868854 0.32360701639344264 9.609267498550319e-05
2 1 3.8836376393442626 0.5103358032786885 4.1612370657868426e-05
3 1 6.584434098360656 0.6157222950819672 5.771222148727752e-05
4 1 9.213946229508197 0.5416154754098361 2.0962404029718353e-05
5 1 12.061229508196723 0.8774415081967214 9.956834438779837e-05
6 1 14.56537049180328 1.4489228852459017 3.776216699260518e-05
7 1 17.108844590163937 1.7397354754098362 1.1895751047998516e-05
8 1 20.256857049180333 1.3782192131147541 7.537894952073614e-05
9 1 23.04617573770492 1.1087394098360657 1.6353390359424493e-05
10 1 25.764099016393445 1.1923538360655739 7.447690352948147e-05
11 1 28.975933114754103 1.238432655737705 5.774611730556941e-05
12 1 30.505329836065577 1.2230124590163935 7.147052579353515e-05
13 1 32.980337049180335 1.158670754098361 3.770259547248677e-05
14 1 35.80621180327869 1.057863868852459 9.575250871890923e-05
15 1 38.393613770491804 0.9284432786885247 7.245204512845648e-05
16 1 41.147184262295085 0.8072780983606558 7.857153044220735e-05
17 1 43.9016131147541 0.9853273442622952 6.766960890065871e-05
18 1 46.567428852459024 0.7782857049180328 6.0852753194831e-05
19 1 49.31448590163935 0.6435887213114755 3.4761226472272455e-05
20 1 52.00100327868853 0.9003445901639345 9.84004958809006e-05
21 1 54.70029508196721 0.8163161311475411 4.046269901497379e-06
22 1 57.37383606557378 0.6231142950819673 2.3178960289365737e-05
23 1 59.985777049180335 0.4093224065573771 2.0820697325511506e-05
24 1 62.695672131147546 0.23993099016393446 9.879412448027833e-05
25 1 65.48180983606558 0.15635241311475412 5.57142262855163e-05
26 1 68.19019016393443 0.4322603278688525 1.867405563894311e-05
27 1 70.68044590163936 0.6603974426229509 3.017493665712656e-05
28 1 73.3656 0.5714914754098361 9.919543628548978e-05
29 1 75.88867540983608 0.6827299672131149 1.3966838646000435e-05
30 1 78.38549508196722 0.3239927737704918 6.772128604007681e-05
31 1 81.07317377049182 0.18237538360655742 4.085728921059396e-05
32 1 82.36374426229509 2.5040702950819678 9.933451925246185e-05
33 1 2.258301442622951 2.60639193442623 7.35949757082525e-05
34 1 4.976961901639345 2.8548015081967217 8.50527263393471e-05
35 1 7.9439259016393455 2.9661813770491805 3.6508837242958173e-06
36 1 10.536074098360658 2.797417573770492 8.710558865440906e-05
37 1 13.11968918032787 3.4758759344262296 9.344094584871032e-05
38 1 15.542790819672133 3.9373255737704924 3.3686949846100103e-06
39 1 17.944685901639346 3.024302491803279 1.86816343082296e-05
40 1 21.636444590163936 3.410928327868853 8.850335257307943e-05
41 1 24.162196065573774 3.428964 2.6818594368369243e-05
42 1 26.591861639344266 3.7778421639344266 3.1882990343839237e-06
43 1 29.18128327868853 3.978385508196722 5.832118561717024e-05
44 1 32.38493770491803 3.5622017704918036 3.054967630828476e-05
45 1 34.82773114754099 4.460274229508197 7.014246335244592e-05
46 1 37.540706229508196 3.34812662295082 2.5980898694963894e-05
47 1 40.146234754098366 3.0290941639344267 2.3045688369161765e-05
48 1 42.714550819672134 4.020687540983607 2.7002662326126825e-05
49 1 45.56001639344263 3.162286491803279 5.6257977464519075e-05
50 1 48.27066885245902 2.8778207213114757 4.4469081329150585e-05
51 1 50.70689836065574 4.087074163934427 5.605346013419182e-05
52 1 53.49859016393443 3.161726032786886 1.3854669371431594e-05
53 1 56.20899016393443 3.031472327868853 5.943364967814846e-05
54 1 58.8396131147541 2.878573049180328 3.445389039805578e-05
55 1 61.35057049180328 2.5977426885245904 1.5808271098732406e-05
56 1 64.11550163934427 2.3924480655737708 7.892497359601974e-05
57 1 66.85114754098362 2.564514032786885 7.050356597002883e-06
58 1 69.21921311475411 2.934906754098361 6.209139602631147e-05
59 1 71.87760655737705 2.859527540983607 9.947713371178682e-05
60 1 74.49762622950821 3.0649130491803285 6.89547654341088e-05
61 1 77.18076065573771 2.9371536393442628 5.1870677680655586e-05
62 1 79.73059672131147 2.52583731147541 9.741004068235751e-05
63 1 0.7929434754098361 4.913261442622951 6.225389478189037e-05
64 1 3.5084229508196727 4.944334098360657 8.220409908172523e-05
65 1 5.705573770491804 4.211713180327869 7.842169335627565e-05
66 1 9.324270819672131 5.204745573770492 7.657646496637043e-05
67 1 11.728488524590166 5.353191475409837 8.633592113061978e-05
68 1 13.092777049180329 7.347920655737705 2.637821387595418e-06
69 1 17.232499016393444 5.815797377049181 6.342578937104155e-05
70 1 20.055142295081968 5.5841914754098365 1.3276322360261007e-05
71 1 22.771853770491806 5.821805901639345 8.12015904935868e-05
72 1 25.34188655737705 6.0328616393442624 3.982486692582763e-05
73 1 28.02037573770492 6.172622950819672 9.560421957659783e-05
74 1 30.28927540983607 5.0821514754098365 4.715906117357888e-05
75 1 34.26323278688525 5.900674098360657 4.981192209065904e-05
76 1 36.78489442622951 5.819028852459017 9.041394454505558e-05
77 1 39.29544786885246 5.538698360655738 3.914101603691417e-05
78 1 41.96070819672131 5.3517777049180335 6.463760430404105e-05
79 1 44.55250295081967 5.4807337704918035 1.2596957542541876e-05
80 1 47.196405245901644 5.282654426229509 8.570808288021887e-05
81 1 49.95967016393443 5.430040000000001 3.0556919568550135e-05
82 1 52.503901639344264 5.578637377049181 9.755617900463053e-05
83 1 55.10170491803279 5.371217049180329 5.095129440488865e-05
84 1 57.74747540983607 5.303002622950821 7.82370125664833e-05
85 1 60.35436721311476 5.169552786885246 9.703079428482697e-05
86 1 62.80978360655738 4.672627606557377 9.869580336935954e-05
87 1 65.5620918032787 4.680342754098361 6.009051347499171e-05
88 1 68.0568918032787 5.2532177049180335 1.2110629672108687e-05
89 1 70.66024918032787 5.171067540983607 4.251484017583525e-05
90 1 73.0000393442623 6.320866885245902 4.280741262255873e-05
91 1 75.81041311475411 5.3316819672131155 5.38902865982725e-05
92 1 79.29283278688526 4.933488459016394 3.058987618916399e-05
93 1 80.83283278688526 4.808384918032787 4.087981366966448e-05
94 1 82.25468196721313 7.195637377049181 6.501087255321426e-06
95 1 2.327803409836066 7.164231475409837 8.670534921506477e-05
96 1 5.1929304918032795 7.056885901639345 5.933224235094336e-05
97 1 7.88828393442623 7.297024918032788 8.697779113062654e-05
98 1 10.49982098360656 7.74468524590164 9.620132344411905e-05
99 1 14.626314098360657 7.452741639344263 1.1824521215725693e-05
100 1 16.391659016393444 8.281665573770493 3.1606809150956906e-05
101 1 18.746142295081967 7.871167213114755 4.421757943433914e-05
102 1 21.501833442622953 7.963920655737706 1.3176685230698005e-05
103 1 24.104635409836067 8.296257704918034 7.532084018010727e-05
104 1 26.81952918032787 8.36108918032787 4.756882595053932e-05
105 1 29.703419016393447 7.97028262295082 9.047985090150363e-05
106 1 32.57458491803279 7.925092459016394 9.836615225785965e-05
107 1 36.27108983606558 8.099844590163935 3.935298055527645e-05
108 1 37.820329836065575 8.062228196721312 4.530164630583417e-05
109 1 41.24539081967213 7.659808524590165 3.4219755604796565e-05
110 1 42.795135737704925 7.665059672131148 6.777894310845755e-05
111 1 45.641156721311475 7.65344655737705 8.386662726828503e-05
112 1 48.44648131147542 7.574931803278689 1.709629295461519e-05
113 1 51.12345573770492 7.870106885245902 5.5380914257377455e-06
114 1 53.78639344262296 7.814969836065575 5.6608829295452605e-05
115 1 56.44882622950821 7.674855081967214 6.088016667773555e-06
116 1 59.153167213114756 7.622293114754099 1.9401848580734018e-06
117 1 62.65578360655738 7.068398032786886 8.522885890685131e-05
118 1 64.18921967213116 6.838609836065575 5.572047528894376e-05
119 1 66.48356721311475 8.402441967213116 8.410338006481087e-05
120 1 69.44087213114754 7.6414295081967225 1.4749797188547854e-06
121 1 72.29214426229508 7.686114754098361 4.0672468621721146e-05
122 1 74.70363278688525 7.7150465573770495 5.806162877092791e-07
123 1 76.85054426229509 9.073579016393444 9.443046506847509e-05
124 1 79.40088524590165 7.561652459016394 6.665600232758728e-05
125 1 1.288061049180328 9.391879344262296 9.091084540829514e-05
126 1 3.9140892459016396 9.207028852459018 6.539702688633907e-05
127 1 6.624221639344263 9.477462950819673 9.579789857573597e-05
128 1 9.082465573770493 9.877307540983608 3.377010777821591e-05
129 1 11.788876721311476 9.936938360655738 8.542672329092394e-05
130 1 14.57728655737705 10.38464918032787 2.6829945427535298e-05
131 1 17.246636721311475 10.478412459016395 5.383427245630154e-05
132 1 19.81914360655738 10.070236721311476 1.739451624319295e-05
133 1 22.523939016393445 10.468011147540984 2.060322798246508e-05
134 1 25.48442491803279 10.613023606557379 3.7204073103348724e-05
135 1 28.224615081967215 10.25332 1.261257445681674e-05
136 1 30.847613770491805 10.12168786885246 5.166159107916046e-06
137 1 33.42814885245902 10.466092459016394 8.602254561605305e-05
138 1 36.01292524590164 10.709715409836067 1.4413552825232912e-05
139 1 38.5871993442623 10.754047213114756 4.6212328446818954e-05
140 1 41.17344 10.272506885245901 3.324513244959717e-05
141 1 44.10499409836066 9.791875409836067 2.5822630176717322e-05
142 1 47.04679803278689 9.777081311475412 3.724606846772651e-05
143 1 49.755279344262306 9.996215737704919 8.145087410126811e-05
144 1 52.3292 10.142238032786887 8.798681635036218e-05
145 1 54.98658360655738 10.04812131147541 5.3965581055593597e-05
146 1 57.63588852459017 9.935120655737705 2.5466473468357165e-05
147 1 60.20238688524591 10.01353442622951 1.466957640440353e-05
148 1 62.74313442622951 9.808234754098361 9.560431721184365e-05
149 1 65.53735081967214 9.649791475409836 6.21002887456964e-06
150 1 68.12303606557379 9.927445901639345 8.804789897246576e-05
151 1 71.54688524590163 9.71664262295082 5.888821614146755e-05
152 1 73.04649180327868 10.124868852459016 7.39587223241736e-05
153 1 76.2921049180328 10.51628131147541 9.186093225783116e-05
154 1 78.82780327868853 10.10628786885246 7.75984406124151e-05
155 1 81.39076721311476 9.437120000000002 6.596433700515315e-05
156 1 0.1216645442622951 11.774436065573772 2.9436058403987667e-06
157 1 3.3465462295081974 11.465022295081969 7.774901804137099e-05
158 1 4.876301442622951 11.528995409836067 3.3086762626570624e-06
159 1 7.399927213114754 12.13595737704918 2.6513622984644027e-05
160 1 10.335672131147541 12.2422931147541 4.237822207770299e-05
161 1 13.09777573770492 12.332875409836067 9.553793001101773e-05
162 1 15.630747540983608 12.73125573770492 3.322404474460373e-05
163 1 19.29054491803279 12.44395737704918 5.405534221244416e-05
164 1 20.81741704918033 12.419216393442623 9.385132905627404e-06
165 1 23.079904262295084 11.904704918032788 3.306555265163126e-05
166 1 26.67714229508197 12.607601311475412 6.669082400425876e-05
167 1 29.264897704918035 12.51181836065574 7.860888591011538e-06
168 1 31.89304655737705 12.633251147540983 7.696036743609654e-05
169 1 34.538160655737705 12.920953442622952 6.774236199624746e-05
170 1 37.29531606557377 13.238748852459018 8.362728990336999e-06
171 1 40.43676459016394 12.802802622950821 2.6654757246221283e-05
172 1 43.11010360655738 11.966405901639346 7.297963900954904e-05
173 1 45.808789508196725 11.744342950819673 5.291629622147676e-05
174 1 48.51075737704918 12.13025180327869 6.655952596983913e-05
175 1 50.902301639344266 12.458347540983608 9.840767386781387e-05
176 1 53.503134426229515 12.40169573770492 9.327919034778441e-05
177 1 56.25594754098361 12.306771147540985 3.386625265088209e-05
178 1 58.865868852459016 12.351001967213117 3.5513012631536845e-05
179 1 61.42832786885246 12.288594098360658 8.1762278381951e-05
180 1 64.09076065573771 12.000336393442623 6.184562747594517e-05
181 1 66.66836721311476 12.108893770491804 4.035513044981477e-05
182 1 69.02986885245903 13.44692655737705 1.4089753259990556e-05
183 1 71.63171147540984 12.284706229508199 2.8922626413040256e-05
184 1 73.86344918032788 11.46729442622951 9.662499944275286e-05
185 1 77.62559344262296 12.621789508196722 8.798318054029107e-05
186 1 80.21430819672133 12.011343606557377 4.3547719541005014e-05
187 1 0.8604510163934427 14.366786229508199 9.758183331208199e-05
188 1 3.246133180327869 14.28281836065574 6.161040286838964e-05
189 1 5.9543468852459025 14.170625573770494 2.4023270449178325e-05
190 1 7.957861639344263 13.592645901639345 6.119641729006808e-07
191 1 11.451641967213115 14.4475731147541 3.963137236451507e-05
192 1 13.884084590163935 14.902302295081968 2.5532151149640004e-05
193 1 16.506376393442626 15.158598688524592 4.662588665988554e-05
194 1 19.235205901639347 14.944462950819673 9.873911439642089e-05
195 1 22.16332655737705 14.703920000000002 8.260569079307988e-05
196 1 24.876049180327872 14.773699672131148 1.9345271259122777e-06
197 1 27.58776196721312 14.874329836065575 4.954646322091123e-05
198 1 30.318308196721315 14.879328524590166 2.511736890690395e-05
199 1 33.03082885245902 15.069177704918033 5.5870315219902534e-05
200 1 35.5763731147541 15.240193442622951 7.856005760394546e-05
201 1 37.97185573770492 14.684783606557378 1.5437708571532738e-05
202 1 41.840083278688525 14.462064262295083 4.844828183097974e-05
203 1 45.29160196721312 13.864746229508198 6.798824660592798e-05
204 1 46.793884590163934 14.099634098360658 1.9832868343095856e-05
205 1 49.19678950819672 14.75638098360656 8.323405614606436e-05
206 1 52.152478688524596 14.80601442622951 3.885898745371238e-05
207 1 54.85681967213115 14.564613114754101 8.257453830196283e-05
208 1 57.53944918032787 14.680693770491803 2.8188469410682882e-05
209 1 60.02819016393443 14.710231475409838 8.959680296663947e-05
210 1 62.48764590163935 14.421872786885247 3.475040312101381e-05
211 1 65.21975737704919 14.45595475409836 4.724249144160856e-05
212 1 68.48506229508197 14.865443278688526 6.868104067367964e-05
213 1 71.10457704918034 14.772235409836066 4.546671848008327e-05
214 1 73.61200000000001 14.294027540983608 2.3905860449898987e-05
215 1 76.31129180327869 14.690034754098363 7.508832594122516e-05
216 1 79.71191475409837 14.418439344262296 2.8207500206939253e-05
217 1 81.20748196721313 14.14800524590164 2.4103661666309897e-05
218 1 81.9709180327869 16.710110819672135 2.0312199142270584e-05
219 1 1.8901808524590165 16.787161311475412 3.620578090923178e-05
220 1 4.644493573770492 16.461135737704918 5.860087348810951e-05
221 1 7.389071475409836 16.58862754098361 5.362504839962085e-05
222 1 9.924668852459018 16.548638032786886 6.192372831811121e-05
223 1 12.179430819672133 18.11388393442623 6.626028690382552e-05
224 1 15.083315409836068 17.3605462295082 2.7276633891299685e-05
225 1 17.879551475409837 17.2589062295082 3.1812074624010516e-05
226 1 20.674676721311474 16.874360655737707 2.0025087450130564e-05
227 1 23.385177704918036 17.086729180327872 3.814435036854869e-05
228 1 26.08840786885246 17.1240931147541 4.838836186640853e-05
229 1 28.85515672131148 17.111470163934428 8.86265992287761e-05
230 1 31.592317377049184 17.207808524590163 3.5287689930010635e-06
231 1 34.20526819672132 17.546305573770493 2.39061312423726e-05
232 1 37.023114754098366 17.399677377049183 4.0452040179428454e-05
233 1 39.72851606557377 17.055525245901638 1.7435829131787284e-05
234 1 43.6068924590164 16.72031016393443 5.383358622922777e-05
235 1 45.121596065573776 16.66941442622951 8.147465848462266e-07
236 1 47.58675737704918 16.815537704918036 6.231261639409871e-05
237 1 49.782797377049185 16.184794098360655 4.15750809967842e-06
238 1 53.37740983606558 16.899101639344263 9.3956986176372e-05
239 1 55.936334426229514 16.86850360655738 2.9575609378252866e-05
240 1 58.57251147540985 17.142977049180327 9.30935372057966e-05
241 1 61.31421639344263 17.033813770491804 8.957425851193489e-05
242 1 63.83426229508197 16.634979016393444 6.20282501307837e-05
243 1 65.89836721311477 15.842611147540985 1.4015380215083229e-05
244 1 69.61405901639345 17.074661639344264 5.563358044747734e-05
245 1 72.27901639344263 16.875673442622954 5.101323594049685e-05
246 1 74.70161311475411 16.78605049180328 9.833667934002333e-06
247 1 77.27063606557378 17.192004590163936 3.434824099039186e-05
248 1 80.41274098360655 16.680219672131148 3.737146318757632e-05
249 1 0.909412918032787 19.11609573770492 4.668724550780143e-05
250 1 3.5955112131147544 18.783253770491807 4.483163200734834e-05
251 1 5.922940983606558 19.87796655737705 1.761633988786424e-05
252 1 8.750936393442624 19.1599731147541 2.4848397560935935e-07
253 1 11.424325901639346 19.46878098360656 1.3127013263889732e-05
254 1 14.031470163934427 19.615207213114758 1.281697449397712e-06
255 1 16.85381049180328 19.460146885245905 5.822135701389996e-05
256 1 19.528765245901642 19.188702950819675 7.506252775240904e-05
257 1 21.56469573770492 20.465438688524593 4.150882281197691e-05
258 1 24.973548852459018 19.437375081967215 4.2268114003250195e-05
259 1 27.78927475409836 19.30862098360656 8.89754621305398e-05
260 1 30.47680196721312 19.347651147540983 7.912086229031436e-05
261 1 32.77751147540984 20.852205901639348 3.880630454684222e-05
262 1 35.610101639344265 19.662164590163936 7.961703329422069e-05
263 1 38.47808655737705 19.517707540983608 9.702006546026693e-05
264 1 41.784744262295085 19.301703606557382 1.3382356610113489e-05
265 1 43.32954098360656 19.192590819672134 5.8029193132537e-05
266 1 46.22554885245902 19.201527868852462 3.0758445480689446e-05
267 1 49.04152721311476 19.060453770491804 1.3898280670585273e-05
268 1 51.71269508196722 19.021524590163935 9.805691830958591e-05
269 1 54.49984262295083 19.228995409836067 5.93999502591815e-05
270 1 57.10168524590164 19.274690491803284 6.130588958406346e-07
271 1 59.174373770491805 18.563563934426234 3.379411025900533e-05
272 1 62.71839344262296 19.17269704918033 1.4627683676583537e-05
273 1 65.16926557377049 18.7742662295082 2.3587337312444835e-05
274 1 67.76201967213116 18.789110819672135 9.580523229562455e-06
275 1 70.63550819672132 19.1869862295082 9.383919870307288e-05
276 1 73.15454426229508 19.27655868852459 3.5875608175935846e-05
277 1 75.57057704918034 19.313013770491807 1.9823844241524413e-05
278 1 78.32742950819673 19.625103606557378 3.705652863006149e-05
279 1 80.86918688524591 19.443535081967216 1.189436837846042e-05
280 1 82.36828852459017 21.54308524590164 9.662149918897983e-05
281 1 2.531734754098361 21.285122622950823 3.6931107968539805e-05
282 1 5.351424262295082 21.305773770491804 8.91195803048791e-06
283 1 7.668745573770493 22.828758032786887 1.6084890173409273e-05
284 1 10.254784262295082 21.71899868852459 3.483812133192856e-05
285 1 12.757208524590164 21.87315016393443 2.381028994763992e-05
286 1 15.45129967213115 21.658812459016396 4.380603261659584e-05
287 1 18.133424262295087 21.657297704918033 1.6004674725348446e-05
288 1 20.835240655737707 21.801199344262297 4.8751190843410724e-05
289 1 22.886975081967215 21.21660524590164 8.708718756696222e-06
290 1 26.4081724590164 21.499106885245904 7.369116388577807e-05
291 1 29.068888524590168 21.629274754098365 3.439559320916777e-05
292 1 32.31849049180328 22.353731147540984 2.8014486210501287e-06
293 1 34.6163724590164 21.95868327868853 2.922646640664184e-06
294 1 37.304253114754104 21.686027540983606 8.349030173027416e-05
295 1 39.663886557377054 22.062544918032792 4.705522522322163e-05
296 1 42.21150098360656 21.835079344262297 5.793979405640279e-05
297 1 45.01425049180328 21.378936393442626 4.179766287622488e-06
298 1 47.823462950819675 21.36293049180328 6.0097704693129605e-05
299 1 50.57965901639345 21.403273442622954 3.926603366400317e-06
300 1 53.25572459016394 21.285072131147544 1.4156111379553561e-05
301 1 55.9984393442623 21.571310163934427 4.678940287648407e-05
302 1 58.5699868852459 21.493855737704923 1.0572654052155195e-05
303 1 61.199600000000004 21.3984262295082 2.771091248121639e-05
304 1 63.80396721311476 21.377472131147545 7.452785827312224e-05
305 1 66.17506229508197 21.098656393442624 2.6075066025904705e-06
306 1 68.74105573770493 20.92748918032787 9.325779053878566e-05
307 1 71.3716786885246 21.569845901639344 4.723623223432222e-05
308 1 74.14923278688526 21.782668852459018 3.870139092710866e-05
309 1 76.95051803278689 21.61321836065574 1.22146831268104e-05
310 1 79.69777704918033 21.90228393442623 2.5485184256689344e-05
311 1 0.9912348852459018 23.562605901639348 4.675216043137942e-06
312 1 3.792232327868853 23.565736393442627 6.931119736936324e-05
313 1 7.16216131147541 24.282316065573774 8.023138360915895e-05
314 1 9.54537442622951 24.357700327868855 9.576484182526298e-05
315 1 11.902786229508198 24.22475540983607 1.2913285614981096e-05
316 1 14.507456393442624 23.971942950819674 9.764970577105046e-05
317 1 17.11298491803279 24.863123278688526 4.853827423340479e-05
318 1 19.844692459016393 23.94119344262295 6.561067447641728e-05
319 1 22.422652459016394 24.06030360655738 9.439864016487993e-05
320 1 25.0335331147541 23.806178360655743 5.677611884352896e-05
321 1 27.461532459016397 23.8107731147541 6.843396930111821e-05
322 1 29.67696131147541 25.422723934426234 5.2317588453819046e-05
323 1 31.30946229508197 23.54165180327869 4.104144965981387e-05
324 1 35.718204590163936 23.980678032786887 3.564696505343384e-05
325 1 38.28884327868853 24.343865573770497 8.634748793516739e-05
326 1 41.11562688524591 24.303320655737707 7.015457585747502e-05
327 1 43.882981639344266 23.770127213114755 5.422281343058966e-05
328 1 46.62721114754099 23.592850491803283 9.891208420234927e-05
329 1 49.27520327868853 23.67949442622951 3.373013838303629e-05
330 1 52.87501639344263 23.41042360655738 9.176626373814561e-05
331 1 54.427134426229514 23.62132786885246 9.252620324609458e-05
332 1 57.21024262295082 23.942960655737707 9.686106897643946e-05
333 1 59.886813114754105 23.8169331147541 2.8831138452756867e-05
334 1 62.65780327868853 23.76103868852459 2.9066815046656037e-05
335 1 65.2424786885246 23.72423016393443 6.568410947436026e-05
336 1 67.80493770491803 23.306360000000005 3.761605753572216e-05
337 1 70.57542295081969 24.18809836065574 5.1900828914760956e-05
338 1 73.41760655737706 24.524676721311476 4.3970658101837715e-05
339 1 76.0108655737705 23.74993049180328 9.991186231024194e-05
340 1 78.10173114754099 25.176929836065575 3.5769076995425886e-05
341 1 80.92018360655739 24.02879672131148 8.349439371685842e-05
342 1 82.63438032786885 25.979295081967216 7.015350026758183e-06
343 1 2.427746885245902 25.72542229508197 4.499233749232224e-06
344 1 4.54508531147541 24.92916655737705 4.197300239180934e-05
345 1 8.078385573770493 26.780095081967215 9.694788030963123e-05
346 1 10.593028852459017 26.826648524590166 8.064387527515259e-05
347 1 13.43849442622951 26.49572524590164 5.1071011099666495e-06
348 1 17.247697049180328 26.376615081967216 7.22340058242186e-05
349 1 18.766944918032788 26.37404 6.298169462192127e-06
350 1 21.24270950819672 26.36873836065574 6.325184759449083e-05
351 1 23.821426885245906 26.2747731147541 8.420261830948153e-05
352 1 26.43235803278689 26.295878688524596 1.6716361352806663e-05
353 1 29.094740327868855 26.830132459016397 1.884826405488438e-05
354 1 31.541270163934428 26.62245967213115 7.150585905095563e-05
355 1 34.23672459016394 26.022869508196724 2.4533748499852384e-05
356 1 36.642053114754106 27.284760655737706 8.440313953637427e-05
357 1 39.517258360655745 26.453918032786888 9.519040899613084e-05
358 1 42.895967868852466 26.162024918032788 3.7353959534797145e-05
359 1 45.58410098360656 25.89643803278689 1.9792578615374546e-05
360 1 48.014675409836066 25.992675409836068 3.407448579626271e-06
361 1 50.39920131147541 26.193481311475413 2.3814786646733832e-05
362 1 52.83209836065575 25.992473442622952 2.1119280233814275e-05
363 1 55.70053770491804 26.056497049180333 5.047571694692189e-05
364 1 58.87293770491804 26.229078032786887 2.0207577726006742e-05
365 1 61.48790819672132 26.006005245901644 5.289382716067969e-05
366 1 64.13872786885247 26.14157573770492 1.5001786589193612e-05
367 1 67.29749508196721 25.71572786885246 6.160116643947723e-05
368 1 70.12907540983608 25.67013377049181 2.7921397029797215e-05
369 1 72.74505573770493 25.90668786885246 8.500569716211499e-05
370 1 75.28327868852459 26.275833442622954 1.0149118279826597e-05
371 1 77.27972459016394 27.55458885245902 6.2484916751211045e-06
372 1 79.98053114754099 26.464824262295082 3.719603243908354e-06
373 1 1.6651590819672133 28.226533770491805 4.6560724668757796e-05
374 1 4.058177704918033 27.837040000000002 9.311453528549676e-05
375 1 6.08532262295082 29.44798098360656 8.457843729428187e-05
376 1 9.782180983606558 30.49028327868853 9.969580413340682e-05
377 1 12.173775737704918 28.80284721311476 5.779472570032676e-05
378 1 14.782232786885247 28.87131409836066 3.2746200719672126e-05
379 1 17.191752131147542 28.825619016393446 8.851274848402897e-05
380 1 19.948099672131146 28.805472786885247 9.572163058417671e-05
381 1 22.57922754098361 28.7011062295082 5.648300503319807e-05
382 1 25.082156721311478 28.63445704918033 8.145933601341762e-05
383 1 27.634719344262297 28.82309442622951 8.313728538191717e-05
384 1 30.939761311475415 30.255546885245906 1.895025485751645e-05
385 1 33.33892983606558 28.531201311475414 8.398283858338098e-05
386 1 36.010855081967215 28.669397377049183 8.688878122053878e-05
387 1 38.49323409836066 28.624712131147543 3.576046723410135e-05
388 1 40.577838688524594 27.551256393442628 5.072611839872644e-05
389 1 44.39350426229509 28.246629508196722 9.411929689906002e-05
390 1 46.888354754098366 28.422643934426233 5.131172051588934e-05
391 1 49.29332983606558 28.5909331147541 7.911564672530671e-05
392 1 51.815698360655745 28.53357442622951 2.7501345189095552e-05
393 1 54.43470819672132 28.105302950819674 9.285356418396563e-05
394 1 56.613429508196724 27.32515409836066 5.674363866994125e-05
395 1 60.442727868852465 28.43476196721312 3.878658459086588e-05
396 1 63.023363934426236 28.355540327868855 6.658812298607901e-05
397 1 65.10463606557377 27.357519344262297 1.1132632460172599e-06
398 1 68.55575081967214 29.140485901639344 7.380046051450105e-05
399 1 71.33986885245902 28.126862950819678 4.641947241184497e-07
400 1 73.59735737704919 29.517962622950822 3.516284340464654e-05
401 1 76.47942950819673 28.86475016393443 9.136629648872087e-05
402 1 79.05350163934428 28.942356065573776 1.7831304480192967e-05
403 1 81.68260983606558 28.440518032786887 3.749412915996431e-06
404 1 0.4032952000000001 30.591115409836068 1.770283646700517e-05
405 1 2.9105798032786887 30.56556655737705 3.021566094838508e-05
406 1 5.421355409836066 30.82716459016394 8.930001622121516e-05
407 1 7.496972459016394 30.038684590163935 3.380939265951516e-05
408 1 12.15676 31.22009180327869 6.65619924849456e-05
409 1 13.672019016393444 31.13279147540984 6.762284177883207e-05
410 1 16.165859672131152 31.304312131147544 3.50026122388739e-05
411 1 18.820213770491804 31.04650098360656 2.6650134388699964e-05
412 1 21.495118032786888 31.076139672131152 2.786237708680195e-05
413 1 24.093577704918033 31.079371147540986 3.200341351146048e-05
414 1 26.622611147540987 31.055640000000004 4.832823193552407e-05
415 1 28.599163278688525 30.026465573770498 6.146224003524232e-05
416 1 32.584632786885244 31.209539016393446 7.480883942460794e-05
417 1 34.924019016393444 30.850289836065578 9.163226408289827e-06
418 1 37.563680000000005 31.00030098360656 2.3516558908246354e-05
419 1 40.190465573770496 30.450243278688525 9.361383608005876e-05
420 1 42.836488524590166 30.24459016393443 8.545010143377462e-05
421 1 45.34784983606558 30.723201967213118 6.093831333890497e-05
422 1 47.932474754098365 31.01120721311476 8.497320111215535e-06
423 1 50.883114754098365 30.9556662295082 6.416919747284374e-05
424 1 53.56776393442623 30.563950819672133 5.6186496151956434e-05
425 1 56.13123278688525 30.195562622950824 3.8103805075005216e-06
426 1 58.874957377049185 30.476953442622953 4.380027211686553e-05
427 1 62.131678688524595 30.73850098360656 9.752879566488903e-06
428 1 64.89711475409837 30.304069508196726 9.406912544136981e-05
429 1 67.65598688524591 30.428329836065576 6.804498018297504e-05
430 1 70.18209180327871 30.664429508196722 8.694952807399392e-06
431 1 72.865731147541 30.871748852459017 3.963106586868237e-05
432 1 75.28479344262296 31.129862950819675 5.670131110106393e-05
433 1 77.86997377049181 31.234835409836066 1.3359621971507597e-05
434 1 80.47030163934427 30.926835409836066 8.727459659742753e-06
435 1 1.472517704918033 34.28948852459017 9.854644159261554e-05
436 1 4.085412983606558 33.136558688524595 3.7659825676128204e-05
437 1 6.742675409836066 32.98407344262295 6.689255994038735e-05
438 1 9.263832131147542 33.50615868852459 6.469072441417385e-05
439 1 11.865977704918034 33.8098668852459 9.105605463517524e-05
440 1 14.911845245901642 33.6421331147541 5.277841060537434e-05
441 1 17.617044590163935 33.46510885245902 4.9593648442890886e-05
442 1 20.373392131147543 33.35013901639345 6.056729429574447e-05
443 1 23.071118688524592 33.42082754098361 5.8517109869478115e-05
444 1 25.659429508196727 33.458544918032786 2.1830821457557625e-05
445 1 28.273895081967215 33.11075737704918 4.8427103138874e-05
446 1 30.93213704918033 33.29641573770492 6.9490941784032e-05
447 1 33.65334229508197 33.476166557377056 1.7205086083347487e-05
448 1 36.33905180327869 33.19240262295082 8.617204719269139e-05
449 1 39.229101639344265 32.9353993442623 8.040806234160591e-05
450 1 41.801558032786886 32.58766229508197 7.667477777998625e-05
451 1 43.955083934426234 34.092318032786885 5.182791798533366e-05
452 1 46.618324590163944 33.190938360655736 6.138711197693798e-05
453 1 48.695557377049184 32.354794098360664 5.3086243979893735e-05
454 1 52.42059016393443 32.977560000000004 6.608344420271515e-05
455 1 54.983049180327875 32.737774426229514 1.517942994232302e-06
456 1 57.521777049180336 32.54903606557377 9.53284262192802e-05
457 1 59.69040000000001 31.812411147540985 4.4245375583081326e-05
458 1 63.52171803278689 32.7072268852459 3.2235568585460397e-06
459 1 66.09175081967213 32.69228131147541 5.803246631921974e-05
460 1 68.59664918032787 32.9358537704918 3.4775862188427323e-06
461 1 71.32876065573771 33.0446131147541 5.1948174736978906e-05