# input file

2232 atoms
1 atom types

0.0 82.68810555352132 xlo xhi
0.0 83.16 ylo yhi
-10.0 10.0 zlo zhi
0.0 0.0 0.0 xy xz yz

Masses

1 12.0100 #C

Atoms

1 1 1.5836905573770494 1.0975857704918033 1.2046618874372928e-05
2 1 4.271237967213115 0.9406875409836067 1.9838891355639732e-05
3 1 6.932625573770492 0.6548332459016394 7.244010936463136e-05
4 1 9.42747606557377 1.762497180327869 2.0694206992578235e-05
5 1 12.292532459016396 0.991032918032787 6.303134318564001e-05
6 1 15.038579672131148 1.1016503606557377 9.309635938588287e-05
7 1 17.859152786885247 1.164174360655738 6.086901842921855e-05
8 1 21.51162885245902 0.46899563934426236 6.803503837884128e-06
9 1 23.0462262295082 0.30410001311475415 4.3866872751648245e-06
10 1 25.74773967213115 0.5928444590163935 9.078776553452211e-05
11 1 28.46359278688525 0.7623454426229509 7.23314190887994e-05
12 1 30.980962622950823 0.3729309442622951 5.5162444815124e-06
13 1 33.750740983606555 0.40754913442622953 3.044689482592179e-05
14 1 36.23882557377049 0.8393201967213115 5.331183657182171e-06
15 1 38.59992327868853 0.7117274098360656 9.198782358338819e-05
16 1 40.96773639344263 2.065261180327869 7.944005307452424e-05
17 1 43.812747540983615 0.8640611803278689 4.8758499339012884e-05
18 1 46.353091147540994 1.890620131147541 7.555649038177573e-05
19 1 49.15493180327869 0.8511756721311476 2.1944537770285055e-05
20 1 51.81872786885246 0.2985893377049181 3.442552526949534e-05
21 1 54.417540983606564 1.4078932459016396 1.2248325753069468e-05
22 1 57.177422950819675 0.3544943672131148 1.7599186214419907e-05
23 1 59.904990163934436 0.3783992065573771 1.1743805492730065e-05
24 1 62.579036065573774 0.7119243278688525 1.6269823894837167e-05
25 1 65.15411803278688 0.7101874098360655 1.0846429401842084e-05
26 1 67.80392786885247 0.2603993573770492 9.831092197891723e-06
27 1 70.57138360655739 83.13778360655739 5.792705297060369e-05
28 1 73.36105573770493 0.5797872786885246 9.641264052777448e-05
29 1 76.32038032786886 1.0417569836065574 1.2833319349402417e-05
30 1 79.02472131147542 0.9982280000000001 3.310836276645237e-05
31 1 81.62504918032788 1.1606399344262297 1.7027506431325778e-06
32 1 0.3451932721311476 3.4951688524590168 5.656405931581521e-05
33 1 3.0385714754098365 3.3639356065573778 8.221357142499012e-05
34 1 5.834529836065575 3.1731068852459017 4.917833822940319e-05
35 1 8.615820327868853 3.0656249836065577 8.510279673931755e-05
36 1 11.217158032786887 3.309056065573771 1.507832452645045e-05
37 1 13.756996721311475 3.3127369180327872 3.6268429627411384e-05
38 1 16.35788 3.3307019016393444 2.7098547670573226e-05
39 1 19.01960590163935 3.4025365901639346 8.586071716106465e-05
40 1 21.688350163934427 3.090477049180328 1.8485932346117797e-05
41 1 24.39057049180328 2.73058662295082 6.60207532394043e-05
42 1 27.133083278688527 2.9737551475409836 1.8547074195271353e-05
43 1 30.77980327868853 2.677024918032787 1.5295451244752358e-05
44 1 32.33661704918033 2.5307501639344263 2.5175861324573336e-05
45 1 34.580977704918034 4.115152655737705 5.710673326998407e-05
46 1 37.487235409836074 3.4081260327868854 3.7180628356270776e-05
47 1 40.12629049180328 3.382405508196722 2.3844271174718345e-05
48 1 42.825430819672135 3.1775905573770498 3.07711106241314e-05
49 1 45.612174426229515 3.2390744262295086 2.637547395958684e-06
50 1 48.337923934426236 3.1887441967213115 9.9496700214288e-05
51 1 50.99924590163935 2.778059016393443 3.3788399953635954e-05
52 1 53.69904262295083 2.763083147540984 5.791026993774055e-05
53 1 56.242819672131155 2.818548393442623 8.643928536954858e-05
54 1 58.72095737704919 2.6568382950819673 1.7144136459692684e-05
55 1 61.40156721311476 2.843647868852459 8.751864311797681e-05
56 1 64.08116721311477 3.08393331147541 3.631663360860126e-05
57 1 66.74107540983607 2.7117178360655743 4.209622681990029e-05
58 1 69.39340983606559 2.342844918032787 9.382173062458443e-05
59 1 71.79934426229508 2.4131699016393444 8.491162917046837e-05
60 1 73.94423606557378 2.0068623606557376 2.265092164306224e-05
61 1 77.78413770491804 3.2532979672131153 2.048100114878878e-05
62 1 80.37638688524592 3.448968852459017 2.408095514187939e-05
63 1 1.6659972459016394 5.7862091803278695 8.197629748932494e-05
64 1 4.428403803278689 5.521127213114754 5.87428514174031e-06
65 1 7.979421639344263 5.21484393442623 2.539217302705764e-05
66 1 9.51457442622951 5.44892393442623 2.9010873936330752e-05
67 1 12.281979672131149 5.696030819672132 2.2630081021115268e-05
68 1 15.054282622950822 5.699464262295082 5.644406881291241e-05
69 1 17.681522622950823 5.669169180327869 3.991722704691196e-05
70 1 20.44322229508197 5.4944675409836075 5.178722835630009e-05
71 1 23.89979016393443 5.013018098360656 2.4757361683043802e-05
72 1 25.442870163934426 5.065893114754099 8.471082692344798e-05
73 1 27.913484590163936 5.4439757377049185 9.029035703827139e-05
74 1 30.6483731147541 5.292146885245902 5.578810217540693e-05
75 1 33.552055737704926 5.292752786885247 6.428953462206104e-05
76 1 36.094469508196724 5.804992131147541 9.685659727009958e-05
77 1 39.06757836065574 5.873862950819673 6.683928845055226e-05
78 1 41.81993704918033 5.468464262295082 9.415067094137654e-05
79 1 44.306203934426236 6.283200000000001 1.9433495764163644e-05
80 1 47.17883409836066 5.4008052459016405 2.3506513759495983e-05
81 1 49.96128590163934 5.219943606557377 3.7380227402835546e-05
82 1 52.35646557377049 5.0445552786885255 2.092195772670642e-05
83 1 54.824000000000005 5.140570491803278 3.7385902279975404e-06
84 1 57.395547540983614 5.173289180327869 1.5753667424855657e-05
85 1 59.96457049180328 5.040733049180328 6.155193046688883e-05
86 1 62.656793442622956 5.297196065573771 9.625475147631778e-05
87 1 66.57344262295082 4.7914196721311475 9.672578368919425e-05
88 1 68.1179868852459 4.780377114754098 1.3038427379069795e-05
89 1 70.72336393442623 4.876089377049181 8.213476077069538e-05
90 1 73.24896393442623 4.803815409836066 4.652878277315956e-05
91 1 75.98208524590166 5.054885901639345 6.432470741849896e-05
92 1 78.75711475409837 5.691335081967214 4.220886121584404e-05
93 1 81.5432524590164 5.82660262295082 1.2329184680124805e-05
94 1 0.02317215278688525 8.061268852459017 2.9764987933719422e-05
95 1 3.708976393442623 7.8120918032786895 1.3948105304237346e-05
96 1 5.253924590163935 7.9307475409836075 2.520009548850868e-05
97 1 7.861018360655738 7.942209180327869 4.447988624315331e-05
98 1 10.767478032786885 7.808456393442624 2.7363878624794183e-05
99 1 13.674392131147542 7.929030819672132 2.1352185278193593e-05
100 1 16.52268524590164 8.042788852459017 2.1529128225321826e-05
101 1 19.567038032786886 7.697778360655739 1.0983349534348386e-05
102 1 21.08002491803279 7.611740327868853 5.1940587714203856e-05
103 1 23.58679147540984 7.942865573770493 8.015329778675815e-05
104 1 26.542329180327872 7.739181639344263 1.803141068570977e-05
105 1 29.323114754098366 7.5934118032786895 4.070001379016003e-05
106 1 32.05053049180328 7.448550819672132 3.6514635047389955e-05
107 1 34.60612262295082 7.867430819672132 6.996673602704307e-06
108 1 36.835891147540984 7.155849836065574 3.601433518691688e-07
109 1 40.810353442622954 7.851475409836067 7.110736180918749e-05
110 1 43.64728590163935 7.65536524590164 2.295359063956448e-05
111 1 46.18586229508197 7.532821639344263 4.0576925475947016e-05
112 1 48.90035213114755 7.4173973770491815 1.6637372015611818e-05
113 1 51.47639344262296 7.603308196721312 9.540134840667324e-05
114 1 53.771750819672135 7.502880000000001 1.9107921066926748e-05
115 1 56.124668852459024 8.578860327868854 2.10894716734664e-05
116 1 58.83557377049181 7.473190819672133 1.7985219109664597e-05
117 1 61.347036065573775 7.405834754098362 8.595589953178027e-05
118 1 63.40003278688525 6.658253114754099 8.923195568817072e-05
119 1 67.03443278688526 7.5335790163934435 9.970572008378955e-05
120 1 69.62617704918033 7.191497049180329 2.884776326373254e-05
121 1 72.2568 7.273192786885247 1.6099876231905898e-06
122 1 74.66374426229508 7.156960655737706 4.9102479241304124e-05
123 1 76.91113442622952 8.481916065573772 6.480622746539968e-05
124 1 79.87853770491803 8.022996065573771 5.390928715541317e-05
125 1 0.9568348196721312 10.43973573770492 7.62619844222077e-05
126 1 3.465903803278689 10.535064262295082 6.402712310352783e-05
127 1 6.814676721311477 10.30492262295082 6.301465007637223e-05
128 1 9.541940983606558 9.989298360655738 6.806883035292361e-05
129 1 12.211745573770493 9.959104262295083 9.838802629769476e-05
130 1 15.651449180327871 10.025299016393443 9.494741166141268e-05
131 1 17.088647868852462 10.551272131147542 7.453267210443395e-05
132 1 20.451048524590167 10.105328524590165 8.614376960991328e-05
133 1 21.998268852459017 10.099067540983608 2.53401153569216e-06
134 1 24.26393704918033 9.333056393442625 6.252078282555226e-05
135 1 27.923986885245906 9.83676262295082 1.1223723269471486e-05
136 1 30.534211147540987 9.752643278688526 2.9019229785457336e-05
137 1 33.23991540983607 10.02545049180328 7.581163437588989e-06
138 1 36.37520393442623 9.967081967213115 8.031247073948623e-06
139 1 38.55811606557377 8.881053770491803 2.919390762685823e-05
140 1 42.16080721311476 9.811314754098362 7.436618721636776e-05
141 1 45.715985573770496 9.718864262295083 8.032416633859337e-05
142 1 47.227205245901644 9.611013770491805 6.397873006187653e-05
143 1 49.78794754098361 9.80560918032787 9.284965011105655e-05
144 1 52.43674754098361 10.145368524590165 9.486823990235714e-05
145 1 55.50412459016394 9.974554754098362 1.0501420937222551e-05
146 1 58.13424262295082 9.872106885245902 8.610114042019002e-05
147 1 60.573501639344265 9.779504918032789 5.63960448862509e-05
148 1 62.96832786885246 9.582889836065574 9.193368416909847e-05
149 1 65.73426885245901 9.821312131147542 8.130961832004396e-05
150 1 68.37499016393444 9.686448524590165 3.864536335198132e-05
151 1 70.94350819672131 9.577891147540985 1.2681304843422015e-05
152 1 73.51707540983608 9.790007213114754 1.8117310752800075e-05
153 1 76.21586229508198 9.858322622950821 2.4353782778314484e-05
154 1 78.48698360655739 11.368532459016395 4.48312385620087e-05
155 1 81.16961311475411 10.273213770491804 4.843528844463397e-06
156 1 82.63892459016395 12.768316721311477 8.849323886206909e-05
157 1 2.4138767868852464 12.843145573770492 4.0284503554987085e-05
158 1 4.413872262295082 11.773173770491805 8.118122678229679e-05
159 1 8.296863606557377 12.366654426229509 2.0270798303778006e-05
160 1 11.497185573770492 12.154437377049181 2.4991896506593583e-05
161 1 12.987754098360657 12.479756065573772 6.737419995700151e-05
162 1 15.393234098360656 12.726560000000003 4.594996577566977e-05
163 1 17.55610098360656 12.032550163934427 8.604773563122314e-05
164 1 21.21120262295082 12.835723278688524 5.859251449433414e-05
165 1 23.760180327868852 12.205888524590165 5.0533767680618136e-05
166 1 26.397013770491807 12.025834754098362 8.958137077939274e-05
167 1 29.113927213114756 12.121870163934428 3.9950821473538934e-05
168 1 31.838565901639345 12.099956721311477 1.9914111146667024e-05
169 1 34.10554688524591 11.303297049180328 9.00099314740096e-06
170 1 37.92954360655738 11.895060983606559 4.433387053334304e-06
171 1 41.15258688524591 12.044617704918034 5.609339704298063e-05
172 1 42.6589593442623 12.311466885245903 2.7011509827601654e-05
173 1 45.17324918032787 12.286372459016395 5.928961368319857e-05
174 1 47.90788524590164 11.946108196721314 2.290278555083858e-05
175 1 50.594301639344266 12.172210491803279 6.943754189860871e-05
176 1 53.08051803278689 11.563380327868853 7.218245978491699e-05
177 1 56.7260262295082 12.172260983606558 1.158945330518556e-05
178 1 59.38340983606558 12.253249836065576 2.3935094578973282e-05
179 1 61.77217704918033 12.19447737704918 2.799520389065905e-05
180 1 64.41188852459017 11.87158229508197 8.282806303003342e-05
181 1 67.20307540983607 12.067641967213117 8.511661194396839e-05
182 1 69.80744262295083 12.002204590163936 8.763168161658464e-05
183 1 72.07553442622952 13.307266229508198 8.899962453062465e-05
184 1 74.7829049180328 12.221591475409838 5.588523529386014e-06
185 1 77.59832786885246 12.612448524590164 2.952897910535187e-05
186 1 80.1804786885246 12.805630163934428 8.112809548265435e-05
187 1 1.4674382295081967 15.219188852459018 3.462070668954069e-05
188 1 4.007302163934426 14.801419672131148 1.3769150605009385e-05
189 1 6.603318032786886 14.34552918032787 2.3608993140103164e-05
190 1 9.238889180327869 14.886750819672132 5.768963485388754e-05
191 1 11.744393442622952 14.91224918032787 8.211218849882628e-05
192 1 14.406624262295082 15.043628852459017 3.6352749480618674e-05
193 1 17.130000655737707 14.89684918032787 9.605316514191994e-05
194 1 19.901697704918035 15.202223606557379 7.861002501895618e-05
195 1 22.619923934426232 14.863827540983607 9.662825767938422e-05
196 1 25.24529573770492 14.49872131147541 3.41197551416188e-05
197 1 27.861528524590167 14.348255737704921 3.761770409368748e-06
198 1 30.68417180327869 14.328866885245903 9.892598794008477e-05
199 1 33.454202622950824 14.141340327868855 2.6973518953581145e-05
200 1 36.11749377049181 14.103118032786886 4.011594188508727e-05
201 1 38.62840065573771 14.582992131147543 7.906295182498658e-05
202 1 41.17763081967214 14.837824262295085 2.2936143027123767e-06
203 1 44.76153901639345 14.434647213114756 7.738167721073322e-05
204 1 46.28659344262295 14.240455737704918 5.803970162142127e-05
205 1 49.05258491803279 14.25812786885246 7.32897965877571e-05
206 1 51.35319344262296 13.490551475409838 7.799088153085416e-05
207 1 54.883075409836074 14.001023606557379 4.4504433415448286e-05
208 1 57.52935081967214 14.371078032786887 9.483178291438924e-05
209 1 60.07262295081968 14.664687868852461 2.7381986232921353e-05
210 1 63.76155409836066 14.205666885245902 2.067899931062719e-05
211 1 65.29196065573771 14.053282622950821 7.743947018661787e-05
212 1 67.96600655737706 14.382691147540985 6.461345564432316e-05
213 1 71.38480655737705 14.711140327868854 4.511380895126688e-05
214 1 73.82608524590165 14.832472131147544 9.249100456170157e-06
215 1 76.2840262295082 14.557392786885247 7.272617080038769e-05
216 1 78.90758032786886 15.030551475409837 2.167501291311912e-05
217 1 81.5164918032787 15.21646229508197 7.580018987517546e-05
218 1 0.10659425573770492 17.537015081967215 4.0228729337728844e-05
219 1 2.7882432131147543 17.430982295081968 6.358565434897556e-06
220 1 6.1554052459016395 16.723238688524592 1.946169700754519e-05
221 1 7.689699672131148 16.83411868852459 4.1516826293417634e-05
222 1 10.484622950819674 17.29086754098361 1.0705621563397772e-05
223 1 13.15937573770492 17.28894885245902 4.187548708138006e-05
224 1 15.845236721311476 17.24774754098361 2.7488945970157264e-05
225 1 18.6186 17.283596721311476 3.031376438639192e-05
226 1 21.363182950819674 17.313639344262295 3.370338338482715e-06
227 1 24.122004590163936 17.03214754098361 2.8350796408268677e-05
228 1 26.840079344262296 16.787817704918037 2.1260881332026215e-05
229 1 29.457019016393446 16.47754557377049 8.20725935871876e-05
230 1 32.163581639344265 16.44997704918033 3.710470712635284e-05
231 1 34.68928262295082 16.479868196721313 8.427801739242205e-05
232 1 37.19074754098361 16.730913442622953 6.856798202129148e-05
233 1 39.77880590163935 17.081225573770496 6.935372284333378e-05
234 1 42.47012 17.41164393442623 3.836936472083987e-05
235 1 45.103923934426234 16.694559344262295 3.7572159279149032e-06
236 1 47.942522622950825 16.386862295081972 3.88260979951002e-05
237 1 50.58016393442623 16.285373770491805 1.772960328459533e-05
238 1 53.345095081967216 16.101331147540986 5.9703626826670655e-05
239 1 55.973698360655746 16.424175737704918 4.377720335690246e-05
240 1 57.98680655737705 17.876168524590167 4.456593838512772e-05
241 1 60.8340393442623 17.053303606557378 9.985955273827208e-05
242 1 63.50758032786886 16.80286426229508 8.254372596201083e-05
243 1 66.24171147540984 16.466841311475413 6.256476350703752e-05
244 1 68.60321311475411 15.793381639344263 7.887374937948829e-05
245 1 72.11794754098361 17.175897704918036 2.8010234232896748e-05
246 1 75.80839344262296 16.99579344262295 1.1208592754919611e-05
247 1 77.34334426229509 17.052798688524593 9.575958932015066e-05
248 1 79.98255081967214 17.435324590163937 3.659570434614462e-05
249 1 1.2882832131147544 19.795311475409836 7.609229037885593e-05
250 1 4.073946295081968 19.94729180327869 8.550561333403581e-05
251 1 6.464718032786886 19.28357704918033 5.528950535434895e-05
252 1 9.180268196721313 19.185521967213116 1.3807210094479772e-05
253 1 11.87648 19.596979672131148 9.73374781217035e-05
254 1 14.507910819672132 19.585921967213118 1.412891523619917e-05
255 1 17.144592786885248 19.492360655737706 1.053290635995895e-05
256 1 19.866050491803282 19.602180327868854 3.867276937839541e-05
257 1 23.037440655737708 19.413946885245903 3.918031477269446e-06
258 1 25.79399016393443 19.178099672131147 1.6431792405603508e-05
259 1 29.120188196721312 18.71837180327869 5.0064735535860355e-05
260 1 30.66382360655738 18.704234098360658 7.63063757442198e-05
261 1 33.26975606557377 18.89473967213115 6.579716695813482e-05
262 1 35.850745573770496 19.040610491803278 1.4590086901385536e-05
263 1 38.36776196721312 19.247929836065577 4.886847230482109e-05
264 1 41.008230819672136 19.485039344262297 2.589288328068923e-05
265 1 43.54796852459017 18.542357377049182 3.264618879276751e-05
266 1 46.50805049180328 18.584316065573773 4.1177609736640446e-05
267 1 48.96639540983607 18.622083934426232 5.218648386961631e-05
268 1 51.66270819672132 18.374371147540984 7.267195168943241e-06
269 1 54.23324590163935 18.618953442622953 3.18587805567056e-05
270 1 57.026957377049186 19.079085245901638 4.302404971049523e-06
271 1 59.577803278688535 19.38203606557377 2.855223159046744e-05
272 1 62.300321311475415 19.180927213114757 9.194764579773726e-05
273 1 65.07131147540984 18.869443278688525 8.148354501657621e-05
274 1 67.51309508196722 18.612540983606557 9.637814548213384e-05
275 1 70.06040655737705 18.572097049180332 3.1567085141461485e-05
276 1 72.42342295081968 18.683280000000003 7.219765108273418e-05
277 1 75.95330491803279 19.76173442622951 8.84899896101489e-05
278 1 78.54201967213116 19.565573770491806 5.196161591730803e-05
279 1 81.20546229508199 19.640402622950823 6.408337289045163e-06
280 1 82.61216393442625 21.884813770491807 1.5917952527701317e-05
281 1 2.0010103606557377 21.162982950819675 4.121888397445574e-05
282 1 5.716732459016394 21.961460327868856 7.419806655389882e-06
283 1 8.269900983606558 21.40115278688525 3.517828867101379e-05
284 1 10.601612459016394 22.79356524590164 2.1157905440757697e-05
285 1 13.344680655737706 21.946565245901642 2.5412346664509446e-05
286 1 15.983836721311478 21.878754754098363 9.069102000726832e-05
287 1 18.57593442622951 21.78332524590164 5.4904206844903715e-05
288 1 20.68846098360656 20.91400786885246 9.073030404357459e-05
289 1 24.514982295081968 21.486685901639348 2.31782211021386e-05
290 1 26.964440655737707 21.703194754098366 5.238689041927114e-06
291 1 29.237076721311478 21.491634098360656 6.144273462134708e-05
292 1 31.95131409836066 21.182876721311477 1.5321333813991502e-05
293 1 34.59753901639345 21.354296393442624 9.492266378349239e-05
294 1 37.15126295081968 21.568381639344263 4.8799627220327615e-05
295 1 39.62803737704918 21.66916327868853 4.197189052953632e-05
296 1 42.32652131147542 21.825435409836068 7.25651243830279e-05
297 1 44.85762491803279 21.233015081967213 3.238013507899047e-05
298 1 47.669260983606556 21.08810360655738 2.1089536233991002e-05
299 1 50.37456131147541 20.750616393442627 8.274627351324985e-05
300 1 52.54429508196722 22.00851868852459 7.992566925494781e-05
301 1 55.33901639344263 20.997874754098362 4.4724728999165633e-05
302 1 58.08425573770493 21.578278032786887 9.32426689447711e-05
303 1 60.82343606557378 21.48224262295082 4.7721358335678986e-05
304 1 63.65552131147542 21.179392786885245 4.0962916313609555e-05
305 1 66.37500983606557 21.257200655737705 2.083041710285546e-05
306 1 68.98745573770492 20.97419409836066 2.308323835434264e-05
307 1 71.50800655737706 22.205739672131152 8.049188231818367e-05
308 1 74.49863606557378 22.002762622950822 6.879133319853703e-05
309 1 77.22064918032788 22.018819016393444 4.714863623114163e-05
310 1 79.84672786885247 21.905616393442628 9.738647938262259e-05
311 1 1.7042851803278691 24.027837377049185 2.3333214440890705e-05
312 1 4.375049114754099 24.21314229508197 4.594856414174783e-05
313 1 7.129190163934427 23.98093049180328 2.160231624411403e-05
314 1 9.894272786885248 24.15396590163935 4.395002825834623e-05
315 1 12.346912131147542 24.412635409836067 3.486847664393984e-05
316 1 14.924064262295085 24.242478032786888 3.862094440778279e-05
317 1 17.575136393442623 24.181736393442627 4.1598157081000365e-05
318 1 20.26690491803279 23.856468196721313 9.574449800048426e-05
319 1 23.046377704918033 23.522616393442625 6.04067795239579e-06
320 1 25.760261639344264 24.027281967213117 5.50143852607874e-05
321 1 28.270057704918038 24.153309508196724 8.901258810990369e-05
322 1 30.740621639344266 23.583459016393448 2.359822345286489e-06
323 1 33.360439344262296 23.594971147540985 6.618150324234162e-05
324 1 35.976823606557375 23.86010360655738 7.661689165108121e-07
325 1 38.60830491803279 24.063585573770496 6.778393471998206e-05
326 1 41.18207409836066 23.9548262295082 7.12987446910129e-05
327 1 43.884294426229516 23.835312131147543 1.573102434209668e-05
328 1 46.40615803278689 23.42582360655738 7.569727578922494e-05
329 1 49.08116327868853 23.259200655737708 1.2406702321685825e-05
330 1 51.85053770491804 23.388712131147546 7.16511396278228e-05
331 1 54.41148196721312 23.360436721311476 4.458003257641176e-05
332 1 56.79217049180328 24.556991475409838 2.2954041175626762e-05
333 1 59.69494426229509 23.75619147540984 9.527724799598184e-05
334 1 62.48108196721312 23.40724262295082 3.4099532107309264e-05
335 1 64.47954754098362 24.66282229508197 9.622230187598272e-05
336 1 68.04527868852459 23.52095016393443 1.5718127695716645e-05
337 1 70.82990163934427 23.58224721311476 7.592990802762698e-05
338 1 73.1999868852459 23.988504262295084 9.037760301234301e-05
339 1 75.8447475409836 24.288728524590166 7.831371380424589e-05
340 1 78.79750819672132 24.288880000000002 2.4485643496172282e-05
341 1 81.57859672131148 24.03632 8.043699970239351e-05
342 1 0.19609249180327873 26.170659016393444 4.5390401408249675e-05
343 1 2.8341251147540985 26.473407868852462 4.2242463612511594e-05
344 1 6.587615081967214 26.140515409836066 5.270291482901521e-05
345 1 8.140793442622952 26.221655737704918 1.212483668309604e-05
346 1 10.838419016393443 26.69951016393443 1.182719436863885e-05
347 1 13.585678032786888 26.688502950819675 2.802286422826128e-06
348 1 16.261794098360657 26.55404327868853 2.9852498625970637e-05
349 1 18.88317704918033 26.342381639344264 7.676268921057112e-05
350 1 22.60497836065574 25.63993967213115 6.836663910630609e-05
351 1 24.134072131147544 25.96758098360656 8.315731930716096e-05
352 1 26.869920000000004 26.534654426229512 9.818950498680968e-05
353 1 30.31512721311476 26.130164590163936 9.689307167695427e-05
354 1 31.83846491803279 25.902345573770493 2.5665115786759018e-05
355 1 34.47686360655738 26.06689836065574 6.414674508943875e-05
356 1 37.3442931147541 26.318852459016394 3.466834159890214e-05
357 1 40.82393573770492 26.1354662295082 4.6101364220365976e-05
358 1 42.3748924590164 26.1231462295082 9.9999850179117e-05
359 1 44.997032786885256 26.022718032786887 6.145750682555276e-05
360 1 47.65790032786886 25.69103737704918 6.663641170162824e-05
361 1 50.37410688524591 25.581975081967215 5.843210249031408e-05
362 1 53.09415081967214 25.754051147540984 6.2688121811577e-05
363 1 55.88180327868853 25.802270819672135 6.38825228396922e-07
364 1 58.478091803278694 26.01575016393443 2.2247569778732346e-05
365 1 61.18243278688525 25.799241311475413 2.8137571072894155e-05
366 1 63.688845901639354 25.96798491803279 7.205457337147118e-05
367 1 65.88776393442623 25.24302360655738 5.080100156349107e-05
368 1 69.51307540983608 25.72996655737705 6.656669474266464e-05
369 1 71.94980983606558 26.228674098360656 1.9725660889695043e-05
370 1 74.50267540983607 26.393176393442623 1.7824403066493435e-05
371 1 76.58950163934428 25.63499147540984 7.020404743823237e-05
372 1 80.19158688524591 26.291940327868854 9.139210510222306e-06
373 1 1.016743344262295 29.70235868852459 7.08411920898218e-05
374 1 3.8662785573770493 28.869496393442628 5.745795556629852e-06
375 1 6.523540983606558 28.676971147540986 6.48657893729259e-05
376 1 9.391980327868852 28.72816983606558 1.859553393067809e-05
377 1 12.174432131147542 28.94175016393443 6.0096123819865726e-05
378 1 14.881651147540985 28.93397442622951 8.171719948422645e-05
379 1 17.584376393442625 28.82188262295082 4.359737978038261e-05
380 1 20.15824655737705 28.75720262295082 4.6788290408415584e-05
381 1 22.569987540983607 27.994473442622954 1.2343264590333559e-05
382 1 25.422875409836067 28.51979016393443 4.009899423309734e-05
383 1 27.861023606557378 29.107464262295085 4.913568332847828e-05
384 1 30.344109508196723 28.864497704918033 6.0045963316029405e-06
385 1 32.964482622950825 28.330900327868857 7.58103444188821e-05
386 1 35.71063081967213 28.281216393442623 9.92839968428252e-06
387 1 38.38255606557377 28.855358688524593 1.3799333872088716e-05
388 1 40.894321311475416 28.81849967213115 7.947532293466872e-05
389 1 43.639409180327874 28.486364590163937 7.093976033335921e-05
390 1 46.266194754098365 28.186594754098365 3.978209188151617e-05
391 1 49.02420852459017 27.926864918032788 1.1006300212186072e-06
392 1 51.68896393442623 27.943527213114756 1.2221393515817637e-06
393 1 54.278688524590166 27.97922491803279 1.076725963260843e-05
394 1 56.90931147540984 28.206185573770497 5.2971084011695006e-05
395 1 59.637888524590174 28.117824918032788 6.393394887831788e-05
396 1 62.23114754098361 28.30419016393443 6.891027023001152e-05
397 1 65.33689836065575 28.03163540983607 6.06530372533369e-05
398 1 68.09476065573772 27.86496196721312 1.968913882975417e-05
399 1 70.58451147540985 28.3831593442623 4.186943943413394e-05
400 1 73.32116721311476 28.658895081967216 1.4178564569453301e-05
401 1 76.07852459016395 28.542561967213118 3.590441860628512e-05
402 1 78.78942950819673 28.563970491803282 9.797350164627617e-05
403 1 81.5432524590164 28.463340327868856 5.0247595812729356e-05
404 1 0.11160657704918034 30.948849836065577 7.14045473762767e-05
405 1 2.7785891803278693 31.17515409836066 1.645109058381529e-05
406 1 5.466848524590164 31.041754754098363 8.416623009702998e-05
407 1 8.11504262295082 30.844988196721314 1.122964144284293e-05
408 1 10.845790819672132 31.064678032786887 1.981350746113657e-05
409 1 13.510697704918034 31.245034754098363 5.2672424156949296e-05
410 1 16.21433180327869 31.178940983606562 2.8477351119414165e-05
411 1 19.069643278688527 31.17858754098361 8.680120076562466e-05
412 1 23.373968524590165 31.384341639344264 2.7463310068584447e-05
413 1 22.960996065573774 29.922553442622952 2.2524295235001468e-05
414 1 26.329809180327874 31.288154754098365 7.569265057563071e-05
415 1 29.55764918032787 31.39888327868853 5.011505550417699e-05
416 1 32.2954662295082 30.864730491803282 6.790966063551557e-05
417 1 34.7026124590164 30.474125901639347 4.22617434818866e-05
418 1 36.97095672131148 31.94156918032787 5.124099986540525e-05
419 1 39.79349901639345 31.26563540983607 8.070030721122759e-05
420 1 42.50228327868852 30.955060327868853 3.840861917195139e-05
421 1 45.13280524590164 30.731432131147542 1.9723971434714283e-05
422 1 47.785897049180335 30.26761442622951 6.575062495364965e-05
423 1 50.465143606557376 30.249689836065578 5.6126329975188596e-05
424 1 52.997206557377055 30.345624262295082 8.148251518110991e-05
425 1 55.51523278688525 30.395409180327874 8.945740451298418e-05
426 1 58.177160655737715 30.359055081967217 9.25250314989687e-05
427 1 60.74820327868853 30.528707540983607 8.394378654725889e-05
428 1 63.04053114754099 29.60935278688525 3.657813203601709e-05
429 1 66.44266885245902 31.333546885245905 5.846248859560228e-05
430 1 69.18639344262296 30.52800065573771 9.483173018180695e-05
431 1 71.85640000000001 30.73819803278689 6.803012152077754e-05
432 1 74.67990163934427 30.834132459016395 7.669850006474828e-05
433 1 77.30951475409837 30.863064262295083 1.730431305604905e-05
434 1 79.99113442622952 30.797576393442625 6.302063950431157e-05
435 1 1.368570229508197 33.309543606557384 2.0948701497901048e-05
436 1 4.152986163934427 33.347917377049185 8.648206137338961e-05
437 1 6.804325901639345 33.24143016393443 8.943759543540541e-05
438 1 9.322857049180328 33.193816393442624 7.412238008640619e-05
439 1 11.965648524590165 33.494545573770495 9.318877170170597e-05
440 1 14.92764918032787 33.53372721311475 4.359685526735721e-05
441 1 17.596393442622954 33.31938950819672 1.1845475182072673e-05
442 1 20.208485901639346 33.53953377049181 4.4801091004624253e-05
443 1 22.548528524590168 33.39098688524591 7.120201721331034e-05
444 1 25.168346229508202 33.293184262295085 6.838047240114757e-05
445 1 27.215940327868854 32.60139606557377 4.6278075513091866e-05
446 1 31.13930491803279 33.29873836065575 6.551419612970236e-05
447 1 34.43995409836066 32.98104393442623 3.302905144706093e-05
448 1 35.98939606557377 33.12247147540984 2.6941402380998626e-05
449 1 38.487680000000005 33.64849508196721 5.095886319637162e-05
450 1 41.24877377049181 33.4165862295082 9.628331182645783e-05
451 1 43.911358032786886 33.265868196721314 2.010789239097246e-05
452 1 47.477998032786886 32.52919278688525 2.6596894186758127e-05
453 1 49.0314793442623 32.533383606557386 9.875175402942389e-05
454 1 51.736931147540986 32.718234098360654 5.067861208116643e-05
455 1 54.43066885245902 32.77968262295082 3.415632853995051e-05
456 1 57.14510819672132 32.623864918032794 1.4477317165223515e-05
457 1 59.75906885245902 33.734381639344264 5.938843221468322e-05
458 1 62.459370491803284 32.438459016393445 4.7661211121465155e-05
459 1 65.41869508196721 32.47491409836066 9.189064912522065e-05
460 1 68.06244590163935 32.996241967213116 5.996253708069868e-05