# input file

2232 atoms
1 atom types

0.0 82.68810555352132 xlo xhi
0.0 83.16 ylo yhi
-10.0 10.0 zlo zhi
0.0 0.0 0.0 xy xz yz

Masses

1 12.0100 #C

Atoms

1 1 1.2224873442622952 0.8520188852459017 6.823655979831805e-05
2 1 3.861946360655738 0.9947794098360657 4.5021449781641575e-06
3 1 6.4226078688524595 0.8108781639344264 5.4985218299800535e-05
4 1 9.198243278688526 0.7640268196721312 5.841264608261059e-05
5 1 11.850022295081969 0.6595340327868853 4.663457915863262e-05
6 1 14.721541639344265 0.5547332459016394 4.991787666455107e-05
7 1 17.506720000000005 0.47915459016393447 9.947722662526857e-05
8 1 20.33188786885246 0.5597319344262296 3.667850314345429e-05
9 1 22.90419278688525 0.672712393442623 7.017356630874314e-05
10 1 25.482910163934427 0.6465525901639345 3.982111205068859e-05
11 1 27.882735081967216 1.0344407213114755 4.8472529249256514e-05
12 1 30.436358032786888 0.6548786885245902 4.443248391749503e-05
13 1 33.197047868852465 0.4103186098360656 8.703433003179887e-05
14 1 35.74612655737705 0.9274940327868854 6.736304136638455e-05
15 1 38.26122426229509 1.2549030819672133 5.9956749288530087e-05
16 1 40.926080655737714 1.3699840000000003 2.7798963611844954e-05
17 1 43.47803737704918 1.501192 2.2953432526312636e-05
18 1 46.00601049180328 1.1695971803278689 9.764338910481194e-05
19 1 48.651225573770496 0.6208371147540984 6.707403520338039e-05
20 1 51.35268852459017 0.6733788852459017 9.16190750870681e-05
21 1 54.04642622950821 1.0950510819672132 3.3236999617531116e-05
22 1 56.93354754098361 0.8192244590163935 5.5303167096296397e-05
23 1 59.7060524590164 0.1958279147540984 1.1437701326060535e-05
24 1 62.36394098360657 0.05280634754098361 2.019118981584268e-05
25 1 65.0925180327869 0.21074773770491806 2.1961335393698936e-06
26 1 67.7988786885246 0.813508786885246 1.2451710983985499e-05
27 1 70.43101639344263 0.9550676065573771 4.615423395327507e-05
28 1 73.11061639344263 0.8816323278688525 2.4387559511999038e-05
29 1 75.82202622950821 0.7910449836065575 8.944026260325518e-05
30 1 78.55110819672132 0.7682832786885248 4.8573971756519786e-05
31 1 81.2473704918033 0.8107165901639345 2.919782871552068e-06
32 1 82.54955409836067 3.141271803278689 6.260421404510038e-05
33 1 2.498485901639344 3.226885704918033 3.283418011629842e-05
34 1 5.216914098360657 3.249793836065574 3.291037232621211e-05
35 1 7.941199344262296 2.9883775737704923 3.338546178256552e-05
36 1 10.684822950819674 3.010563672131148 7.132505288596247e-05
37 1 13.414005901639346 2.7818105573770495 3.527314318841528e-05
38 1 16.102946885245903 2.776635147540984 9.455731941993996e-05
39 1 18.70797049180328 2.7165549508196722 9.576855717382002e-05
40 1 21.46184393442623 2.962934754098361 3.2537660347248e-05
41 1 24.07328 3.0181475409836067 2.1335424338971298e-05
42 1 26.50087540983607 3.260154754098361 8.675267197086929e-05
43 1 28.50908590163935 2.439188327868853 2.883767684359867e-05
44 1 32.03356524590164 2.6543086557377054 7.927252853554833e-05
45 1 33.732866885245905 4.291606360655738 8.752024628533204e-05
46 1 36.680073442622955 3.518834360655738 7.237034392672224e-05
47 1 39.56855803278689 3.649108262295082 8.294688029567009e-05
48 1 42.28461311475411 3.840593377049181 6.207110787652094e-05
49 1 44.94856065573771 3.6989386229508203 1.4784674785829011e-05
50 1 48.288593442622954 2.9283832131147545 5.923060772694833e-05
51 1 49.82101967213115 2.8698177704918035 5.6994208757858104e-05
52 1 52.421600000000005 3.064004196721312 4.637560838124907e-05
53 1 54.90933114754099 2.351403278688525 7.835096520120025e-05
54 1 58.64017049180329 2.628133704918033 2.931990106675777e-05
55 1 61.29906885245902 2.4321598688524593 1.6806853094077146e-05
56 1 63.95796721311476 2.336336524590164 7.426517414110275e-05
57 1 66.3320918032787 3.7726465573770493 4.468954456013954e-05
58 1 69.12630819672133 3.2778824262295085 6.011162903259897e-05
59 1 71.7332 3.251141967213115 2.6194932202636346e-05
60 1 74.44612459016395 3.1219637377049185 1.3046162896934233e-05
61 1 77.22973770491805 3.0384553442622955 8.879154024322967e-06
62 1 79.92700983606558 3.0757536393442626 6.20805148130622e-05
63 1 1.1890314754098363 5.50628262295082 3.0163244723798056e-05
64 1 3.854312 5.47932 9.126570245601675e-05
65 1 6.614527213114754 5.34077049180328 5.658379269084939e-05
66 1 9.357696393442625 5.23064786885246 5.1731530958320906e-05
67 1 12.086879344262297 5.149507540983607 2.6844416138419316e-05
68 1 14.786322622950822 5.106387540983607 5.727512764322518e-06
69 1 17.444211147540987 5.147689836065575 4.0319120200801066e-05
70 1 20.09679803278689 5.03165462295082 6.282846707337234e-05
71 1 22.796039344262297 5.323249836065574 3.494644581348905e-06
72 1 25.353196721311477 5.5817678688524595 2.4820434763776002e-05
73 1 28.02739409836066 5.406106885245902 8.261577184497226e-05
74 1 30.738349508196723 5.022172262295083 1.729445386577715e-05
75 1 32.61780590163935 6.5128367213114755 6.752435210614621e-05
76 1 35.474985573770496 5.8200386885245905 5.302734775173712e-05
77 1 38.233352786885256 5.707189508196722 6.27984474396473e-05
78 1 41.00540327868853 6.055280000000001 6.776481453642137e-05
79 1 44.355382950819674 5.943895081967214 2.5059319017578588e-05
80 1 45.89684721311476 5.966313442622951 9.897219543901468e-05
81 1 48.524895081967216 5.721579672131148 7.750394465293653e-06
82 1 51.26028852459017 5.296741639344263 3.300867883905564e-05
83 1 54.02673442622952 4.99900662295082 8.175708236803612e-05
84 1 57.35212459016394 5.050947540983607 9.468545676116087e-05
85 1 60.054950819672136 4.832151409836066 2.8967642523014314e-06
86 1 62.63306229508198 4.713202819672132 9.443751533079337e-06
87 1 65.40455737704919 4.990205901639345 9.450176896927115e-05
88 1 67.91248524590165 5.680378360655738 8.291678016130655e-05
89 1 70.53300983606559 5.685276065573771 3.195872344137996e-05
90 1 73.1232393442623 5.4782596721311485 8.391217421110638e-05
91 1 75.98360000000001 5.2718491803278695 2.857116523692027e-07
92 1 78.71066229508197 5.332944262295082 1.8948000425951618e-05
93 1 81.30543606557377 5.4527613114754105 2.2173060815808257e-05
94 1 82.67628852459016 7.863896393442624 3.931125635126627e-05
95 1 2.515446098360656 7.792601967213116 3.612932884714002e-05
96 1 5.23640393442623 7.608256393442624 7.341962206040801e-05
97 1 7.947460327868853 7.502072131147542 6.768667370844758e-05
98 1 10.651548852459017 7.441532459016394 9.039657131249611e-05
99 1 13.330946885245904 7.4173973770491815 4.258874916167132e-05
100 1 15.95828786885246 7.476018360655739 9.306239948141458e-05
101 1 19.590668196721314 7.212097704918033 2.2380920685071048e-05
102 1 21.131324590163935 7.391242622950821 2.551374125487578e-05
103 1 23.833746885245905 7.827996721311477 4.521905183944353e-07
104 1 26.481436065573774 7.813354098360657 3.743691142835859e-05
105 1 29.069645901639348 7.547615737704919 5.18532550205947e-05
106 1 31.707741639344267 7.755389508196722 8.017612390073941e-05
107 1 34.215871475409834 8.107064918032789 2.6807062669912875e-05
108 1 36.878001311475415 7.963870163934427 6.389730578718389e-05
109 1 39.40163213114755 8.05919868852459 5.3929124259388964e-05
110 1 41.825642622950824 8.65909180327869 3.0572048988003966e-05
111 1 44.42819213114754 8.680298360655739 9.30285531483089e-05
112 1 47.785947540983614 8.079748852459016 6.111679935153683e-05
113 1 50.51250491803279 7.644660983606558 3.80524365395371e-05
114 1 53.693993442622954 6.9658491803278695 5.219049372488937e-05
115 1 54.99819672131148 6.172219016393443 9.302959186852639e-05
116 1 58.62906229508197 7.182307540983607 7.463199165783688e-05
117 1 61.285940983606565 7.153931147540984 1.7498242123393737e-05
118 1 63.87011147540984 7.0330032786885255 9.813119850606047e-05
119 1 66.04277377049182 8.616375737704919 5.1586740191452934e-05
120 1 69.00260327868853 8.064904262295082 3.252107567031667e-05
121 1 72.20479344262296 7.984117377049181 2.469330825713839e-05
122 1 74.87681967213115 7.433251803278689 1.0261980058927956e-05
123 1 77.57409180327869 7.5301455737704925 1.5528895352883134e-05
124 1 80.12392786885248 7.754026229508197 4.22290554815957e-05
125 1 1.36128931147541 10.254733770491804 6.12145918781231e-05
126 1 3.9337558032786886 9.926739016393444 2.7687563828204077e-05
127 1 6.524853770491804 9.794551475409836 7.416475490200669e-05
128 1 9.095441967213116 9.719520655737707 5.155318516401775e-05
129 1 11.852849836065575 9.718460327868852 1.8287671330431468e-05
130 1 14.330987540983608 9.777687213114755 9.133431787751606e-05
131 1 16.856335081967217 9.959508196721313 9.318636859149351e-05
132 1 19.424247213114757 9.790411147540985 8.853089968762518e-05
133 1 22.30076524590164 9.890081967213115 8.505332330138031e-05
134 1 25.034795409836068 10.19989967213115 6.829859708837113e-05
135 1 27.546055737704922 10.092251147540985 9.260880268788879e-05
136 1 30.16213704918033 9.976170491803279 2.14076841485357e-05
137 1 32.71490163934427 10.277758032786886 1.2594288731484127e-05
138 1 35.42762426229508 10.275031475409838 5.992421741359561e-05
139 1 38.18341639344263 10.389445901639345 3.249734142723262e-05
140 1 40.53865704918033 10.727589508196724 6.067084029354079e-05
141 1 42.36282491803279 10.093412459016395 2.447317760617298e-05
142 1 45.59076590163935 9.685792131147542 3.896917758775731e-06
143 1 49.287876721311484 10.031004590163935 6.889068983995754e-05
144 1 51.8096393442623 10.015099672131148 6.89643671359558e-05
145 1 54.23930491803279 9.707352131147543 3.5274061346170495e-05
146 1 56.959298360655744 9.306699672131147 6.197931967732221e-05
147 1 59.71211147540984 9.468121967213115 7.926304966619469e-05
148 1 62.42453114754099 9.47993704918033 8.861573491498192e-05
149 1 65.10564590163936 9.834843934426232 4.9186690834682455e-05
150 1 67.6832524590164 10.177026885245903 6.325639772815803e-05
151 1 69.89883278688525 9.337954098360656 2.9034352564418856e-05
152 1 74.59507540983607 9.633634098360655 8.819371334235109e-05
153 1 76.13103606557378 9.719217704918034 6.366694384401087e-05
154 1 78.7904393442623 10.028177049180329 6.101633907522342e-05
155 1 81.46549508196722 10.211512786885248 8.64703331908525e-05
156 1 0.08010019672131148 12.641127868852461 9.5568493963238e-05
157 1 3.5144163278688527 12.252795409836066 1.6415804809659985e-06
158 1 5.051048524590165 12.178925901639346 5.158216741983484e-05
159 1 7.49520524590164 12.093897704918035 6.727608986231465e-05
160 1 10.248977704918035 11.890415737704918 5.383239917973643e-05
161 1 12.90560393442623 12.202859016393443 9.210413803160065e-05
162 1 15.36657442622951 12.256380327868854 4.9552804227825614e-05
163 1 18.16003344262295 12.220632131147541 6.517954535843885e-05
164 1 20.539510163934427 11.914146885245902 1.873407398767466e-05
165 1 23.2810131147541 12.302580327868855 4.7026575719812013e-05
166 1 26.371161967213116 12.688337704918034 9.044056074007564e-05
167 1 29.064394754098366 12.37629836065574 8.505224118472863e-05
168 1 31.50855147540984 12.477433442622953 4.469463721994405e-06
169 1 34.037988852459016 12.48945049180328 1.0621764375241761e-06
170 1 36.83553770491804 12.478594754098362 4.4567698128917545e-05
171 1 39.561489180327875 12.997700983606558 9.626571989215882e-05
172 1 42.31687737704918 12.995933770491805 2.5719886726319686e-05
173 1 45.068377704918035 12.663445245901642 5.095303104670057e-06
174 1 47.78130229508197 12.232750163934428 2.1427758602034833e-06
175 1 50.51805901639345 12.394222950819673 6.348413564412094e-05
176 1 53.077993442622954 12.297026229508198 9.331774254106783e-05
177 1 55.589960655737706 11.787109508196723 9.47723102300269e-05
178 1 58.18877377049181 11.64325836065574 4.295532892471299e-06
179 1 60.918360655737715 11.755804590163935 3.4990834935256955e-05
180 1 63.46112786885247 11.931566557377051 7.580306847197397e-05
181 1 66.09831475409837 12.29808655737705 1.7474123383294205e-05
182 1 68.9112131147541 12.211543606557377 3.1353962356772494e-05
183 1 71.97758032786886 12.240778360655739 5.957543572909785e-08
184 1 74.62385573770493 12.135200000000001 1.1189292931419548e-05
185 1 77.4195868852459 12.181248524590165 7.316172373018045e-05
186 1 80.1077704918033 12.427446557377051 8.913016799536796e-05
187 1 1.099024786885246 15.122699016393444 6.960167229843277e-05
188 1 3.6793629508196726 14.947240000000003 5.392080209169445e-05
189 1 6.401199344262295 14.634342295081968 8.590198537734801e-05
190 1 9.085394098360657 14.153912786885247 8.497260410417421e-05
191 1 11.111832131147542 15.498004590163935 3.341475204661606e-05
192 1 14.275244590163936 14.71048393442623 1.595309430274221e-05
193 1 16.98544262295082 14.362544918032787 4.0441920126673646e-05
194 1 19.598140983606562 14.54997049180328 2.46891166450287e-05
195 1 21.98014229508197 14.232982950819673 8.725165658562695e-05
196 1 24.46060262295082 15.001670163934428 7.708173536543858e-05
197 1 28.108433442622953 14.74128393442623 6.0964754984900506e-05
198 1 30.57258491803279 14.860596065573771 8.409299403784121e-06
199 1 32.99043540983607 14.857263606557378 4.174025302572051e-05
200 1 35.58096786885246 14.589606557377051 4.711644352378479e-05
201 1 37.87799147540984 15.825948852459018 4.518320516942659e-05
202 1 40.82964131147541 15.245394098360658 1.528330802986897e-05
203 1 43.9340793442623 15.113156065573772 2.1366759703957107e-05
204 1 47.462547540983614 14.401676065573772 6.90441175280184e-05
205 1 49.00350688524591 14.51492918032787 8.741439897677237e-05
206 1 51.64503606557378 14.715179672131148 5.406746281333919e-06
207 1 54.28979672131148 14.422983606557379 3.564842885888854e-05
208 1 56.77853770491804 14.077872131147542 1.9655605383021735e-05
209 1 59.400577049180335 13.937555409836067 4.129043611696507e-05
210 1 61.99989508196722 14.257370491803279 8.004403551422777e-05
211 1 64.66232786885246 14.404352131147542 5.4479312039875375e-05
212 1 67.41312131147542 14.374107540983609 7.507826371536281e-05
213 1 69.65748196721312 13.5543731147541 1.5823072326789056e-05
214 1 73.36963934426231 14.453531147540984 4.422584774314191e-05
215 1 76.04974426229509 14.341843278688525 4.997979277174958e-05
216 1 78.73944262295082 14.595918032786885 3.8384738696335855e-05
217 1 81.22767868852459 14.863625573770493 4.608687027144155e-05
218 1 82.39656393442623 17.37508786885246 9.412380522731166e-05
219 1 2.4706447213114755 17.391800655737708 9.855335330962184e-05
220 1 5.2007567213114765 17.102785573770493 1.8613291765935315e-05
221 1 8.574114098360656 16.50309442622951 4.2358821977049234e-05
222 1 10.103510819672133 16.635736393442624 9.2416157793763e-05
223 1 12.331007213114756 16.400444590163936 4.268010406134114e-05
224 1 16.023573770491804 16.686531147540986 8.487945049481655e-05
225 1 18.404817704918035 17.88525704918033 7.518391158066202e-05
226 1 21.223068196721314 16.857799344262297 7.769577987106191e-05
227 1 24.064292459016393 16.532228196721316 8.771029951752631e-05
228 1 26.715819016393446 16.91238098360656 8.002224904670135e-05
229 1 29.408092459016395 17.236790819672134 6.893548342883793e-06
230 1 32.03548393442623 17.33348262295082 4.2461783757089304e-05
231 1 34.529425573770496 17.033460327868855 8.805928976294333e-05
232 1 37.103396721311476 17.13010163934426 3.8781413338460213e-05
233 1 39.456314754098365 17.240931147540987 8.264327255872757e-05
234 1 41.56404459016394 16.604078032786887 4.050102050324251e-05
235 1 45.06630754098361 17.29808786885246 7.365412838438468e-05
236 1 47.68274229508197 17.090465573770494 3.627180355290204e-05
237 1 50.32659409836066 16.978272786885245 1.0930415447930076e-05
238 1 53.00780983606558 16.901272786885247 7.980606906151875e-05
239 1 55.687914754098365 16.681835409836065 1.1786792763200504e-05
240 1 58.285718032786896 16.318496393442626 2.768088052812041e-05
241 1 60.612885245901644 17.5569593442623 6.515135540682565e-05
242 1 63.433357377049184 16.64174491803279 1.3579187821798933e-05
243 1 66.24928524590165 16.59044524590164 9.611885037022817e-06
244 1 69.05057049180328 16.39377967213115 8.447862308728305e-06
245 1 71.81954098360657 16.446644590163935 1.0476436072823447e-06
246 1 74.53852459016395 16.64134098360656 7.327934416375359e-07
247 1 77.26508196721312 16.718391475409838 4.084426319550846e-05
248 1 79.79371147540984 17.181653770491803 6.869770700881003e-05
249 1 1.1052504262295082 19.620205901639345 4.355509575513472e-06
250 1 3.8354432131147544 19.50720524590164 6.963994637588378e-05
251 1 6.469262295081968 19.55047672131148 8.531979193112459e-05
252 1 8.891404590163935 19.19708459016394 1.698619669123508e-05
253 1 11.677996721311477 19.032430819672133 7.310414788343431e-05
254 1 14.545274754098363 19.0344 1.076572110082601e-05
255 1 17.49025967213115 19.135888524590165 1.5341368533736776e-05
256 1 20.14173573770492 19.27504393442623 6.31395434853766e-05
257 1 22.754030163934427 18.90317180327869 8.627331382574369e-05
258 1 25.351227540983608 19.034753442622954 9.508038452442153e-05
259 1 28.046278032786887 19.34436918032787 9.71330530763655e-05
260 1 30.777632131147545 19.633687213114758 3.447111530609447e-05
261 1 34.287923278688524 19.335836065573773 3.485142289132371e-05
262 1 35.8360524590164 19.412230163934428 8.823225701816041e-05
263 1 38.53968655737705 19.606825573770493 6.504638513433825e-05
264 1 40.88785836065574 20.606462295081972 8.558027649456169e-05
265 1 43.53312393442623 19.402788196721314 7.945320285232528e-05
266 1 46.3142124590164 19.466963278688524 2.021582324179039e-05
267 1 49.03642754098361 19.395921311475412 6.509295821645492e-05
268 1 51.716734426229515 19.27671016393443 1.6979634718305548e-05
269 1 54.40996721311476 19.11074360655738 4.196115195006648e-05
270 1 57.0840131147541 18.8789862295082 3.908766870607397e-05
271 1 59.845409836065585 18.89701180327869 7.421858292768453e-05
272 1 62.4472524590164 19.00824524590164 9.97552597300587e-05
273 1 65.11574426229508 18.7681062295082 4.966404196453628e-05
274 1 67.8332131147541 18.668990819672132 4.235400103319287e-06
275 1 70.54967213114755 18.633444590163936 5.9633833113121476e-05
276 1 73.32419672131148 18.785071475409836 6.994265356914831e-05
277 1 76.0765049180328 18.87883475409836 4.8972598685904737e-05
278 1 78.22139672131149 20.530724590163935 5.170196575617838e-05
279 1 81.0231868852459 19.668375081967216 1.2958988042037523e-05
280 1 82.59297704918033 21.875068852459016 2.0062592445112037e-05
281 1 2.611491606557377 21.82538491803279 9.087441318994813e-05
282 1 5.361017704918033 21.839876065573772 9.834961407561629e-05
283 1 8.172855737704918 21.785849836065577 3.302308839515823e-05
284 1 10.767730491803281 21.25427213114754 5.133293081136608e-05
285 1 13.345034098360657 22.170193442622953 3.3347302081854795e-05
286 1 16.133746885245902 21.188683278688526 1.7461441914410848e-05
287 1 18.806025573770494 21.503752131147543 3.801656930938246e-05
288 1 21.485221639344267 21.415290491803283 3.188524504574287e-05
289 1 24.015719344262298 21.343036721311478 7.057365230486032e-05
290 1 26.605746885245903 21.458864918032788 1.2608458740871853e-05
291 1 29.291102950819674 21.734853114754102 5.546377141332992e-06
292 1 31.81387540983607 22.10803803278689 6.142986661291288e-05
293 1 34.396278688524596 21.96580262295082 4.612930277976871e-05
294 1 37.242855081967214 21.820588196721314 8.406144772658392e-05
295 1 40.10619475409837 21.934750163934428 7.700209616227997e-05
296 1 42.75842819672131 21.976355409836067 7.411992259531074e-05
297 1 45.344113442622955 21.5524262295082 2.2112795986073554e-05
298 1 47.70495868852459 22.770339016393443 3.9595231686778455e-05
299 1 50.48301770491804 21.67739344262295 4.780106849689658e-07
300 1 53.18200655737706 21.51496131147541 6.296546803953707e-06
301 1 55.77072131147541 21.32682885245902 8.863530690417413e-05
302 1 58.388216393442626 21.141927868852463 2.306144211480388e-05
303 1 61.13345573770492 21.275074754098362 3.860749800906427e-05
304 1 63.887278688524596 21.151874754098362 8.008038726318133e-05
305 1 66.5779868852459 20.970053770491806 5.5875667705352166e-05
306 1 69.26819016393443 20.9132 9.50472473353058e-06
307 1 71.95384918032788 20.90981704918033 6.78226231415918e-05
308 1 74.74604590163935 21.06881573770492 4.407148465962355e-05
309 1 77.4236262295082 21.863304262295085 4.3778711436372955e-05
310 1 79.88863606557378 22.12369049180328 9.344288048226062e-05
311 1 1.342612393442623 24.135586885245903 2.055000187068833e-05
312 1 4.059384459016394 24.073885901639347 7.57834847145559e-05
313 1 6.873449180327869 23.99713836065574 8.904097343751873e-05
314 1 9.715481311475411 23.908525245901643 4.4304062923575626e-05
315 1 13.397545573770492 23.70231672131148 6.21770513318058e-05
316 1 14.917853770491805 23.584165901639345 2.618627287152552e-05
317 1 17.527270163934425 23.62955803278689 7.358985307725875e-05
318 1 20.205456393442624 23.751748196721312 5.798510153325224e-05
319 1 22.78599147540984 23.796433442622952 4.78687743893213e-05
320 1 25.27089508196722 23.76492655737705 7.666323377047744e-05
321 1 27.880513442622952 23.85364065573771 6.666807834946876e-05
322 1 30.45594885245902 24.309935081967215 7.177958855696831e-06
323 1 33.18018360655738 24.387843934426233 6.722644126521539e-05
324 1 35.96238295081967 24.063989508196723 2.4901693814875304e-05
325 1 38.693333114754104 24.04369180327869 5.5856018537365086e-05
326 1 41.42216262295083 24.25853442622951 2.468483824766373e-05
327 1 44.167048524590165 24.106705573770494 2.727354169711934e-05
328 1 46.91890229508197 24.1002931147541 2.7908850951343147e-05
329 1 49.44687540983607 24.132456393442627 1.925287821970634e-05
330 1 52.09037377049181 23.89671016393443 8.497443162518636e-05
331 1 54.63061639344263 23.827081967213115 5.487968550010488e-05
332 1 57.125921311475416 23.60097967213115 5.367334692096071e-06
333 1 59.84288524590164 23.423349508196722 4.230995501568521e-05
334 1 62.61690491803279 23.413200655737707 1.011241361492803e-05
335 1 65.32982950819672 23.322163934426232 6.344795188878648e-05
336 1 67.94379016393442 23.21754491803279 4.917799252448851e-06
337 1 70.68398032786887 23.194419672131147 2.597424472369436e-06
338 1 73.43780327868853 23.146048524590167 4.921237941983465e-05
339 1 75.35093770491804 24.859689836065577 3.6581627445288605e-05
340 1 78.70662295081968 24.457118688524595 4.566067258659328e-05
341 1 81.42156721311477 24.25353573770492 4.282171493083078e-05
342 1 0.03477622950819673 26.55237704918033 7.281203236943498e-05
343 1 2.644740459016394 26.37479737704918 8.411189836790517e-05
344 1 5.439936393442623 26.21468786885246 3.14033669033722e-06
345 1 8.112518032786886 26.123297704918034 7.665395736968665e-05
346 1 10.795854426229509 26.36803147540984 2.6434383162183952e-05
347 1 13.384266229508198 26.298908196721317 5.5411488939560573e-05
348 1 16.150560655737706 25.93440786885246 7.904049194377015e-05
349 1 18.91816786885246 25.981668196721316 9.978178511381895e-05
350 1 21.53313836065574 26.154754098360655 1.7073192131463968e-05
351 1 24.18744196721312 26.226149508196723 9.861181934978607e-05
352 1 26.778125901639346 26.119510819672136 4.894166695822677e-05
353 1 29.14119278688525 27.533634754098365 2.504307255992725e-05
354 1 31.884816393442627 26.616299672131152 9.10211292703743e-05
355 1 34.71796196721312 26.406102295081972 2.125084913151576e-05
356 1 37.43184590163935 26.324406557377053 5.953016927450809e-05
357 1 40.07307213114754 26.408525901639347 8.682689850333826e-05
358 1 42.759640000000005 26.426400000000005 3.839303626039663e-05
359 1 45.410106229508195 26.353136393442625 5.530687961836882e-05
360 1 48.03886098360657 26.497845901639348 9.718540494733989e-05
361 1 50.64883278688526 26.29900918032787 1.5494681968394907e-05
362 1 53.3228786885246 26.304209836065574 8.752176395456708e-05
363 1 56.17314098360656 26.17318360655738 4.69477165167474e-05
364 1 58.74468852459017 25.737944262295084 8.379908513535383e-05
365 1 61.34299672131148 25.6002531147541 5.755658712547626e-05
366 1 64.13115409836067 25.60747344262295 8.900328739960059e-05
367 1 66.62999344262295 25.609998032786887 4.62960120715233e-05
368 1 69.1192393442623 25.4239862295082 8.941879420786456e-05
369 1 71.87912131147542 25.39353967213115 6.0917794829787355e-05
370 1 74.45723278688526 26.090326557377054 2.8461576777949473e-06
371 1 76.42742295081969 25.94763672131148 8.584113808052544e-05
372 1 80.08504918032789 26.58938754098361 1.744730947365021e-05
373 1 1.3311608524590166 28.83001180327869 8.130369800852657e-05
374 1 4.045019540983607 28.460260327868856 6.950015860904328e-05
375 1 6.738080655737706 28.476973114754102 5.648956537897865e-05
376 1 9.150023606557378 28.497927213114757 2.0389677009484366e-05
377 1 11.907683934426231 28.691714754098363 5.5261091975685706e-05
378 1 15.846095081967215 28.03113049180328 9.618277556707938e-05
379 1 17.3975062295082 28.144737049180332 9.929738689049025e-05
380 1 20.10260459016394 28.424007213114756 8.496732240999328e-05
381 1 22.824617704918033 28.526455081967217 5.475051125007646e-05
382 1 25.58222754098361 28.568767213114757 1.3693732082371125e-05
383 1 28.406082622950823 28.88787540983607 7.874566124253819e-05
384 1 31.01211606557377 29.09145836065574 5.8003176977272425e-06
385 1 33.584370491803284 28.621632131147543 3.0253950027250966e-05
386 1 36.243268852459025 28.62324786885246 4.785376466966465e-05
387 1 38.790428852459016 28.706306885245905 1.9055445139849836e-05
388 1 41.42216262295083 28.723474098360658 3.748483736601337e-05
389 1 44.07419409836066 28.720141639344266 2.7347182433704612e-05
390 1 46.71966163934427 28.752860327868856 3.441851849190591e-05
391 1 49.37800459016394 28.72453442622951 1.0629218962882447e-05
392 1 51.99090491803279 28.565434754098362 8.930039127221244e-05
393 1 54.079750819672135 27.65466360655738 7.259441861863758e-06
394 1 57.742426229508204 28.263190819672133 1.8598203136281234e-05
395 1 60.113016393442635 27.99921967213115 3.229377474680611e-05
396 1 62.80422950819673 27.74363016393443 6.668599718848953e-05
397 1 65.44495081967214 28.041127868852463 5.976198567239955e-05
398 1 67.81453114754099 27.94372918032787 8.742799643512922e-05
399 1 70.24975081967214 27.56302098360656 4.799762536083105e-05
400 1 72.92985573770493 27.980285245901644 3.0367492474435055e-05
401 1 75.35548196721312 28.72074754098361 2.87692295079263e-05
402 1 78.30521311475411 28.680101639344265 8.30444218872717e-05
403 1 81.18678032786886 28.885249836065576 7.019037365834074e-05
404 1 82.49249836065574 31.058366557377052 1.0871683157240398e-05
405 1 3.6370457704918038 30.65180655737705 9.738664424371996e-05
406 1 5.189547540983607 30.71734491803279 9.36850278295943e-05
407 1 7.90176524590164 30.9912124590164 3.6043230015288533e-06
408 1 10.447511475409838 30.75400196721312 1.6178085285452494e-05
409 1 12.581800000000001 30.069080655737707 8.015255926274446e-05
410 1 16.08224524590164 30.834233442622953 6.594391480237859e-05
411 1 18.834805901639346 30.59061049180328 5.782557055458261e-05
412 1 21.398274754098363 30.771472131147544 6.13637950967386e-05
413 1 24.093173770491806 30.811158688524593 2.9298990374348157e-05
414 1 26.847552131147545 30.907345573770495 7.78080696992882e-05
415 1 29.608040000000003 31.328144262295083 2.9781816636990823e-05
416 1 33.25753704918033 30.949506229508202 1.2154827544384006e-05
417 1 34.79582032786885 30.903407213114757 9.734583627331893e-05
418 1 37.40104590163934 31.06876786885246 1.4997385264131969e-06
419 1 40.08054491803279 31.0634662295082 6.491109760411341e-06
420 1 42.76327540983607 31.05306491803279 1.0759015857261223e-05
421 1 45.45509442622951 31.060891147540985 7.860027018046857e-05
422 1 48.16559540983607 31.04377442622951 4.6354410344037894e-05
423 1 50.90634098360656 30.95869573770492 4.5785371999893633e-05
424 1 53.65662950819673 30.596316065573774 4.977111588517512e-05
425 1 56.43721311475411 30.52290098360656 4.848024164119303e-05
426 1 59.1748786885246 30.616714754098364 3.3253269674857615e-05
427 1 61.83630163934427 30.050247213114755 5.577423778720635e-05
428 1 64.17407213114754 31.294819672131148 6.974283833277166e-05
429 1 66.88144262295083 30.513963934426233 1.4013542888897734e-05
430 1 69.56457704918033 30.122652459016393 2.8913882982276975e-05
431 1 72.62135081967214 30.219041311475415 9.307783723459321e-05
432 1 73.98311475409837 32.09425639344263 7.396377219124833e-05
433 1 76.73693770491805 30.80201967213115 6.292240950489822e-05
434 1 79.61295081967215 30.93769114754099 6.209175224260595e-05
435 1 0.982368524590164 33.35362295081968 6.169227756411461e-05
436 1 3.5917899672131153 33.14756590163935 5.509992184738585e-05
437 1 6.4902668852459025 33.157664262295086 2.3760997619436377e-05
438 1 10.234537049180329 32.94898163934427 8.518617133055796e-05
439 1 11.797914754098361 32.939438688524596 8.670580558954011e-06
440 1 14.461761311475412 33.12822754098361 3.0980622012866e-06
441 1 17.308842622950824 32.88117114754098 1.767242890445533e-05
442 1 20.010406557377053 33.10899016393443 3.588182362877386e-05
443 1 22.61507672131148 33.10429442622951 5.581224132574574e-05
444 1 25.3801593442623 33.1062131147541 5.598276883669157e-05
445 1 28.036785573770494 33.31504721311476 6.563687317001727e-05
446 1 30.66261180327869 33.691615081967214 4.700616645194659e-05
447 1 33.26036459016394 33.55049049180328 6.834011430723241e-05
448 1 36.03463672131148 33.36644786885246 4.657136612890546e-05
449 1 38.738422295081975 33.382655737704916 1.6860290693383696e-05
450 1 41.4468531147541 33.36755868852459 3.796984519666418e-05
451 1 44.16709901639344 33.3511993442623 2.164832448784313e-05
452 1 46.88997049180328 33.325902950819675 2.8953211574347193e-05
453 1 49.62248590163935 33.24541901639344 1.844938398560443e-05
454 1 52.3372786885246 33.00704721311476 4.227675581231434e-05
455 1 55.06838032786885 32.80624131147541 8.64840200682329e-05
456 1 57.86108196721312 32.88122163934426 9.792722862217873e-06
457 1 61.53739016393443 32.32475147540984 5.0678785819924524e-05
458 1 63.096072131147544 32.383978360655746 8.007430329470805e-05
459 1 65.69589508196722 33.06415344262295 7.913977827755421e-05
460 1 68.45426229508197 32.62436983606558 7.373580357829568e-06
461 1 71.30099016393443 32.8022524590164 2.8054074356645975e-05
462 1 73.66350163934426 33.58336065573771 4.7226424877135026e-05