# input file

2232 atoms
1 atom types

0.0 82.68810555352132 xlo xhi
0.0 83.16 ylo yhi
-10.0 10.0 zlo zhi
0.0 0.0 0.0 xy xz yz

Masses

1 12.0100 #C

Atoms

1 1 1.3447380983606558 0.5653163278688526 7.377219988582467e-05
2 1 4.017334885245902 0.3892534295081968 7.797298163138129e-05
3 1 6.634471475409836 0.7098491147540984 9.977633130186652e-05
4 1 9.207937704918033 1.0241302950819673 2.611649464278787e-05
5 1 11.850224262295082 1.046745573770492 2.2469583512428973e-05
6 1 14.458832786885248 0.9529822950819673 9.659317165913058e-05
7 1 17.02825967213115 0.8409308852459018 9.182295861271003e-05
8 1 19.605815737704923 0.7406743606557378 9.962107269336638e-05
9 1 22.159489180327874 0.6016148852459018 2.626558906076252e-05
10 1 24.88574360655738 0.6766507540983607 9.306844001361059e-08
11 1 27.57301836065574 1.0873763278688526 1.0387447538434259e-05
12 1 30.204752131147544 0.7955993442622952 9.642201108319147e-05
13 1 32.85991409836066 0.7203817049180329 6.86438652161476e-05
14 1 35.412628196721315 0.8208351475409837 9.471029656398403e-05
15 1 38.08687606557377 1.1755097704918034 1.2386631511167268e-05
16 1 41.21398491803279 1.2667434098360657 5.790229096328927e-05
17 1 44.02011737704918 1.246248786885246 9.93363067527451e-05
18 1 46.540112786885246 1.2833400655737706 2.5021450050212724e-05
19 1 49.1876 1.033345049180328 7.994106672222594e-05
20 1 51.97626229508197 0.7835065573770492 8.303076156534636e-05
21 1 54.7164524590164 0.6764639344262295 7.797176455740361e-05
22 1 57.36272786885247 0.6398119344262296 7.85856066936411e-05
23 1 59.955986885245906 0.5999587540983606 3.5912795141228696e-05
24 1 62.674970491803286 0.7801236065573771 4.551791722553035e-05
25 1 65.73022950819673 0.7410782950819672 9.601518353588867e-05
26 1 68.40528524590165 0.5463011147540985 4.061428724583716e-05
27 1 70.91826229508197 0.5148548196721312 4.145937403942113e-06
28 1 73.38680655737706 0.44069043934426233 9.351320838610278e-05
29 1 75.9684524590164 0.4073512065573771 2.4498554570908362e-05
30 1 78.65764590163934 0.4708769639344263 8.404566735871279e-05
31 1 81.36451147540984 0.5182680655737706 8.362900616453368e-05
32 1 82.49754754098362 2.8777954754098363 5.542056742502898e-05
33 1 3.5277512131147546 2.5684624918032792 3.9775605941138395e-05
34 1 5.058369836065574 2.8392096393442623 9.773392247692285e-05
35 1 7.747007868852459 3.224608524590164 7.196004239958098e-05
36 1 10.461699672131148 3.359376196721312 2.8888668804387108e-05
37 1 13.150186229508199 3.3526405901639347 5.288183057322849e-06
38 1 15.783586229508197 3.2821944262295086 1.5252590425768309e-05
39 1 18.361495737704917 3.1656997377049185 7.580881465237979e-05
40 1 21.00999278688525 3.0521487213114757 7.254206144141559e-05
41 1 23.656722622950824 2.8353217704918037 1.5764524743010732e-05
42 1 25.739459016393443 4.231107081967213 3.944749395606643e-05
43 1 29.192240000000005 3.278094491803279 2.912106578235536e-05
44 1 31.794284590163937 3.067881967213115 3.951555162325321e-05
45 1 34.20940852459017 3.172172786885246 8.568005752126094e-05
46 1 36.67658950819673 3.247213704918033 2.6448972168359742e-05
47 1 38.80497049180328 2.5427066229508197 9.505411052665235e-05
48 1 42.471735737704925 3.3865609836065578 2.435741989100725e-05
49 1 45.19743475409836 3.7185496393442627 7.658981785142163e-05
50 1 48.23931344262296 3.444752786885246 9.758076140357457e-05
51 1 50.85837377049181 3.0401316721311478 8.146899351307342e-05
52 1 53.555140983606556 2.925515278688525 9.555888882739333e-05
53 1 56.14032131147541 2.953881573770492 5.497026225655111e-06
54 1 58.6628918032787 2.9615664262295085 9.165840008624921e-05
55 1 61.206163934426236 2.8980881311475413 9.458200120363325e-06
56 1 63.39801311475411 2.138403606557377 3.0336051799991995e-05
57 1 66.99151475409836 2.9065606557377053 8.587927153220152e-05
58 1 70.4744393442623 2.714913967213115 3.2101327808431106e-05
59 1 72.0028262295082 2.8705196065573775 4.3253174917662054e-05
60 1 74.55316721311476 2.83708393442623 2.5334121387615385e-05
61 1 77.1736918032787 2.7507328524590164 8.098264791180036e-05
62 1 79.9719475409836 2.794524393442623 1.4012923300540014e-05
63 1 1.16447731147541 5.435291147540984 2.371741554484461e-05
64 1 3.698408459016394 6.232304262295083 7.657006360883301e-06
65 1 6.530609836065574 5.326986229508197 7.378410493072662e-05
66 1 9.13992524590164 5.573840655737706 2.3028690668714658e-05
67 1 11.838560655737707 5.654375081967214 7.343006094214917e-05
68 1 14.530985573770494 5.6592222950819675 9.334392256943905e-05
69 1 17.162365901639347 5.608730491803279 1.2605369033572212e-05
70 1 19.694226885245904 5.428373770491803 5.490909565068891e-05
71 1 22.391902950819674 5.255994754098361 7.58238167580955e-05
72 1 24.99081704918033 5.547130491803279 9.550371296256018e-05
73 1 27.050478688524592 4.9921498360655745 3.073653366567898e-05
74 1 30.680536393442626 5.489317377049181 6.734374234591398e-05
75 1 33.05516590163934 5.612315409836066 2.1091827760183648e-05
76 1 35.56637573770492 5.653011803278689 3.324463447737257e-05
77 1 38.15044524590164 5.450337704918033 3.998628052911428e-05
78 1 40.71007672131148 5.409388852459017 2.40142927680962e-05
79 1 43.35529180327869 5.6905272131147555 1.374374152836958e-05
80 1 46.05837049180328 5.012255672131148 5.737222388676407e-05
81 1 49.83344065573771 5.503152131147542 3.755819423705864e-05
82 1 52.38524590163935 5.200302295081968 9.543853537463632e-05
83 1 54.954268852459016 5.275080655737705 8.526031682292437e-05
84 1 57.414734426229515 5.354504262295082 8.941798753638543e-05
85 1 59.98981639344263 5.302699672131149 7.307921887057459e-05
86 1 62.61791475409837 5.0157951475409845 8.135549281089155e-05
87 1 65.22935081967213 4.977653639344263 1.5156314567912554e-05
88 1 67.74535737704919 5.436351475409837 6.0791662950813456e-05
89 1 70.22601967213116 5.365713442622951 2.490087714389182e-05
90 1 73.00256393442623 5.270031475409836 8.849812860471804e-05
91 1 75.93159344262295 5.180055081967214 3.144092871043258e-06
92 1 78.58847213114754 4.952958098360656 4.116787741888212e-05
93 1 81.20798688524592 5.2880570491803285 5.571004693320281e-05
94 1 81.86841967213115 6.694960655737705 5.302900968949381e-05
95 1 2.882243803278689 7.528731803278689 1.1428683457841105e-05
96 1 5.373741639344263 7.641025573770492 3.137196486258119e-05
97 1 7.890101639344263 7.825977049180328 1.8302839555682794e-07
98 1 10.552635409836066 7.908430163934427 2.926660207788793e-05
99 1 13.259955409836067 7.953519344262296 1.1338991746307136e-05
100 1 15.965356721311478 7.982047213114755 3.682473019203314e-06
101 1 18.622386885245902 7.936655081967214 6.992926980353094e-05
102 1 21.21014229508197 7.583212459016394 7.940161888971797e-06
103 1 23.872019672131152 7.69232524590164 4.6860655894075355e-05
104 1 26.422007213114757 7.827996721311477 8.36882015283418e-05
105 1 29.09691147540984 7.556451803278689 4.634611968528902e-06
106 1 31.647959344262297 8.05611868852459 1.34493770899767e-05
107 1 34.25858754098361 8.067580327868853 1.529474481367541e-05
108 1 36.91667803278689 7.938270819672132 7.702013192315029e-05
109 1 39.513824918032796 7.839357377049181 8.972856359445381e-05
110 1 42.091229508196726 7.824664262295083 5.522680319128205e-05
111 1 44.38396131147542 6.811293770491804 6.705793266836045e-05
112 1 48.21785442622951 7.616587540983607 8.354763287081358e-05
113 1 51.907593442622954 7.51752262295082 6.075619871807604e-05
114 1 53.43699016393443 7.558976393442624 8.276719756040234e-05
115 1 55.98430163934427 7.74625049180328 5.1304707361151683e-05
116 1 58.57958032786886 7.684044590163936 1.830892904046423e-05
117 1 61.210203278688525 7.469757377049182 3.619509229312992e-05
118 1 63.86304262295083 7.352515409836066 8.885501749554786e-05
119 1 66.44216393442623 7.565641311475411 3.393401040929943e-05
120 1 69.03390819672133 7.803306229508197 4.388030102565534e-05
121 1 71.60949508196722 7.4860662295081974 1.983924475902538e-05
122 1 73.70641967213116 6.645024262295083 2.198182563525195e-05
123 1 77.31456393442623 7.332773114754099 5.6968551424486606e-05
124 1 79.83511475409837 7.4085613114754105 6.0905877710312864e-05
125 1 1.4058584262295084 9.774809180327871 3.5660491063714e-05
126 1 4.126674885245902 9.961477377049182 9.05423990983011e-05
127 1 6.573881311475411 11.073205901639346 2.727378350406955e-05
128 1 9.329269508196722 10.190255737704918 4.172626994893366e-05
129 1 11.979634754098361 10.217066885245902 2.078275433977357e-05
130 1 14.649489836065575 10.259782950819673 3.5298216506028936e-07
131 1 17.32893836065574 10.30532655737705 8.252056253098924e-05
132 1 20.886136393442627 9.856656393442623 1.8949671859025663e-05
133 1 22.43214491803279 9.902300983606558 4.5093745675967814e-05
134 1 25.207426885245905 10.13936 4.151278000786396e-06
135 1 27.920099016393447 9.93956393442623 7.470603883869525e-05
136 1 30.174760000000003 11.335763278688527 3.8038572036235875e-05
137 1 32.962664918032786 10.445643278688525 5.8531416307462806e-05
138 1 35.6728124590164 10.33728786885246 1.577235564769539e-05
139 1 38.33984 10.269426885245903 9.205206231249214e-05
140 1 40.89982491803279 10.216915409836066 2.5220301321552798e-05
141 1 44.537708852459026 9.32548262295082 3.7017640086301286e-05
142 1 46.08149573770492 9.308365901639347 3.27045009637742e-05
143 1 49.22047016393443 10.086899016393444 4.8634540696992634e-05
144 1 51.86013114754098 9.971222295081969 7.421271826127285e-07
145 1 54.58618360655738 10.04468786885246 8.276004302763369e-05
146 1 57.18449180327869 10.0716 8.328820730139012e-05
147 1 59.787849180327875 9.891293770491805 2.7175071907839766e-05
148 1 62.46997377049181 9.71012918032787 5.414917650994491e-05
149 1 65.20511475409836 9.809800000000001 8.774326284674879e-05
150 1 67.7913049180328 10.018785573770494 3.6248105932776944e-05
151 1 70.49968524590165 9.97536262295082 9.159976791333748e-05
152 1 73.17676065573771 9.584455081967214 9.806951668073444e-05
153 1 75.84222295081968 9.499982295081969 7.694264766680892e-05
154 1 78.56070163934427 9.751936393442625 6.306053939761185e-05
155 1 81.37360000000001 9.633886557377052 1.4698485965923348e-05
156 1 82.50512131147542 12.016847213114756 6.140379862128328e-05
157 1 2.915376524590164 12.157668852459016 3.186357174853667e-05
158 1 5.766466885245903 12.36862360655738 9.619803923720832e-05
159 1 8.257732459016395 12.634967868852462 8.935507703414125e-06
160 1 10.754350163934427 12.531661639344263 8.08218259278092e-05
161 1 13.325544262295084 12.555847213114756 7.54481860935444e-05
162 1 15.913905573770494 12.598260327868854 8.19135302083045e-05
163 1 18.460156721311474 12.754784918032788 8.255845824160108e-05
164 1 20.939455737704918 12.468445901639345 6.594897933351673e-05
165 1 23.832434098360658 12.240879344262297 1.5456858055376865e-05
166 1 26.668407213114758 12.337722622950821 5.420415527777109e-05
167 1 29.401932459016397 12.67541180327869 1.4214706256135312e-05
168 1 31.86704327868853 12.899999344262296 9.85845469314822e-05
169 1 34.492465573770495 12.680662950819674 5.4578617775960316e-05
170 1 37.180699672131155 12.622496393442624 4.570195458445564e-05
171 1 39.81748262295083 12.6488531147541 5.79443257623834e-05
172 1 42.24911737704919 12.583163278688525 6.63376230796745e-05
173 1 44.50923147540984 11.829118688524591 7.69057165824678e-05
174 1 46.723095081967216 10.72577180327869 8.755294280988174e-05
175 1 50.4876124590164 12.28576655737705 8.893946844949812e-05
176 1 53.27087213114755 12.27349704918033 2.4304373529169577e-05
177 1 55.877763934426234 12.437342950819673 4.611742455506619e-05
178 1 58.47253770491804 12.338631475409837 1.2939142272984051e-05
179 1 61.10669508196722 12.06789442622951 2.013396863356476e-05
180 1 63.80043278688525 11.969132459016395 4.6764279950660474e-05
181 1 66.45731147540984 12.27920262295082 3.989526860796484e-05
182 1 69.17528524590163 12.26728655737705 1.5654449587199737e-05
183 1 71.9144655737705 12.05976524590164 7.255764350076834e-05
184 1 74.56124590163934 11.877641311475411 3.845274476472731e-05
185 1 77.16813770491804 11.893041311475411 4.7096797690163216e-05
186 1 79.79421639344262 11.86304918032787 7.54833518727332e-05
187 1 0.531072786885246 13.391436065573771 2.7121465827362347e-05
188 1 4.180090163934427 14.337248524590166 7.676482996582191e-07
189 1 6.795994754098361 14.879681967213116 5.4343687273625487e-05
190 1 9.354161967213116 14.988592786885247 8.405510845034337e-05
191 1 11.977564590163936 14.925074098360657 6.900663572440322e-05
192 1 14.605965901639346 14.950471475409838 7.950333720209722e-05
193 1 17.236992786885246 15.062916721311478 7.744056772356784e-05
194 1 19.875542950819675 15.024896393442624 6.0041618617960693e-05
195 1 22.499753442622954 14.416924590163937 4.891308227756941e-06
196 1 25.237570491803282 14.455197377049181 2.2768495970264925e-05
197 1 27.885512131147546 14.779506229508199 9.875444028723641e-05
198 1 30.45170754098361 15.226257704918034 5.41294139435651e-05
199 1 33.16301639344263 15.117599344262297 3.086398009997325e-05
200 1 35.95869704918033 14.943705573770494 4.283768407577728e-05
201 1 38.689041311475414 14.969860327868854 4.348309059297506e-07
202 1 41.42615147540984 15.078821639344264 9.909125038304563e-05
203 1 44.717964590163945 14.224045901639345 9.116379696789511e-05
204 1 46.130220327868855 13.62097180327869 7.992907732237191e-05
205 1 48.7734662295082 14.035055081967215 5.8766215610379796e-05
206 1 51.54859672131148 14.408896393442625 1.9698015362493992e-05
207 1 54.347862295081974 14.719925901639344 2.3162088477396582e-05
208 1 57.37030163934427 14.768044590163935 2.5328721697241277e-05
209 1 60.112511475409846 14.492460327868853 2.489959736338905e-05
210 1 62.729501639344264 14.240253770491805 6.632006243178395e-05
211 1 65.08645901639345 15.4886131147541 2.0665382570402037e-05
212 1 67.90036721311476 14.550323934426231 5.9671347061160164e-05
213 1 70.66327868852458 14.40743213114754 3.496094169368466e-05
214 1 73.35095737704918 14.296754098360658 4.3846704374738203e-05
215 1 75.95784918032788 14.250756065573771 9.636345810015654e-05
216 1 78.51929836065574 14.226368524590166 5.712607981519019e-05
217 1 81.06660983606558 14.176280655737706 4.434890777033188e-05
218 1 82.58641311475411 16.305772459016396 2.802908579845456e-05
219 1 2.518344327868853 16.358637377049185 7.441918738149507e-05
220 1 5.103610491803279 16.83502754098361 4.985051564102844e-05
221 1 7.735849180327869 17.287383606557377 6.359509685504373e-06
222 1 10.516129836065575 17.2811731147541 3.3822150188512935e-05
223 1 13.229054426229508 17.27536655737705 6.544596267811998e-05
224 1 15.860384262295083 17.343480000000003 6.822274786636737e-05
225 1 18.506508196721317 17.381752786885247 3.138401627128734e-05
226 1 22.056788852459018 16.793321311475413 6.600864229526039e-05
227 1 23.578914754098363 16.624779672131147 7.653725347492735e-06
228 1 26.17707147540984 16.89960655737705 4.408783632744147e-05
229 1 28.780176393442623 17.369735737704918 4.8422071237877296e-05
230 1 31.902892459016396 17.45759147540984 2.467346522879921e-05
231 1 34.68024459016394 17.204375081967214 6.487641583313242e-05
232 1 37.37893049180329 17.22043147540984 3.454967269674222e-05
233 1 40.02858885245902 17.30227868852459 3.816096782133198e-05
234 1 42.639923934426236 17.44708918032787 8.898545497826282e-06
235 1 45.65569836065574 16.50238754098361 8.528900415282578e-05
236 1 47.16030360655738 16.106784262295083 5.329063214284636e-05
237 1 49.97789770491804 16.38050032786885 3.5801208446965375e-05
238 1 52.85128524590164 16.675675409836067 7.511621045933303e-05
239 1 55.03859016393443 16.10491606557377 6.565601666860187e-05
240 1 58.783062295081976 16.828160655737705 2.734977838953269e-05
241 1 61.5040655737705 16.706929836065576 7.575568801488786e-05
242 1 64.27303606557378 16.79574491803279 4.051520142445162e-05
243 1 66.85266229508197 16.93626360655738 3.6914401254419074e-05
244 1 69.51660983606558 16.693448524590167 2.830863227209225e-05
245 1 72.18409180327869 16.641139016393446 4.052500617455246e-05
246 1 74.81622950819674 16.631545573770495 8.211725653453462e-06
247 1 77.40393442622953 16.631545573770495 8.521788361668226e-06
248 1 79.98103606557378 16.586153442622955 5.84538237218001e-05
249 1 1.303269180327869 18.68292655737705 1.1192753178891436e-05
250 1 3.802209508196722 18.90514098360656 3.4804045538335615e-05
251 1 6.143337704918033 20.36228393442623 3.659924667524024e-05
252 1 9.083677377049181 19.489684590163936 4.67364710633737e-05
253 1 11.88309442622951 19.54113573770492 5.998469228435798e-05
254 1 14.487057704918035 19.64994557377049 8.694435391606848e-05
255 1 17.056181639344263 19.69124786885246 1.6309614061217414e-05
256 1 19.598292459016395 19.800007213114757 8.612305149419117e-05
257 1 21.983424262295085 19.466559344262297 8.50559428039317e-05
258 1 24.654491147540984 19.09403081967213 8.280943042157967e-05
259 1 27.247144262295087 19.432931803278688 9.284569378168647e-05
260 1 29.48574885245902 18.74649573770492 6.441545445091879e-06
261 1 33.28303540983607 19.483575081967217 7.010339923911074e-05
262 1 35.95132524590164 19.47746557377049 7.784955217222116e-05
263 1 38.66758229508197 19.590617704918035 4.112718901886181e-06
264 1 41.257609836065576 19.741032786885246 6.602681218132134e-06
265 1 43.85142426229509 19.82252655737705 6.892066406131272e-05
266 1 46.37611540983607 19.250605901639346 3.749259645817366e-05
267 1 48.778616393442626 18.391336393442625 6.278620016269782e-05
268 1 51.627363934426235 18.55745442622951 7.441893044641274e-05
269 1 54.3428131147541 18.967649836065576 6.622459882608638e-05
270 1 57.116327868852466 18.955986229508202 7.865097731213502e-05
271 1 59.97163934426231 19.00567016393443 1.2266412248458858e-05
272 1 62.71586885245902 18.969972459016397 8.41699500459926e-05
273 1 65.4308131147541 19.19920524590164 6.95723771805781e-05
274 1 68.19069508196722 19.082720655737706 3.704484350040671e-06
275 1 70.9440131147541 18.96744786885246 7.14136746027897e-05
276 1 73.63421639344263 18.972042622950823 2.130946363391756e-05
277 1 76.25019672131148 19.009305573770494 3.280323463320277e-05
278 1 78.86668196721313 18.99436 4.1693274871470334e-05
279 1 81.40288524590164 18.806025573770494 6.081688499795707e-05
280 1 0.3161185770491804 21.08224655737705 4.910139144233597e-05
281 1 2.605760786885246 22.500106885245906 8.773501373365553e-05
282 1 5.447914098360656 21.752323278688525 6.385370412784697e-05
283 1 8.063692459016394 21.60211016393443 3.112296374939504e-05
284 1 10.797621639344262 21.667345573770493 9.204869487732442e-05
285 1 13.23051868852459 21.957118032786887 2.6304416178226044e-05
286 1 15.786161311475412 22.059666885245903 6.23703551642579e-05
287 1 18.429457704918033 22.12565967213115 1.3653635392637154e-05
288 1 21.13622229508197 22.074915409836066 1.4659146683008596e-05
289 1 23.68863344262295 21.50839737704918 6.037691380373946e-05
290 1 26.13051803278689 22.70661836065574 3.87461510524204e-05
291 1 28.89176327868853 21.595748196721313 9.37333709089755e-05
292 1 31.682445245901643 21.558182295081966 1.679490041042712e-05
293 1 34.42076721311476 21.752373770491808 2.4948323354382487e-05
294 1 37.08067540983607 21.767622295081967 6.852358417394451e-05
295 1 39.77279737704918 22.038409836065576 3.8325929845642896e-05
296 1 42.79478229508197 22.124649836065576 3.066858792152405e-07
297 1 45.54123344262295 21.837704918032788 8.09766904103201e-05
298 1 48.862230819672135 20.833019016393443 9.694170286168439e-05
299 1 50.37738885245902 20.524160655737706 4.9599350600434925e-05
300 1 52.45896393442624 22.177817704918034 8.364884456091982e-06
301 1 55.967134426229514 21.282244590163938 1.2433304366856213e-05
302 1 58.6972262295082 21.131880000000002 2.34818637071193e-05
303 1 61.36016393442624 21.236953442622955 1.8264685682267502e-05
304 1 64.03976393442623 21.329757377049184 8.677148270649939e-05
305 1 66.76379672131148 21.336270819672134 8.646952705160844e-05
306 1 69.5312524590164 21.22907672131148 5.192914809859696e-05
307 1 72.3572786885246 21.25250491803279 6.238301884268009e-05
308 1 74.9944655737705 21.353135081967217 3.334860846822895e-05
309 1 77.69628196721312 21.363940327868857 5.571731767771933e-05
310 1 80.41476065573771 21.315468196721312 7.603067068183967e-06
311 1 1.902526098360656 23.88923737704918 1.0156108037338974e-05
312 1 4.339462491803279 24.155278688524593 6.912811112820727e-05
313 1 7.697525901639345 23.685704918032787 1.9598521212648834e-05
314 1 9.220106229508199 23.796281967213115 6.832246041933734e-05
315 1 11.815233442622953 24.276055081967215 4.7843816110235674e-05
316 1 14.415308852459018 24.410918688524593 6.707203917955093e-05
317 1 17.134393442622954 24.419249836065575 1.8629761873604546e-05
318 1 19.89104393442623 24.367243278688527 5.542311671050959e-05
319 1 22.642746229508198 24.141645901639347 9.97191165610609e-05
320 1 25.400305573770492 24.07105836065574 6.231460716028085e-05
321 1 27.93494360655738 24.07762229508197 6.676556436476708e-05
322 1 30.53209049180328 23.79547409836066 3.872269489110165e-05
323 1 33.170236721311475 23.89509442622951 4.0965086838822284e-05
324 1 35.811412459016395 24.05671868852459 2.5991283717897397e-05
325 1 38.403914098360666 24.13447606557377 3.6492206269805295e-05
326 1 40.515380327868854 23.3888131147541 9.107555086066221e-05
327 1 44.179015081967215 24.156995409836068 8.439070193782397e-05
328 1 46.670785573770495 24.103171147540987 3.472158163715651e-05
329 1 49.069752131147546 23.666921967213117 6.803191780793717e-05
330 1 51.774800000000006 23.547003934426233 6.018195738739186e-05
331 1 53.80305573770492 22.91676524590164 8.625901995212637e-05
332 1 57.46876065573771 23.438345573770494 8.321611600123716e-05
333 1 60.06201967213115 23.499491147540986 6.767420391197462e-05
334 1 62.72142295081968 23.575329836065578 9.990372098009828e-05
335 1 65.41869508196721 23.58401442622951 8.335897261995244e-05
336 1 68.08718688524591 23.472124590163936 6.909767611118376e-05
337 1 70.8556524590164 23.361194098360656 7.379741424951406e-05
338 1 73.56302295081969 23.65182491803279 6.752455096752403e-05
339 1 76.34663606557378 23.661216393442626 7.535401262055442e-05
340 1 79.14186229508196 23.63864655737705 2.534593010274685e-05
341 1 81.8820524590164 23.62163081967213 9.175322877198696e-05
342 1 0.4859326098360656 26.087297049180332 4.5115477810047256e-05
343 1 3.0544763934426236 26.484061639344265 7.765381437131357e-05
344 1 5.628977704918034 26.67835409836066 6.648636131475082e-05
345 1 8.100097049180329 26.11244196721312 8.15870252945236e-05
346 1 10.209695081967215 27.57342229508197 9.237554058312883e-05
347 1 13.037185573770493 26.735712786885248 7.004973162226062e-05
348 1 15.801359344262297 26.69324918032787 2.2046605667244834e-05
349 1 18.56593704918033 26.632154098360658 6.155495027236439e-05
350 1 21.312085245901642 26.501430819672134 9.890198915868971e-05
351 1 23.99638098360656 26.36762754098361 4.41546966506086e-05
352 1 26.644120655737705 26.461441311475415 5.3838776061151365e-05
353 1 29.339221639344267 26.271390163934427 4.651296639706125e-05
354 1 32.025284590163935 26.164953442622952 8.136053040406455e-05
355 1 34.68095147540984 26.27866098360656 1.1073848764028972e-05
356 1 37.35015016393443 26.41872524590164 6.839305745692551e-05
357 1 40.04328196721312 26.281185573770497 6.0865162069809966e-05
358 1 42.71768131147542 26.34329049180328 7.40031493894952e-05
359 1 45.37158098360656 26.532028852459018 4.166215317336068e-05
360 1 47.98392590163935 26.31183409836066 2.987543465327355e-05
361 1 50.582183606557386 25.86250754098361 9.734300850663567e-05
362 1 53.35822295081968 25.793434754098364 6.674420769490039e-05
363 1 55.98884590163935 25.63408262295082 9.998547468085822e-05
364 1 58.665921311475415 25.830647213114755 2.4286225484887626e-05
365 1 61.37985573770492 25.852611147540987 7.480584393487333e-06
366 1 64.12307540983608 25.857306885245904 9.549767149686893e-05
367 1 66.90820327868853 25.819539016393446 6.017539374656818e-05
368 1 69.67010491803279 25.57909704918033 3.9019959446266766e-05
369 1 72.06240655737706 26.75555606557377 7.587983540849128e-05
370 1 74.9560918032787 25.89714491803279 5.6888366620612986e-05
371 1 77.78262295081969 25.876493770491805 8.363486978028419e-05
372 1 80.52584262295083 25.928348852459017 1.025810038901267e-05
373 1 1.8319082622950822 28.67065967213115 7.484012914828273e-05
374 1 4.607286163934426 28.91943278688525 6.305768472941076e-06
375 1 7.617092459016394 28.650109508196724 3.3640599180940544e-05
376 1 9.207331803278688 28.759828196721315 9.996555741846231e-05
377 1 11.823615081967214 29.155532459016396 1.0975109916698723e-05
378 1 14.550677377049183 28.961088524590167 2.354714473914146e-05
379 1 17.274710163934426 28.900245901639344 1.5643213609801355e-05
380 1 20.008033442622953 28.819913442622955 3.242668891379872e-05
381 1 22.72928918032787 28.74498360655738 6.964160153068375e-05
382 1 25.41121180327869 28.741045245901642 1.5477737620525634e-05
383 1 28.045924590163935 28.63228590163935 2.6024206462030188e-05
384 1 30.824337049180333 28.487677377049184 4.9242019829361616e-05
385 1 33.5092386885246 28.521961311475415 8.537884616412906e-05
386 1 36.14859672131148 28.64097049180328 7.78208387351761e-05
387 1 38.832589508196726 28.63980918032787 4.14715997873458e-05
388 1 41.49906163934427 28.628196065573775 6.167698663470387e-05
389 1 44.157707540983616 28.74654885245902 2.470525219062406e-05
390 1 46.81019344262295 28.750032786885246 3.5383638546216245e-05
391 1 49.33922688524591 28.39300524590164 7.734448700390573e-05
392 1 51.964144262295086 28.016184918032792 9.760199901489386e-05
393 1 54.64172459016394 28.083843934426234 8.476153464736314e-06
394 1 57.32081967213116 28.05935540983607 1.2784651837561502e-05
395 1 60.02465573770492 28.12055147540984 5.660876663835149e-05
396 1 62.74818360655738 28.10399016393443 5.251317208625186e-05
397 1 65.51008524590165 28.0481462295082 1.4533160670493518e-05
398 1 68.30228196721312 27.939336393442627 7.133261722669726e-06
399 1 71.14194098360656 27.99800786885246 7.84506317590975e-05
400 1 73.7665049180328 28.199217704918034 8.273378684729948e-05
401 1 76.49811147540984 28.06632327868853 3.4121412578407064e-06
402 1 79.19033442622951 28.176243934426235 2.9072416364061937e-05
403 1 81.83307540983607 28.370536393442627 2.364909692429166e-05
404 1 0.30042320000000006 30.83675803278689 1.2907903793157871e-06
405 1 2.931655081967213 31.071645901639346 1.4560308579904115e-05
406 1 5.50436393442623 31.7756531147541 4.707449001722893e-05
407 1 7.815474754098362 31.66179409836066 1.186441724419518e-05
408 1 10.554049180327869 31.30830098360656 7.082828205975604e-05
409 1 13.298935081967214 31.312087868852462 2.4444616815500577e-05
410 1 16.01463672131148 31.20519672131148 4.0045248697136e-06
411 1 18.716200655737705 31.12481377049181 3.685369567548207e-05
412 1 21.440687868852464 31.05685180327869 6.318766646079388e-05
413 1 24.196631475409838 31.046400000000002 7.799089067448206e-06
414 1 26.93237836065574 31.026758688524595 5.878313399065376e-05
415 1 29.583753442622953 30.726685901639346 9.620663693507016e-06
416 1 32.29066950819673 30.77621836065574 9.299503764030217e-05
417 1 34.87983868852459 30.90795147540984 1.6570764678613736e-05
418 1 37.55858032786885 30.940518688524595 2.077778875060472e-05
419 1 40.26085114754098 30.951626885245904 9.632387377690252e-05
420 1 42.972513442622954 31.003330491803283 7.076456390993264e-05
421 1 45.704473442622955 31.063920655737707 2.3450486935829864e-05
422 1 48.399473442622956 30.950011147540987 3.204468453996353e-05
423 1 50.983593442622954 30.470339016393446 7.788639677419829e-07
424 1 53.365291803278694 31.40953704918033 7.94142409064241e-05
425 1 56.11810491803279 30.39359147540984 6.98566332614912e-05
426 1 58.7512524590164 30.388390819672136 6.460294688083637e-05
427 1 61.395508196721316 30.386876065573773 1.3857168397077657e-05
428 1 64.07662295081968 30.309472131147544 7.888907755177697e-05
429 1 66.80217049180328 30.19909704918033 6.452289994680804e-05
430 1 69.5277180327869 30.133407213114758 6.213265175410774e-05
431 1 72.2416524590164 30.387431475409837 6.696222619339416e-05
432 1 75.01062295081968 30.343301639344265 2.1934974245289132e-05
433 1 77.77252459016394 30.411415081967217 6.223482329336903e-05
434 1 80.34912131147543 30.623834098360657 7.110996987560202e-05
435 1 1.436633180327869 33.31277508196722 1.768746792103012e-05
436 1 4.037915344262295 33.71337704918033 9.115631964509362e-05
437 1 6.717076065573771 34.212488524590164 9.637709910826123e-05
438 1 9.42055868852459 33.709337704918035 8.476790339828203e-05
439 1 12.106217704918034 33.56432524590164 4.3085415771536196e-05
440 1 14.792028196721313 33.533424262295085 2.86111331158314e-05
441 1 17.467689836065578 33.458847868852466 8.778131903708353e-06
442 1 20.124013114754103 33.36210557377049 8.317958315172393e-05
443 1 22.846733114754098 33.291871475409835 7.999084135121593e-06
444 1 25.639737704918037 33.30676655737705 2.8643356077126528e-05
445 1 29.21930360655738 32.9244931147541 7.004364588490188e-05
446 1 30.76298950819672 32.97872131147541 1.0858669045322888e-05
447 1 33.437287868852465 33.20351081967213 9.609843391817539e-05
448 1 36.183789508196725 33.22709049180328 1.981706927206156e-05
449 1 38.92660524590164 33.23426032786885 4.3522264394240274e-05
450 1 41.67674229508197 33.25789049180329 5.763388779919273e-05
451 1 44.452882622950824 33.29919278688525 4.380825839691497e-05
452 1 47.24997704918033 33.31767278688525 3.7658232286210534e-05
453 1 49.890900327868856 33.09399409836066 1.1633247609020292e-05
454 1 52.59680655737705 32.73610819672132 3.207319063909343e-05
455 1 55.170373770491814 32.83396131147541 5.556159041258554e-05
456 1 57.60205901639345 32.73767344262295 8.569583963444856e-05
457 1 60.115540983606564 32.734340983606565 2.1448401685483566e-06
458 1 62.71182950819673 32.65658360655738 1.7945022647153008e-05
459 1 65.35053114754099 32.51293442622951 9.198512319008551e-05
460 1 68.07809836065574 32.423967868852465 1.3096921165985087e-05
461 1 70.82434754098361 32.49975606557377 2.8563449351253757e-05