# input file

2232 atoms
1 atom types

0.0 82.68810555352132 xlo xhi
0.0 83.16 ylo yhi
-10.0 10.0 zlo zhi
0.0 0.0 0.0 xy xz yz

Masses

1 12.0100 #C

Atoms

1 1 1.0652861639344264 0.8723064918032788 8.371521323835829e-06
2 1 4.112264524590165 0.8638440655737706 3.295200470190396e-06
3 1 6.764891803278689 0.6366208524590165 1.854214005330991e-05
4 1 9.298419016393444 0.7006192131147542 6.129492413298091e-05
5 1 11.957418360655739 0.8470454426229509 1.857079855748971e-05
6 1 14.576680655737706 1.0270133770491805 1.1298648866219707e-05
7 1 17.22724786885246 1.417264524590164 3.2159961421995842e-06
8 1 20.28533442622951 0.9583899672131149 1.5435594028850263e-05
9 1 22.85592262295082 0.23706860983606562 9.824620338918003e-05
10 1 25.55061967213115 0.1305647344262295 5.539441713750263e-05
11 1 28.161298360655742 0.2930922950819672 3.140726525908073e-05
12 1 30.924058360655742 0.35337496393442624 3.6913050035189966e-07
13 1 33.71524524590165 0.4087170098360656 7.539078934605837e-05
14 1 36.386968524590166 0.5048226032786886 2.8530349775032884e-05
15 1 39.05384459016394 0.4982192852459017 9.409111865078369e-06
16 1 41.707390819672135 0.48781645901639353 5.8230747637519124e-05
17 1 44.368763278688526 0.24134324590163936 9.709493204210178e-05
18 1 47.078809836065574 0.3085518754098361 2.495612112935509e-05
19 1 49.53846754098362 0.3354690557377049 3.335328886228122e-05
20 1 51.70057704918034 1.9237478032786888 7.61218003488676e-05
21 1 54.42814426229509 1.1410440655737708 3.27628007278303e-05
22 1 57.02039344262296 0.9871198032786885 2.3843976450476535e-06
23 1 59.87469508196722 0.9176127868852461 2.0401515370530543e-05
24 1 62.590144262295084 1.056020918032787 4.00241091755861e-05
25 1 65.15512786885246 1.182255475409836 7.873726033728225e-05
26 1 67.72314098360657 1.2273295081967215 7.378497585690246e-05
27 1 70.40627540983607 1.1675825573770493 6.053939179182996e-05
28 1 73.13535737704919 1.0276344262295083 3.138816477766242e-05
29 1 75.96289836065574 1.123589049180328 4.451090985693889e-05
30 1 78.43093770491804 1.229424918032787 2.562189209042849e-05
31 1 80.95300327868854 0.8615870819672132 7.15960959741196e-05
32 1 82.60660983606559 2.975184065573771 4.598908155664293e-05
33 1 1.9372796065573772 2.139221573770492 9.481769216797841e-05
34 1 5.617263606557377 3.005706360655738 8.76406455377566e-05
35 1 8.043192786885246 3.051027803278689 7.570980693526404e-05
36 1 10.433272786885247 3.043782229508197 6.84915946716639e-05
37 1 13.045567213114754 3.250066491803279 4.308052319527853e-05
38 1 16.098806557377053 3.456492131147541 3.875578512511483e-05
39 1 18.13589836065574 2.6529958688524595 5.125528315100264e-05
40 1 21.647956721311477 2.852564721311476 5.081281234807209e-05
41 1 24.161388196721315 2.451780983606558 5.544459810960946e-05
42 1 26.731572459016395 2.5904769180327873 2.4808508067398327e-05
43 1 29.740782950819675 2.53059868852459 9.222892294721858e-05
44 1 32.563476721311474 2.5426359344262295 9.873114592604763e-05
45 1 35.08094754098361 2.766506491803279 7.084995682589389e-05
46 1 37.677589508196725 2.8214819672131153 8.145457835709626e-05
47 1 40.32633901639344 2.831176393442623 6.85263346973742e-05
48 1 43.961243934426236 2.415376393442623 9.349316436336291e-05
49 1 45.50432393442624 2.4998037377049185 3.540988684891383e-05
50 1 48.14701442622951 2.7863043278688524 5.435449935452518e-05
51 1 50.75991475409837 3.142256393442623 7.284554622604635e-05
52 1 53.19816393442623 3.6738290491803283 7.926128664585077e-05
53 1 55.86514098360656 3.466388524590164 7.965501861868217e-05
54 1 58.566957377049185 3.0460392131147547 5.7773160013376685e-05
55 1 61.40661639344263 3.2309654426229515 1.0822011939748432e-05
56 1 64.01148852459016 3.508917770491804 1.8908448872885387e-05
57 1 66.49518032786885 3.6011057049180333 7.552197462528717e-05
58 1 69.14095081967214 3.492038360655738 3.644924655780665e-05
59 1 71.7756131147541 3.362759147540984 4.090088197788013e-05
60 1 74.37442622950822 3.241604065573771 4.530941084867235e-06
61 1 77.02625573770491 3.6127541639344263 2.4402966425452788e-05
62 1 79.98507540983607 3.4168762622950823 9.867747867146106e-05
63 1 1.6212968524590166 5.054936393442624 5.966411468005717e-05
64 1 4.312934098360656 5.133754098360656 9.160350542619367e-05
65 1 6.896927868852459 5.477300327868853 2.046973692380383e-06
66 1 9.257924590163935 5.526479344262295 8.455415032155168e-05
67 1 11.62427344262295 5.434230819672132 8.848694102430212e-05
68 1 13.77148786885246 4.591891213114754 9.382700358018519e-05
69 1 17.490108196721312 5.602974426229509 8.305753460190081e-05
70 1 20.248778360655738 5.27644393442623 5.599048728758735e-05
71 1 23.021737704918035 5.00611586885246 2.5007156850355383e-05
72 1 25.443072131147545 4.866415147540985 9.75412483661999e-05
73 1 27.456584262295085 3.950695803278689 3.0434926953916588e-06
74 1 31.14925180327869 4.622878032786885 5.2285160789461794e-05
75 1 33.70231934426229 5.070033442622951 8.58301281823734e-05
76 1 36.28396524590164 5.167331147540984 5.480515076762302e-05
77 1 38.81173639344263 5.153344918032787 2.9675041482118572e-05
78 1 41.352837377049184 5.219994098360656 8.58247098857802e-05
79 1 43.938825573770494 4.997507016393443 5.524946122036087e-05
80 1 46.76232721311476 4.983530885245902 8.508514585113566e-05
81 1 49.30413508196722 5.309061639344263 6.282373173777479e-05
82 1 51.80156065573771 5.780099672131148 3.345236217447849e-05
83 1 53.82678688524591 5.074981639344263 9.132987776621981e-05
84 1 57.19913442622952 5.44124918032787 3.7161823167904506e-06
85 1 59.767147540983615 5.196616393442623 1.1909695694691214e-05
86 1 62.60074754098361 5.715874098360656 6.500710217744636e-05
87 1 65.38638032786886 6.029933114754098 4.7229583353693806e-05
88 1 68.01346885245903 5.866895081967214 8.890112449429174e-05
89 1 70.51230819672132 5.7631344262295086 2.6247460947947734e-05
90 1 73.18685901639346 5.658919344262295 9.89455686087335e-06
91 1 75.72457704918033 5.679822950819673 4.8172463475487825e-05
92 1 77.85381639344263 4.903122688524591 7.576174273557893e-05
93 1 81.66594754098362 5.414791475409837 4.453802230508535e-05
94 1 0.33112625573770493 7.502779016393443 8.91504875395344e-05
95 1 3.057697770491804 7.356504262295083 7.7980740914865e-05
96 1 5.830288524590165 7.620323934426231 7.55757791293614e-05
97 1 8.323977704918034 7.99340786885246 5.8609794924672034e-05
98 1 10.675380983606559 7.95488262295082 7.413715433271468e-05
99 1 13.23132655737705 7.451782295081968 7.668390692810146e-05
100 1 15.836148196721314 7.567307540983607 8.848099984987284e-05
101 1 18.078085245901644 7.031438032786886 7.584844035711463e-05
102 1 21.773125901639347 7.2771816393442625 8.123412810331397e-05
103 1 24.38870229508197 7.395180983606558 6.888936442140664e-05
104 1 27.124701639344263 6.912630819672132 9.477813776920736e-05
105 1 29.764261639344266 6.706573770491804 9.810330173146579e-05
106 1 32.11334229508197 8.114840655737705 9.518855358445428e-05
107 1 35.024043278688524 7.504243278688525 1.4276725318444085e-05
108 1 37.569032131147544 7.588817049180329 9.45742993961174e-05
109 1 40.14492196721312 7.570438032786885 8.890878026844566e-05
110 1 42.78443147540984 7.422194098360657 8.012848156307203e-05
111 1 45.44050229508197 7.13328 6.54123617523564e-05
112 1 48.049767213114755 7.551907540983607 2.2029283902226627e-05
113 1 50.664990163934434 7.9140852459016395 7.60055464190712e-06
114 1 53.39508196721312 8.005020983606558 6.157700461654441e-05
115 1 55.90906885245902 7.92216393442623 5.825516216599769e-05
116 1 58.19079344262296 7.581546229508198 1.433367097338667e-05
117 1 60.83656393442624 7.394979016393443 1.878741403961115e-06
118 1 63.10617049180329 7.176955409836066 5.20941278392824e-05
119 1 66.76531147540983 8.268739672131149 1.4284662223755263e-05
120 1 69.31969180327869 8.259954098360657 1.5698044446341387e-05
121 1 71.9493049180328 7.98800524590164 4.471930487678253e-05
122 1 74.7288786885246 8.04001180327869 2.1443690751482293e-05
123 1 77.50188852459017 7.75776262295082 5.6313333722539486e-05
124 1 80.32034098360656 7.595179016393444 5.017424554721149e-05
125 1 1.7856274754098362 9.648680655737707 8.519700366259494e-05
126 1 4.60130793442623 9.626312786885247 2.7354246317558997e-05
127 1 7.244614426229509 10.210149508196722 2.0195269158506703e-05
128 1 9.832622295081968 10.490076065573772 8.822358642872261e-05
129 1 12.563622950819674 9.942139016393444 9.238843065913955e-05
130 1 15.44589704918033 10.558492459016394 8.868232190430747e-05
131 1 18.08384131147541 10.81701049180328 4.420526498751487e-06
132 1 20.641705573770494 9.525985573770493 4.477905379221782e-05
133 1 23.35225704918033 10.436100327868854 2.8457749377940068e-05
134 1 26.05109442622951 9.35052655737705 9.277411746817831e-05
135 1 28.590428196721312 9.158657704918033 6.050650105045658e-05
136 1 31.284165901639348 9.401725245901641 7.390613755778003e-05
137 1 33.74170295081967 9.707705573770491 4.003687645770242e-05
138 1 36.33920327868853 9.981623606557378 9.496125555952459e-05
139 1 39.18436590163935 9.928809180327871 8.76043046598439e-05
140 1 41.89830032786886 9.744160655737707 8.273058807577702e-05
141 1 44.42162819672132 9.513968524590165 8.887060757916353e-05
142 1 46.60130885245902 10.870733770491803 5.3301141395035156e-05
143 1 49.42324524590165 10.070943606557377 7.594740957666472e-05
144 1 52.155003278688525 10.236657704918034 3.524096508789911e-05
145 1 54.84975081967214 10.44660262295082 8.681934467546095e-05
146 1 58.1236393442623 10.021663606557377 2.633512873737254e-06
147 1 59.639908196721315 9.707554098360657 8.846879726166994e-05
148 1 62.06200000000001 10.823321967213117 5.154737162462454e-05
149 1 65.0268786885246 10.302650491803279 4.131711408359745e-05
150 1 67.84937049180328 10.666645901639345 7.438092372966432e-05
151 1 71.23585573770492 10.357787540983608 6.723446308698047e-05
152 1 73.8351737704918 11.177875409836068 7.5451432187354955e-06
153 1 76.49811147540984 10.086798032786886 8.356363359175702e-05
154 1 79.31555409836066 9.807224918032789 6.291432242661554e-06
155 1 82.02393442622952 9.806063606557377 4.400830191901022e-05
156 1 1.1302590163934427 12.129292459016396 6.664240629085461e-06
157 1 3.5851250491803284 11.674967213114755 8.619159167782108e-05
158 1 5.2875521311475415 13.484593442622952 5.49869755000581e-05
159 1 9.502304918032788 13.570681967213115 8.47587270721796e-05
160 1 12.076831475409836 12.306821639344262 9.777349956414584e-05
161 1 14.982180327868853 12.04552655737705 9.357197254021636e-05
162 1 17.651076065573772 12.297228196721314 6.0891976837139785e-05
163 1 19.994552131147543 12.254108196721313 4.6581222233449504e-05
164 1 23.54670098360656 11.94424 6.557908768954775e-05
165 1 25.060546229508198 11.844468196721314 1.2596490292085505e-05
166 1 27.356509508196726 11.662798688524592 1.1137133425434265e-05
167 1 29.902457704918035 11.543587540983609 5.904414704282337e-05
168 1 32.445679344262295 11.943583606557377 8.34328695917217e-05
169 1 35.01308655737705 12.132523934426231 9.473979576873985e-05
170 1 36.96595803278689 11.402008524590165 7.074631146756623e-05
171 1 40.68988000000001 12.046788852459017 2.9501469440022944e-05
172 1 43.246330491803285 12.031843278688525 7.166032515749425e-05
173 1 45.79889311475411 12.182712786885247 5.7624666663405824e-05
174 1 48.27975737704919 12.428961311475412 6.115203373328057e-05
175 1 50.89523278688525 12.41436918032787 6.492467769004208e-05
176 1 53.34812459016394 12.66536393442623 4.045755711626602e-05
177 1 55.9519868852459 12.994267540983607 4.346901068600293e-05
178 1 58.53464262295083 12.77932393442623 4.446377937321842e-05
179 1 61.44953442622951 12.23421442622951 3.1511375768703565e-05
180 1 63.74539672131148 13.670403278688527 8.550101417817643e-05
181 1 66.53557377049181 12.651933114754101 1.5136837383809e-06
182 1 68.94857704918033 11.76913442622951 6.0274011740208705e-05
183 1 73.12525901639344 12.533630819672133 2.3485583096371134e-05
184 1 75.81596721311476 12.61148918032787 8.508212645856254e-05
185 1 78.40114754098362 12.016443278688525 6.024358158855241e-05
186 1 81.14941639344262 12.013666229508198 6.75180089447232e-05
187 1 3.7253508852459016 13.827129836065573 4.2154496913234874e-05
188 1 6.867137704918034 13.696961967213115 1.8738813599096815e-05
189 1 8.961992131147543 15.008991475409838 3.175269134055406e-05
190 1 12.145399344262296 14.596170491803282 4.960310405231228e-05
191 1 13.663233442622953 14.30200524590164 6.0123520643214034e-05
192 1 16.2301862295082 14.470900327868854 2.6831076799353028e-05
193 1 18.751645901639346 14.817728524590166 9.297151182541986e-06
194 1 21.09184 14.691347540983607 3.400623393502762e-05
195 1 23.579167213114754 14.547950819672133 7.314271577282183e-05
196 1 26.30405836065574 14.313416393442624 5.774400721966564e-05
197 1 28.740136393442626 13.976131147540984 8.62675766761471e-05
198 1 31.265786885245905 14.062825573770494 1.8092007660116728e-05
199 1 33.84026295081967 14.35123475409836 5.8293010153389704e-05
200 1 36.40469114754099 14.400009836065575 8.899765553853787e-05
201 1 39.0991862295082 14.128111475409838 4.5227981172818814e-05
202 1 41.74793573770492 14.395415081967215 1.8223872964500198e-05
203 1 44.21309704918033 14.482866885245903 2.672617400550166e-05
204 1 46.68770032786886 14.67200918032787 6.541991047383667e-05
205 1 49.38855737704918 14.712907540983608 4.2980937999340084e-05
206 1 51.758137704918035 14.99616655737705 4.557882575455591e-05
207 1 54.28222295081968 15.16793967213115 5.081996065771148e-05
208 1 57.137534426229514 15.299874754098362 1.8370367798604627e-05
209 1 60.81636721311476 14.48493704918033 4.625910614114113e-05
210 1 63.239973770491815 15.741728524590165 8.763308075642633e-05
211 1 65.97713442622953 14.99232918032787 7.352328623944596e-05
212 1 68.64512131147542 14.471607213114757 5.596828463898376e-05
213 1 71.50548196721311 14.403443278688526 1.1452042795055317e-05
214 1 74.34817049180329 14.83221967213115 1.9791882719480804e-05
215 1 78.2163475409836 14.289584262295083 9.848191491296434e-05
216 1 79.76190163934427 14.213291147540984 7.436698297347299e-05
217 1 82.60509508196722 14.389507540983608 2.9354492909470154e-05
218 1 1.0575861639344264 16.621447213114756 7.045301568169325e-05
219 1 3.674520786885246 16.48148393442623 4.496980544074991e-07
220 1 6.5687311475409835 16.498954098360656 2.845389453885511e-05
221 1 9.26963868852459 17.215533770491806 2.4810249314665468e-05
222 1 12.935848524590167 17.129596721311476 6.366695448204507e-06
223 1 15.487350819672132 16.703344918032787 3.210056662896739e-05
224 1 17.02674491803279 17.004326557377052 5.202484544315618e-05
225 1 20.61408655737705 17.150348852459018 6.852527053644085e-05
226 1 22.16569967213115 17.000287213114756 5.0698234712697535e-05
227 1 24.984909508196726 16.67633180327869 5.683109367745818e-05
228 1 28.42163409836066 16.403524590163936 6.104556242400701e-05
229 1 29.96279540983607 16.392769836065575 5.762619648927632e-05
230 1 32.62588459016394 16.520514098360657 1.0598394033066928e-05
231 1 34.74906491803279 17.949028196721315 8.346414834271448e-05
232 1 38.57644459016394 16.35944524590164 8.978708119692792e-06
233 1 40.12098885245902 16.535560655737708 6.263566008928863e-05
234 1 42.74747147540984 16.885266885245905 1.495286667730209e-05
235 1 45.4029868852459 17.002205901639346 4.256270462724252e-05
236 1 48.10096590163935 16.903342950819674 3.8834221974067485e-05
237 1 49.779868852459025 18.66187147540984 8.477549510458094e-06
238 1 53.82729180327869 18.11812524590164 7.19860338888988e-05
239 1 56.38571147540984 18.199568524590166 8.885488790382242e-05
240 1 58.41043278688525 16.210948852459016 6.507390379149682e-05
241 1 62.479062295081974 17.05749442622951 4.2793072048384696e-05
242 1 65.08746885245903 17.408816393442624 8.619394330967349e-05
243 1 67.62417704918035 16.991097704918037 2.276587789611555e-05
244 1 70.26893770491805 16.61049049180328 8.04767355048616e-05
245 1 72.93339016393443 16.746868852459016 1.8259317970333378e-05
246 1 75.61601967213115 17.048809836065576 4.048645875430145e-05
247 1 78.12748196721313 16.763935081967215 2.900734726324472e-06
248 1 80.9848131147541 16.460176393442623 7.281309607113872e-05
249 1 2.301668852459017 18.884590819672134 2.135577901488819e-05
250 1 4.909363475409836 18.69958885245902 4.5301175333453904e-05
251 1 7.378973114754099 18.991936393442625 9.500955399628968e-05
252 1 10.040143606557377 19.641664918032788 3.229497138754466e-05
253 1 12.564834754098362 19.696297049180327 1.120688330319386e-06
254 1 14.985664262295083 19.264036721311477 1.5348444103170125e-05
255 1 17.746000655737706 19.707203278688528 6.850317246145507e-05
256 1 20.26766229508197 19.797078688524593 6.674546211094261e-05
257 1 24.254697049180333 18.866464262295086 2.2174013919428373e-05
258 1 25.78005442622951 19.064947540983606 9.552593670004284e-06
259 1 28.35498491803279 19.20607213114754 6.0471177373331664e-05
260 1 31.10603081967213 18.796280655737707 1.081981327339504e-05
261 1 33.914334426229516 19.250959344262295 6.67706133746631e-05
262 1 36.305828196721315 19.69786229508197 3.560493362072321e-05
263 1 38.67667081967214 18.81854754098361 4.6562785304404213e-05
264 1 41.42761573770492 19.0853462295082 2.595237561195495e-05
265 1 44.14175213114754 19.267975081967215 1.2551718447139626e-05
266 1 47.011403278688526 19.202487213114757 8.467939146832109e-05
267 1 51.34511475409836 18.611177704918035 7.578703773517279e-05
268 1 53.39154754098361 19.594152131147546 8.015116624224087e-05
269 1 55.98884590163935 19.68241180327869 7.945073077523684e-05
270 1 58.29228196721312 19.13346491803279 3.719746506516523e-05
271 1 60.80576393442624 18.5193331147541 7.576949629110829e-05
272 1 63.52474754098361 19.516041311475412 4.833502427274223e-05
273 1 66.55072131147541 19.570673442622954 8.480041799165729e-05
274 1 69.24092459016394 19.082619672131152 2.1326413623223673e-05
275 1 71.77662295081969 18.97168918032787 9.73845328185321e-06
276 1 74.48197377049182 19.134323278688527 8.228433346962709e-05
277 1 77.14188196721312 19.27655868852459 6.99017874187332e-05
278 1 79.70383606557377 18.700598688524593 1.3959078352071763e-05
279 1 82.37788196721313 18.745889836065576 3.930335536224954e-05
280 1 0.731964524590164 21.14374557377049 8.081781881248375e-05
281 1 3.4267221639344267 21.143442622950822 1.797907426738288e-06
282 1 6.035941639344263 21.306935081967215 3.0040542691157523e-06
283 1 8.615113442622953 21.48002098360656 1.472068055883502e-06
284 1 11.283504262295084 22.021495081967213 4.5591610038131736e-05
285 1 13.799005901639346 21.91632065573771 8.543197409414873e-05
286 1 16.26139016393443 21.750859016393445 8.503496734636542e-05
287 1 18.871866885245904 22.227501639344265 5.157369818976396e-05
288 1 22.493038032786888 21.68840065573771 1.4841066731876075e-05
289 1 23.992240655737707 21.38519737704918 1.0876477038241639e-05
290 1 26.797413770491808 21.513699016393446 4.402982220138485e-06
291 1 30.44039737704918 21.134556065573772 3.379117129692243e-05
292 1 32.00104852459017 21.103049180327872 6.282816617669316e-05
293 1 34.77804721311476 21.917027540983607 1.6057062758063444e-05
294 1 39.05692459016394 20.871998688524595 4.906824575409649e-05
295 1 40.31159540983607 22.912271475409838 3.5215210409109245e-05
296 1 42.898492459016396 21.499864262295084 1.3566197174291883e-05
297 1 45.70820983606558 21.380501639344264 2.584565103325375e-05
298 1 48.39922098360656 21.19272262295082 5.35364412088141e-05
299 1 51.25776393442623 21.47345704918033 3.055282453001246e-05
300 1 54.60183606557378 21.980344262295084 7.492222857432938e-05
301 1 57.39706229508197 21.89016590163935 8.618158552068395e-05
302 1 60.300845901639356 21.03690491803279 8.005102139084532e-05
303 1 61.81560000000001 20.960157377049182 7.609658328884138e-05
304 1 64.18972459016395 20.895477377049183 2.6308650807438596e-05
305 1 68.01144918032787 21.525211147540986 5.209090339637317e-05
306 1 70.6976131147541 21.41837049180328 1.547784832213739e-07
307 1 73.26411147540985 21.284718688524592 9.51761006371399e-05
308 1 75.88564590163935 21.504862950819675 7.833131789146769e-05
309 1 79.29030819672133 21.123750819672132 9.382970087925558e-05
310 1 80.81566557377049 20.973790163934428 1.0901711914039602e-05
311 1 1.857320786885246 23.421430819672135 1.589262793074826e-05
312 1 4.48666124590164 23.56932131147541 3.882157023345406e-05
313 1 8.05031213114754 23.561192131147546 8.096161273247634e-05
314 1 9.552746229508198 23.914331803278692 5.2409779630565604e-05
315 1 12.229215737704918 24.334676065573774 6.327144936866402e-05
316 1 14.925831475409838 24.289182950819676 1.132883444092102e-05
317 1 17.486876721311475 24.298321967213116 9.13626246366751e-05
318 1 19.508467540983606 23.651168524590165 3.236756217180387e-05
319 1 23.233954754098363 24.392135737704923 5.596270850527563e-06
320 1 25.59601180327869 23.651269508196723 1.379926902416504e-05
321 1 27.77513704918033 25.17147672131148 4.517871258645141e-05
322 1 30.31568262295082 23.774015081967214 2.5249129258420334e-05
323 1 33.235118688524594 23.591638688524593 6.493103014284206e-05
324 1 35.853724590163935 23.05087147540984 4.976870665861482e-05
325 1 39.746592131147544 24.332252459016395 1.5276570358932295e-05
326 1 42.895109508196725 23.827889836065577 7.000215362227714e-05
327 1 44.422082622950825 23.627386885245905 3.892739781948025e-05
328 1 46.91713508196722 23.62839672131148 2.1434589989903143e-05
329 1 49.62586885245902 23.454553442622952 3.704574105766142e-05
330 1 51.98888524590165 22.84016918032787 1.2128794061631754e-05
331 1 55.87927868852459 24.0725731147541 7.96438418728675e-05
332 1 58.6896524590164 24.442829508196724 6.081139521365093e-05
333 1 61.02186885245902 23.68883540983607 9.481182582076318e-05
334 1 63.61411803278689 24.44378885245902 3.7686677008902835e-05
335 1 66.4860918032787 23.678080655737705 2.8587789785801356e-05
336 1 69.25708196721311 23.721352131147544 1.9329756959473443e-05
337 1 72.72889836065575 23.549932459016397 6.949877071103169e-05
338 1 74.25577049180329 23.67530360655738 5.88252648917426e-05
339 1 76.68240655737706 24.07605704918033 8.827380725348552e-05
340 1 79.11661639344264 23.84586491803279 4.9982867824132065e-05
341 1 81.8704393442623 23.406737704918037 8.2529259808885e-05
342 1 0.4093405836065574 25.709466885245906 5.425246773636969e-05
343 1 2.8786487868852464 25.8089862295082 2.94746245348432e-05
344 1 5.394089836065574 26.105777049180332 3.2106939259941336e-05
345 1 7.838751475409837 26.136627540983607 7.825985960243307e-05
346 1 10.573589508196722 26.400396721311477 4.5726075484320253e-05
347 1 13.560583606557378 26.599738360655742 2.533784285855667e-05
348 1 16.32430295081967 26.680171803278693 6.298315476784537e-05
349 1 19.217483278688526 26.57464393442623 1.5817072730853977e-06
350 1 21.99039213114754 26.707841311475413 7.476199252655281e-06
351 1 24.685745573770493 26.46391540983607 4.096749387048479e-05
352 1 27.28203409836066 26.639323934426233 1.9878967579664677e-05
353 1 29.608746885245907 26.423420983606558 5.098644557188958e-06
354 1 32.16221836065574 25.712445901639345 6.0920022011095034e-05
355 1 34.82611540983607 25.656854426229508 9.098517824078254e-05
356 1 37.6793062295082 25.95031278688525 2.8313475598195095e-05
357 1 40.459435409836075 26.747325901639346 4.894317889609558e-05
358 1 43.14620524590164 26.683100327868857 7.113580105694351e-06
359 1 45.62075803278689 26.160661639344266 7.561492749168431e-06
360 1 48.39674688524591 25.82246754098361 4.255595854200088e-05
361 1 51.21737049180328 25.59914229508197 5.316339190180266e-05
362 1 53.96311475409836 25.836807213114756 8.917731342314362e-05
363 1 56.783081967213114 26.32385114754099 5.433124062621291e-05
364 1 60.813337704918034 26.37681704918033 1.5978304811732324e-05
365 1 63.400537704918044 25.961723934426235 5.772508463125314e-05
366 1 64.9304393442623 25.96717704918033 5.6846291054492516e-05
367 1 68.39215737704919 25.81423737704918 6.45386212149612e-05
368 1 69.90236721311477 26.069776393442627 1.2707486376905331e-05
369 1 72.54258360655739 26.30325049180328 3.329994043993615e-05
370 1 75.34740327868853 26.334302950819673 4.086839198913319e-05
371 1 77.98913442622951 26.413171147540986 1.5803874183295008e-05
372 1 80.54856393442623 25.80307868852459 1.8938467764785507e-05
373 1 1.4322302950819674 28.192704262295084 3.0605018606898793e-06
374 1 4.150815016393443 28.318226885245906 5.7857500103162175e-05
375 1 6.735101639344263 28.53781573770492 8.611169877020812e-05
376 1 9.237475409836067 28.4601593442623 7.402107043177012e-05
377 1 11.293956065573772 27.76145377049181 5.3019103894083164e-05
378 1 14.920933770491805 28.78002491803279 3.40666422582654e-05
379 1 17.039266885245905 28.045722622950823 4.770778784477181e-05
380 1 20.60681573770492 28.82698229508197 9.239649771793116e-05
381 1 23.195076065573772 28.85480327868853 4.060312894792221e-05
382 1 25.802927213114756 28.935691147540986 1.6350205575550436e-05
383 1 28.93942754098361 29.003299672131153 2.1098954657527848e-05
384 1 31.449476065573773 28.271168524590166 2.4484978799636084e-05
385 1 33.58295672131148 29.301150819672134 1.607996989176037e-05
386 1 36.02827475409836 27.931611147540984 3.403935984581047e-05
387 1 38.76326426229509 28.386340327868858 7.699031895639793e-05
388 1 41.974391475409845 28.975276721311477 2.5565712623885886e-05
389 1 44.5038793442623 28.958917377049186 6.383472621951051e-05
390 1 47.29233967213115 28.1921993442623 3.1173370200369947e-05
391 1 50.00536524590165 27.87248524590164 7.137938333177718e-05
392 1 52.46502295081968 27.985132459016395 6.08193212949272e-05
393 1 54.865908196721314 28.143171803278694 6.449913599241597e-06
394 1 57.45714754098361 28.48848524590164 8.202696511393437e-06
395 1 59.955986885245906 28.864649180327874 2.2651102275548108e-05
396 1 62.725462295081975 28.492171147540986 4.7065188775083e-05
397 1 65.55098360655738 28.501461639344264 7.063870508460094e-05
398 1 68.22149508196722 28.44243672131148 4.610617126408967e-05
399 1 71.1055868852459 28.481062950819673 4.914283028328961e-05
400 1 73.98412459016393 28.515902295081972 1.310273417554717e-05
401 1 76.74198688524591 28.734077377049182 7.794043026385173e-05
402 1 80.1688655737705 28.23592524590164 9.519153637259503e-06
403 1 81.69826229508197 28.121359344262295 5.5289777675745746e-05
404 1 0.2904899475409836 30.662005901639347 4.2183504528469884e-05
405 1 2.9527505573770494 30.45630229508197 4.716836768207069e-05
406 1 5.651648524590164 30.73269442622951 3.8260972847517466e-05
407 1 8.16280786885246 30.88563409836066 2.1863122779332735e-05
408 1 10.861796721311476 30.660440655737705 8.26713180679211e-05
409 1 13.529935081967214 30.853521311475415 1.768457861652888e-05
410 1 16.234579016393447 30.94991016393443 8.767425904986504e-05
411 1 18.944474098360658 30.940619672131152 4.57003635866481e-05
412 1 21.69531803278689 31.199440655737707 4.70695149989514e-05
413 1 24.469085245901642 31.23776393442623 5.007976586774088e-06
414 1 26.658056393442624 30.217728524590168 8.196184067756166e-05
415 1 30.35572262295082 30.96268459016394 8.9366904916915e-05
416 1 32.90515475409837 30.682202622950822 6.226880982807637e-06
417 1 35.88275737704919 30.479528524590165 3.484673454602604e-05
418 1 37.38145508196722 30.287508196721316 8.314726106943524e-05
419 1 39.39976393442623 29.775319344262297 9.253087931123106e-06
420 1 42.86612721311476 31.32647803278689 5.499485301050812e-05
421 1 45.302659672131156 30.31391540983607 4.7219611335776126e-05
422 1 48.8104262295082 30.22656459016394 2.8132901474024553e-05
423 1 51.121436065573775 30.390511475409838 6.268779336867205e-05
424 1 53.64047213114755 30.566323934426233 9.206778648364596e-05
425 1 56.10093770491804 30.59439737704918 5.590660026760519e-05
426 1 58.657337704918035 31.000200000000003 5.607406415593339e-05
427 1 60.67902950819673 30.220859016393447 2.2292247318205804e-05
428 1 64.20588196721312 30.62565180327869 1.0098635269824408e-05
429 1 66.86579016393443 30.737087213114755 6.094953658971586e-05
430 1 69.61052459016395 30.53713967213115 1.1400296952024015e-05
431 1 72.46583606557378 30.585005901639345 8.512567341202552e-05
432 1 75.33175081967214 30.86700262295082 6.156631600854211e-05
433 1 77.94066229508198 31.264322622950825 1.4584163197564882e-05
434 1 80.3264 30.902750819672132 8.701046201894275e-05
435 1 2.59883331147541 32.56307278688525 3.7900593960305344e-05
436 1 4.122408327868853 32.804423606557386 5.564008184801577e-05
437 1 6.840831475409837 33.22284918032788 4.4117122571657554e-05
438 1 9.503365245901641 33.021689836065576 9.262105667376906e-05
439 1 12.13444262295082 33.06773836065574 1.8968352555352288e-05
440 1 14.692862295081968 33.21285180327869 7.491216631724202e-05
441 1 17.37680459016394 33.24870098360656 1.0149692620837581e-05
442 1 20.07478360655738 33.32236852459017 3.841558156598634e-05
443 1 22.923228196721315 33.44965836065574 9.903940279724903e-05
444 1 26.888046557377052 32.86006557377049 8.86900918364796e-05
445 1 28.4317324590164 33.13019672131148 6.330620465868177e-05
446 1 32.06204262295082 33.17488196721312 7.796473633078686e-05
447 1 33.57634229508197 33.12933836065574 6.157202692909844e-05
448 1 36.078059672131154 33.38659409836066 1.2609127153964262e-05
449 1 39.00582688524591 32.61159540983607 3.223928150556439e-05
450 1 40.56774032786886 32.80250491803279 2.5852359735405095e-05
451 1 43.244361311475416 32.81593573770492 4.604410603809362e-05
452 1 46.941169180327876 32.32242885245902 1.7555248761307296e-05
453 1 49.32933049180328 32.74247016393443 6.470255756281489e-05
454 1 52.02826885245902 32.855016393442625 3.0293189545275013e-05
455 1 55.62278032786886 32.83274950819672 7.627205333140997e-05
456 1 57.1420786885246 33.08424918032787 6.939041339260026e-05
457 1 59.86106229508197 33.163521311475414 7.616633007102947e-06
458 1 62.60226229508197 32.86531672131148 5.5483634429190766e-05
459 1 65.35154098360657 32.9545862295082 8.598202500706406e-05
460 1 68.09980983606557 32.828659672131145 3.059503716974411e-05
461 1 70.8708 32.64512196721312 2.360940167702286e-06
462 1 73.70995409836067 32.78316655737705 1.802766494476853e-05