# input file

2232 atoms
1 atom types

0.0 82.68810555352132 xlo xhi
0.0 83.16 ylo yhi
-10.0 10.0 zlo zhi
0.0 0.0 0.0 xy xz yz

Masses

1 12.0100 #C

Atoms

1 1 1.3719329836065575 1.170405049180328 3.1102193848243035e-05
2 1 4.0655242622950825 0.8439906885245902 2.3808585932711224e-05
3 1 6.727830819672132 0.6435230819672132 2.6104810825578052e-05
4 1 10.25872262295082 0.4907565967213115 3.303720527722314e-05
5 1 11.76686229508197 0.8308426229508198 7.647178222854545e-06
6 1 15.0574131147541 1.3273891147540984 4.47846682981373e-05
7 1 17.990936393442624 0.7284553442622952 5.789548475285328e-05
8 1 20.68320983606558 0.1468821704918033 7.210591370482925e-05
9 1 23.13514229508197 0.38365489836065575 1.8960655989581643e-05
10 1 25.59424459016394 0.590552131147541 9.300154726309896e-05
11 1 28.119137704918035 0.9924618360655738 8.515294833924177e-05
12 1 30.789497704918034 0.7441532459016394 3.406435489567467e-05
13 1 33.37932327868853 0.5592724590163936 5.97538380369489e-07
14 1 35.9369855737705 0.738543606557377 6.696499047428702e-05
15 1 38.483337704918036 1.1975797377049182 9.9560466597589e-05
16 1 41.07992918032787 1.3993449836065575 4.063419408088051e-05
17 1 44.36689508196722 1.3301257704918035 8.636725230780553e-05
18 1 47.02372327868853 0.9590918032786886 3.480464034738401e-05
19 1 49.706453770491805 0.7366451147540984 1.9523930093517174e-05
20 1 52.28375737704919 0.5993780983606557 8.301299503980471e-05
21 1 54.81693114754099 0.45366885245901645 9.228984741589139e-05
22 1 57.486432786885246 0.33308382295081973 7.459801621573495e-05
23 1 60.30740983606558 0.3381744065573771 6.545930205301129e-05
24 1 62.79160655737706 0.7710855737704919 2.7135929266894256e-05
25 1 65.21723278688525 1.1044476065573772 7.838877157334585e-05
26 1 68.1296 0.8017997377049181 4.7375582816236305e-05
27 1 70.83899016393444 0.5657000655737705 9.922607580402946e-05
28 1 73.38478688524592 0.670556393442623 2.9317290800193486e-05
29 1 75.99723278688526 0.7720247213114755 3.223858638429187e-05
30 1 78.6556262295082 0.8888627540983608 8.799014186267534e-05
31 1 81.33320655737705 1.0633826229508199 4.827914003188204e-05
32 1 82.66669508196723 3.349757508196722 1.9321647784324425e-05
33 1 2.6683857704918035 3.257357508196722 7.304082886497986e-05
34 1 5.257509508196722 3.0593488524590167 6.004363764724428e-05
35 1 7.802649836065575 3.1967521967213117 3.027553726494895e-05
36 1 10.263973770491804 3.097636786885246 6.231667948521402e-06
37 1 12.373874754098361 2.274241704918033 2.290682749889024e-05
38 1 15.826453770491804 2.6979487213114757 2.93326652174159e-05
39 1 19.47191147540984 2.549321049180328 4.169058328475771e-05
40 1 21.960702950819673 2.6530867540983607 7.024641022511843e-05
41 1 24.06363606557377 4.098081377049181 6.662812000324878e-05
42 1 26.735157377049184 3.174338885245902 6.707076588930097e-05
43 1 29.36840590163935 3.1271593442622954 1.572631908516311e-05
44 1 32.022810491803284 2.97952131147541 6.184732937402105e-05
45 1 34.66444065573771 3.0055043934426235 6.970898427435145e-05
46 1 37.218215081967216 3.2739137704918035 8.604499542461477e-05
47 1 39.83192327868853 3.57751593442623 4.001155638982972e-05
48 1 42.07850557377049 2.5740418360655744 7.915956059658329e-05
49 1 45.89775606557377 3.4074292459016395 4.261083548547138e-05
50 1 48.47899803278689 3.1016357377049184 7.495067433593277e-05
51 1 51.051757377049185 3.0511035409836067 8.716967875777989e-05
52 1 53.46880000000001 2.965196786885246 9.270034063727017e-05
53 1 56.02873442622951 2.745395868852459 1.190458522736304e-05
54 1 58.652288524590176 2.584564327868853 5.439135059039292e-05
55 1 61.264734426229516 2.9598497049180335 1.1376791753395788e-07
56 1 63.809016393442626 3.35213062295082 9.723720416659797e-05
57 1 66.02510163934427 2.403571409836066 6.777438879441274e-05
58 1 69.80138360655738 2.8812592131147543 3.9503289112766663e-05
59 1 72.17803278688525 3.0115381639344263 8.239083872912209e-05
60 1 74.69000000000001 3.070850885245902 6.273521970986647e-05
61 1 77.30497049180329 3.139297573770492 4.992283286972454e-05
62 1 79.96689836065575 3.256882885245902 6.297590355041876e-05
63 1 1.3000326557377049 5.582575737704919 8.9543324354604e-06
64 1 3.929590229508197 5.516835409836066 4.319100927231177e-05
65 1 6.542778360655738 5.504565901639345 3.331402289293224e-05
66 1 9.32280655737705 5.562025573770493 9.056758335284074e-05
67 1 12.068045901639346 5.240342295081968 6.95790416299463e-05
68 1 14.754916721311478 5.268062295081968 9.104352021479654e-05
69 1 17.607501639344264 5.0507455737704925 6.993627108127778e-05
70 1 20.467508852459016 4.9990167213114765 7.435736131759526e-05
71 1 23.267784262295084 5.405500983606558 7.587933931204204e-05
72 1 25.65579409836066 5.716782950819673 7.086993206558601e-05
73 1 28.110251147540986 5.474371803278689 5.2653072131545303e-05
74 1 30.697400655737706 5.333398688524591 1.288385753892799e-05
75 1 33.37538491803279 5.277807213114754 2.9647952406958413e-05
76 1 36.06028655737705 5.472907540983607 9.448832860957069e-05
77 1 38.63829704918033 5.694415081967214 9.63722780413051e-05
78 1 41.409388196721316 5.435442622950821 8.128565153219037e-05
79 1 44.25424786885247 5.494518032786885 9.069831024651617e-05
80 1 47.94964196721312 5.442309508196722 1.2426847865246205e-05
81 1 49.493630819672134 5.411711475409836 3.7931603968841356e-05
82 1 52.00857704918034 5.514462295081968 8.177339673732769e-05
83 1 54.575580327868856 5.26180131147541 4.049088010590055e-05
84 1 57.21377704918034 5.0323413114754105 8.629870974707184e-05
85 1 59.71413114754099 5.099975081967214 8.68594995343892e-05
86 1 62.341724590163935 5.529306885245902 5.222557629047307e-05
87 1 65.81960000000001 5.18944655737705 4.417710167171955e-05
88 1 68.58099672131148 5.01755731147541 5.0145544697197e-05
89 1 70.8324262295082 5.440390819672132 3.641117604796901e-05
90 1 73.3120786885246 5.459426229508197 3.4222563343957016e-06
91 1 75.92957377049181 5.446045901639344 5.0291026646450376e-05
92 1 78.58847213114754 5.497648524590164 5.09540919276418e-05
93 1 81.29079344262296 5.569700327868853 2.258506685174707e-05
94 1 82.61519344262297 7.851576393442624 4.8661667591331974e-05
95 1 2.593259016393443 7.888334426229509 2.6532969660605468e-05
96 1 5.166977704918033 7.855969180327869 2.310927109410166e-07
97 1 7.773364590163935 7.7164603278688535 7.941715633515043e-05
98 1 10.555967868852461 7.6478419672131155 2.7694010409023307e-06
99 1 13.615064262295084 7.687427540983607 3.459494864973162e-05
100 1 16.452451147540987 7.355898360655739 3.0959051926699614e-05
101 1 19.990916721311475 6.989176393442624 9.541703465318586e-05
102 1 21.526826885245907 7.305457049180329 7.572671569927082e-05
103 1 24.227582950819674 8.021228852459018 6.729466103714201e-05
104 1 26.86396196721312 8.021632786885247 1.4457141019746933e-07
105 1 29.455150819672134 7.7424636065573775 5.6382007825912996e-05
106 1 32.07431213114754 7.5541796721311485 6.56159410641781e-05
107 1 34.7163462295082 7.605378360655738 5.6729738824186765e-05
108 1 37.279663606557385 7.929636721311477 2.8614269914765656e-05
109 1 39.85923934426229 7.737313442622952 1.3368001578868228e-05
110 1 42.541818360655746 7.562359344262296 7.590692579142418e-05
111 1 45.05822885245902 8.06076393442623 4.612721386827481e-05
112 1 47.52470295081967 8.00143606557377 5.826158597304003e-05
113 1 50.34648786885246 7.919285901639345 3.86825094635096e-05
114 1 53.3572131147541 7.821281311475411 7.697739586977952e-05
115 1 55.98127213114755 7.479855737704919 7.758942270047923e-05
116 1 58.45991475409837 7.508333114754099 3.2673534490349777e-05
117 1 60.89260983606558 7.592452459016394 1.6163729158292685e-05
118 1 63.133940983606564 6.8486577049180335 8.951580906863259e-05
119 1 67.05260983606559 7.227396721311476 9.470641051025383e-05
120 1 69.33180983606557 7.78013049180328 8.108683721361347e-05
121 1 71.82257049180329 7.881619016393444 2.432176616335572e-05
122 1 74.51024918032788 7.785937049180329 9.932055832683147e-05
123 1 77.17520655737707 7.774475409836067 4.198706064320733e-05
124 1 79.87803278688524 7.79820655737705 8.153696501349339e-06
125 1 1.251636262295082 10.177582295081969 8.894633755700168e-05
126 1 3.8946751475409838 10.259328524590165 9.046140370454204e-06
127 1 6.507787540983607 10.130473442622952 2.3037771261133467e-05
128 1 9.168200655737706 9.842064262295082 5.5124553455917404e-05
129 1 11.336924590163935 8.97209049180328 9.686180880524696e-05
130 1 15.193640000000002 9.648276721311476 2.8964422085244715e-05
131 1 17.772609836065573 9.713512131147542 7.046462785201629e-05
132 1 20.15632786885246 9.6766531147541 9.048840314636286e-05
133 1 22.927065573770495 9.897201311475412 5.5247097030523266e-05
134 1 25.79823147540984 10.36430098360656 7.27561991900406e-05
135 1 28.501158688524594 10.194345573770493 7.6249619853633326e-06
136 1 31.134558688524592 9.910733114754098 2.8032843689319132e-06
137 1 33.65950229508197 9.82292786885246 3.604953148436145e-05
138 1 35.81595672131148 11.308144262295084 1.014391054197028e-06
139 1 38.635721967213115 10.196870163934427 7.940670400763458e-05
140 1 41.33516524590164 9.894878688524592 6.677511286315933e-05
141 1 43.63971213114755 11.268457704918033 4.906654298972513e-05
142 1 46.413731803278694 10.46740524590164 9.095228565384436e-05
143 1 48.98371409836066 10.119971147540985 5.748779075734584e-05
144 1 51.082557377049184 9.290592786885247 8.955282357413009e-06
145 1 54.72705573770492 9.94764262295082 3.076325065076392e-05
146 1 57.21175737704918 9.942340983606558 3.372583870537265e-05
147 1 59.73836721311476 10.018634098360655 4.21474539707016e-05
148 1 63.165245901639345 9.40743081967213 3.4582182580078906e-05
149 1 64.67545573770492 9.16421180327869 8.76104264378911e-05
150 1 67.42826885245903 9.939260983606557 8.226288098144416e-05
151 1 70.46535081967214 10.307750163934427 9.33626854264364e-05
152 1 73.15151475409836 10.111892459016396 2.0808703857507907e-05
153 1 75.76547540983607 10.08008262295082 6.373756985963683e-05
154 1 78.44204590163935 10.049484590163935 9.643060847469135e-05
155 1 81.17567213114755 10.054786229508197 6.999035663741075e-05
156 1 82.37283278688525 12.30858885245902 1.5786808856133718e-05
157 1 2.4067725901639347 12.549788196721313 7.541864989290013e-05
158 1 5.467757377049181 12.536306885245903 9.538316647456218e-05
159 1 8.234253770491804 12.225479344262297 4.185337153478552e-05
160 1 10.888052459016395 11.848558032786887 2.631172096770298e-05
161 1 12.911864918032787 10.66457573770492 9.959585028508762e-05
162 1 16.417712786885247 11.992661639344263 9.537337052875184e-05
163 1 18.8721193442623 12.170493770491804 4.994135083825595e-05
164 1 21.471689836065575 12.03012655737705 8.038069547259794e-05
165 1 24.165326557377053 12.266983606557378 9.971737287444078e-05
166 1 28.09772918032787 12.384982950819674 3.026839175499926e-05
167 1 30.707297049180333 12.132473442622953 1.714442425147389e-06
168 1 32.257294426229514 12.243100983606558 4.2235219740881495e-05
169 1 34.98198360655738 12.617952131147543 5.692232832716597e-05
170 1 37.58731016393443 12.537720655737706 6.984148341749134e-05
171 1 40.21990229508197 12.306417704918035 8.186466079050643e-05
172 1 42.86284524590164 12.588010491803281 4.58836870874397e-05
173 1 45.4641324590164 12.862837377049182 4.386958999577192e-05
174 1 48.04911081967214 12.634462950819673 8.61644276577899e-05
175 1 50.562996721311485 12.257844590163936 4.0618774509722134e-05
176 1 53.234518032786895 12.14519737704918 8.719034611462062e-06
177 1 55.85100327868853 12.378318032786886 3.807160968111815e-05
178 1 58.349842622950824 12.390436065573772 2.7206900509205913e-05
179 1 60.878977049180335 12.468041967213116 9.177500531271265e-05
180 1 63.25461639344263 12.095513442622952 5.061339614098124e-05
181 1 65.78980983606559 11.64901442622951 6.880791149830066e-05
182 1 68.07001967213115 11.359696393442624 7.169022524884684e-05
183 1 71.75491147540984 12.466274754098361 8.666533099401578e-05
184 1 74.3320131147541 12.432192786885247 7.711650220552508e-05
185 1 76.99747540983607 12.34777049180328 9.524907992518115e-05
186 1 79.71898360655739 12.280818360655738 6.869900116066943e-05
187 1 0.9958700327868854 14.633837377049183 2.3618368131986422e-05
188 1 3.19251593442623 13.872370491803279 8.751918902158807e-05
189 1 6.85688786885246 14.537852459016396 3.066440804253239e-05
190 1 9.608792131147542 14.334875409836068 1.785151748042836e-05
191 1 13.033903606557379 13.62056786885246 7.766581259426481e-05
192 1 14.565521967213117 13.867876721311475 8.496867395032453e-05
193 1 17.134241967213118 14.449946229508198 1.7594215138108606e-05
194 1 19.873573770491806 14.411875409836066 6.259627397652876e-05
195 1 22.511568524590167 14.412329836065576 7.16241482356984e-05
196 1 25.091093770491803 14.713210491803281 8.585367932101035e-05
197 1 27.604373770491804 14.732296393442626 9.203614366608104e-05
198 1 30.30391803278689 14.470092459016396 8.092830590594304e-05
199 1 33.21936524590164 14.702203278688526 2.6381383783094538e-05
200 1 37.030991475409834 14.727398688524591 9.469776066234803e-06
201 1 38.570385573770494 14.654942950819674 2.849651555458175e-05
202 1 41.172076721311484 14.725025573770493 1.4207238267630618e-05
203 1 43.908530491803276 15.013434754098363 3.8810206156103625e-05
204 1 46.80443737704919 15.096493770491806 9.037383595816566e-05
205 1 49.33079475409836 14.885942950819674 4.142147035930455e-06
206 1 51.93738360655738 14.543558032786887 7.779150407139246e-06
207 1 54.67100983606558 14.62156786885246 1.6158564331473926e-05
208 1 57.196104918032795 14.823939016393444 7.195260704035654e-05
209 1 59.76512786885247 14.810861639344264 8.681702191208531e-05
210 1 62.59973770491804 14.683167868852461 5.3515772751965896e-05
211 1 65.07080655737705 14.165172459016395 2.0066747299437793e-05
212 1 67.3404131147541 15.39510229508197 5.529038374255161e-05
213 1 70.23763278688526 14.570217704918035 1.1836635793931018e-06
214 1 72.92884590163936 14.820808524590166 1.2408052186807261e-05
215 1 75.56300327868853 14.68170360655738 1.1282569037704594e-05
216 1 78.39710819672132 14.546739016393444 8.981539749042051e-05
217 1 81.00450491803281 14.59001049180328 9.868554556297371e-05
218 1 82.40312786885247 16.871785573770495 3.771461873694027e-05
219 1 2.5999693770491805 16.733892459016396 1.96229203537011e-05
220 1 5.178035409836066 16.751564590163937 9.598774691502542e-05
221 1 7.822998032786886 16.59175803278689 9.518184469583499e-05
222 1 10.585909508196721 16.54389180327869 2.126918420997014e-05
223 1 13.07732655737705 16.57085442622951 8.080746389835604e-05
224 1 15.643572459016394 16.547123278688527 7.846542957935886e-05
225 1 18.40123278688525 16.66976786885246 1.0000998260301498e-05
226 1 21.08613442622951 16.729499672131148 7.815821868028786e-05
227 1 23.7430131147541 16.895920655737704 5.068294821002144e-05
228 1 26.425390163934427 17.103845901639346 4.3706316940172245e-05
229 1 29.052074754098363 16.849013770491805 6.663087798523715e-06
230 1 31.809432131147545 16.75646229508197 8.479479804936558e-05
231 1 34.27636065573771 17.214271475409838 5.861795498286926e-06
232 1 36.8062524590164 17.160093770491805 4.524931385303386e-05
233 1 39.68176065573771 17.047042622950823 5.824988395553314e-05
234 1 42.21730754098361 17.058655737704917 7.383026590176787e-05
235 1 44.89776590163935 17.019474098360657 8.896449729857618e-05
236 1 47.989580983606565 17.44865442622951 4.266374597649989e-05
237 1 50.88866885245902 17.068047213114756 3.269608640724212e-05
238 1 53.43093114754099 16.818920655737706 8.142588313492294e-05
239 1 55.99692459016394 17.17110098360656 6.062404393362727e-05
240 1 58.73913442622951 17.19765967213115 7.117144452241267e-05
241 1 61.473770491803286 16.834623606557376 6.13579445228985e-05
242 1 64.04228852459018 16.86613049180328 1.2755131675902953e-05
243 1 66.6400918032787 16.79832 7.991468222406151e-05
244 1 69.08288524590164 16.891376393442624 6.028227048068881e-05
245 1 71.7145180327869 17.026845901639348 9.654533605902533e-05
246 1 74.49308196721312 17.086577704918035 4.5315932622202605e-05
247 1 77.208531147541 16.69673049180328 5.7712103407914775e-06
248 1 79.74271475409836 16.907735737704918 9.108126096496806e-05
249 1 1.0130170491803279 18.850104918032788 9.879285480062392e-05
250 1 3.6854825573770498 19.175979016393445 2.4546849224797554e-06
251 1 6.721216393442624 18.99844983606558 5.013062467123525e-05
252 1 9.504425573770492 18.69211606557377 2.689612872352598e-05
253 1 11.37029967213115 20.253070163934428 3.159274336621193e-05
254 1 14.630605901639345 19.034248524590165 5.904127768117497e-05
255 1 17.254361967213118 18.833493114754102 4.2976565149338924e-05
256 1 19.819749508196722 18.984817049180332 2.2107002702329017e-06
257 1 22.424520655737705 19.10216 5.7420907172939794e-06
258 1 25.114622950819676 19.25656393442623 7.766794601315587e-05
259 1 27.82870885245902 19.285344262295084 2.9229995695940927e-05
260 1 30.339211803278694 18.99133049180328 8.503608046107447e-05
261 1 32.939034754098365 19.42864 6.018042415282598e-05
262 1 35.77500786885246 19.566381639344264 8.248756435800265e-06
263 1 38.544483278688524 19.190116721311476 3.9171161723978964e-05
264 1 41.24690557377049 19.442373770491805 6.46356110410683e-06
265 1 44.2536924590164 19.1123593442623 3.867495660574254e-05
266 1 45.56991278688525 18.371291147540987 3.929726326151497e-05
267 1 48.790683934426234 18.75346360655738 6.252801463572481e-05
268 1 52.24033442622951 19.301249180327872 7.414539403449343e-05
269 1 54.64475409836066 19.32467737704918 1.1276887540769676e-05
270 1 56.72703606557378 18.546750163934426 7.00286516203016e-05
271 1 60.48918032786886 19.13800918032787 9.832180077611467e-05
272 1 62.604281967213126 20.495683278688528 5.684444508071767e-05
273 1 65.2540918032787 19.256311475409838 2.1166702002065717e-06
274 1 67.90996065573772 19.289686557377053 6.573786593688638e-05
275 1 70.5168524590164 19.241315409836066 7.752277900276104e-05
276 1 72.50976393442623 18.36765573770492 8.740911129504908e-05
277 1 76.20525901639344 19.025059016393442 9.84908263386625e-05
278 1 78.3865049180328 20.39086229508197 3.440680047705227e-05
279 1 80.9928918032787 19.186733770491802 1.87092143272976e-05
280 1 0.08260105573770492 21.182624262295082 1.3614908313855235e-05
281 1 2.485191409836066 22.357921967213116 9.334835794649089e-05
282 1 4.413544065573771 20.550517377049182 6.720233287809974e-05
283 1 8.080506229508197 20.973840655737707 4.3538819682348074e-06
284 1 10.615093770491804 21.573632786885245 2.2180503558417455e-05
285 1 12.685863606557378 21.008932459016396 5.320965664185482e-05
286 1 16.225641967213114 21.24089180327869 5.831094094606582e-05
287 1 18.645360655737708 21.282295081967213 9.131636583664062e-05
288 1 21.20171016393443 21.3806531147541 3.257488408132924e-05
289 1 23.729733770491805 21.435537704918033 7.870919899710388e-05
290 1 26.485576393442624 21.514557377049183 3.248416825641872e-05
291 1 29.906900983606562 21.347732459016395 8.864193979148826e-06
292 1 31.42917836065574 21.468963278688527 8.295227035024018e-05
293 1 33.43804524590164 20.901031475409837 2.9516777880697742e-05
294 1 37.18110360655738 21.50728655737705 5.5153181576024506e-05
295 1 39.79662950819672 21.571360655737706 1.0194295816177957e-05
296 1 42.30975803278689 21.946514754098363 2.8351360057392884e-05
297 1 44.97734098360657 21.814074754098364 9.502400201275618e-05
298 1 47.75050229508197 21.543893114754102 1.4967351751632097e-05
299 1 50.50947540983607 21.415139016393447 1.5820640909856434e-05
300 1 53.353678688524596 21.78211344262295 1.0563681688791206e-05
301 1 56.15698360655738 21.485120655737706 3.749764943399426e-05
302 1 59.04814426229509 21.48002098360656 9.180634935375165e-05
303 1 61.8504393442623 21.854619672131147 4.007258532118121e-05
304 1 64.26344262295083 21.88385442622951 4.279810120605615e-05
305 1 66.89911475409836 21.555607213114754 6.58628694482705e-05
306 1 69.60093114754099 21.550204590163936 9.389589602407608e-05
307 1 72.29870819672132 21.316932459016396 5.198801131237712e-05
308 1 74.99194098360657 21.40332393442623 1.6851102641898265e-05
309 1 77.65134426229508 21.737882622950824 7.983712725739177e-05
310 1 80.22794098360657 21.77413573770492 5.212554884894542e-05
311 1 1.929009049180328 23.78275016393443 6.716104607856519e-05
312 1 4.413685442622952 23.54513573770492 1.3195192197286255e-05
313 1 6.798418360655738 23.18517967213115 4.704062678398149e-05
314 1 9.266306229508197 24.51452786885246 6.702775146899836e-05
315 1 12.12904 23.84505704918033 6.596147610555652e-05
316 1 14.794300327868854 23.456017704918036 5.020633652745522e-05
317 1 17.520403278688526 23.744325901639346 5.684285115161632e-05
318 1 19.999954754098365 23.702367213114755 8.37181295310288e-05
319 1 22.47677967213115 23.810268196721314 1.926651948457965e-05
320 1 24.862416393442626 23.646674754098363 8.418975745924029e-06
321 1 27.358731147540986 23.904081967213116 2.41462621052172e-05
322 1 29.89003672131148 24.089891803278693 1.1330451398993157e-05
323 1 33.03289901639345 23.84500655737705 7.085184905437735e-05
324 1 35.63060131147541 23.66636655737705 1.834484585239098e-05
325 1 38.22926295081968 23.820518032786886 9.850715692897963e-05
326 1 40.79677114754099 24.125539016393446 5.108276493010533e-06
327 1 43.61466819672132 24.150885901639345 8.909047653781434e-05
328 1 46.39706950819672 23.996179016393445 4.9757010436649197e-05
329 1 49.56674295081968 23.71554557377049 5.790999119460381e-05
330 1 52.064622950819675 24.739569836065577 9.479626954483356e-05
331 1 54.87903606557377 23.868737704918036 9.118722646764072e-05
332 1 57.48340327868853 23.629507540983607 8.841361988702059e-05
333 1 60.29781639344263 23.900194098360657 9.628837347004754e-05
334 1 63.22987540983607 24.37017180327869 2.4617481788542863e-05
335 1 65.79384918032788 23.998198688524592 9.898020630788637e-05
336 1 68.47900327868852 23.802391475409838 6.250097843966588e-05
337 1 71.1055868852459 23.711152786885247 8.659783838889718e-05
338 1 73.70440000000002 23.68727016393443 8.642639008332034e-05
339 1 76.3764262295082 23.911706229508198 1.2351004633525532e-05
340 1 78.92777704918034 24.109179672131148 2.444926633085215e-05
341 1 81.81136393442624 23.778710819672135 7.988580949191932e-05
342 1 0.5780150163934427 25.946222950819674 2.5958475504351566e-05
343 1 3.2051489836065574 26.091740327868852 9.102785645352871e-05
344 1 5.794742295081967 25.88679409836066 3.7883253131884234e-06
345 1 8.48277442622951 25.82468918032787 7.437097760232047e-05
346 1 11.074417704918034 26.116077377049184 7.131949118925913e-05
347 1 13.545335081967213 25.947333770491806 8.769661488312233e-05
348 1 16.188480000000002 25.843876065573774 7.23657463712275e-05
349 1 19.505185573770493 26.014033442622953 5.842775508254248e-05
350 1 21.03917704918033 26.174294426229512 6.25397142205743e-05
351 1 24.274691803278692 26.110472786885246 3.887997494434359e-05
352 1 25.80176590163935 26.113603278688526 8.510046489088127e-05
353 1 28.521052459016396 26.32763803278689 1.3806802599925495e-05
354 1 30.84700786885246 25.292303606557383 5.051216347873603e-05
355 1 34.59617573770492 26.094769836065574 9.823861433081425e-05
356 1 37.03104196721312 26.061596721311478 4.5669304669534074e-05
357 1 39.346798032786886 27.379180327868855 8.769656364407793e-05
358 1 42.14712393442624 26.271794098360658 7.520737434265278e-05
359 1 44.9765331147541 26.25609114754099 6.863000635345594e-05
360 1 47.30476065573771 25.26725967213115 4.7028873448943656e-05
361 1 51.228478688524596 26.030039344262295 3.3338813640005703e-05
362 1 53.80810491803279 26.281841967213115 3.278944657491804e-05
363 1 56.44680655737705 26.128043934426234 7.423947041215639e-06
364 1 58.96079344262296 25.879674754098364 3.656097725645702e-05
365 1 61.04105573770492 25.2754393442623 5.213572999067982e-05
366 1 64.59264918032788 26.519759344262297 7.127498455355078e-05
367 1 67.1753049180328 26.14117180327869 2.050821900037956e-05
368 1 69.83470819672132 26.089114754098365 2.314339832112744e-06
369 1 72.27952131147542 26.071695081967217 7.098704910772696e-05
370 1 74.88338360655739 26.109917377049182 2.581527365230416e-05
371 1 77.83664918032788 26.446243278688527 4.0722660709514126e-05
372 1 80.54553442622951 25.96944918032787 3.799312204132217e-05
373 1 1.5666647213114755 28.332869508196723 4.5524166133061206e-05
374 1 4.309071475409836 28.362508196721315 2.3407418407818803e-05
375 1 7.749027540983607 28.039057704918037 9.77518402054149e-05
376 1 9.276556065573772 28.199268196721317 8.377048835222494e-05
377 1 12.018260983606558 28.43587278688525 6.975417356814858e-05
378 1 15.237769836065574 28.1535731147541 5.1879467094573295e-05
379 1 16.741264262295083 28.35432852459017 6.985468158819452e-05
380 1 18.993249180327872 28.870708196721317 6.191019797386813e-05
381 1 21.678554754098364 28.85359147540984 4.282324166255541e-05
382 1 24.491705573770496 28.75412262295082 3.079460322667963e-05
383 1 27.294909508196724 28.412899016393446 2.691379261823702e-05
384 1 30.16981180327869 28.11696655737705 8.526015257275876e-05
385 1 33.01871081967214 28.172002622950824 1.215558478649722e-05
386 1 35.82575213114754 28.59098360655738 9.83313802903063e-05
387 1 38.675105573770495 28.766745573770496 3.1115657120836196e-05
388 1 41.42463672131148 28.53084786885246 3.8876219891708844e-05
389 1 44.00688852459017 29.391127213114757 8.014661648924494e-05
390 1 46.73874754098361 28.148574426229512 1.8160752267558202e-06
391 1 49.512868196721314 27.98457704918033 8.676405895198533e-05
392 1 52.21205901639345 28.476215737704923 4.806711216550305e-05
393 1 54.991127868852466 28.522213770491806 3.085982442332062e-05
394 1 58.753777049180336 28.102879344262295 8.511701920518098e-05
395 1 60.31649836065574 28.17326491803279 7.674615630520948e-05
396 1 62.977416393442624 28.7110531147541 6.074371131617531e-05
397 1 66.66483278688526 28.496917377049183 6.928479833522166e-05
398 1 68.19624918032787 28.354883934426233 9.001819838218933e-05
399 1 70.88948196721311 28.54745967213115 2.7132473603435604e-05
400 1 74.1936655737705 28.286265573770496 5.442860016988827e-05
401 1 75.52412459016394 27.505359344262295 4.6216446543175184e-05
402 1 80.06687213114756 28.210073442622956 8.394450933580492e-05
403 1 81.60434754098361 28.14791803278689 9.909472022032249e-05
404 1 82.55864262295083 30.5415324590164 6.53849034208997e-05
405 1 2.6059173114754097 30.577735081967216 7.392499598551194e-05
406 1 5.2380701639344265 30.864074098360657 9.789942886446676e-05
407 1 7.715349508196722 30.77424918032787 4.313672653386988e-05
408 1 10.393030819672132 30.51790229508197 6.746963659224115e-06
409 1 13.059351475409837 31.03382754098361 4.90406376332809e-05
410 1 15.34738754098361 30.920473442622953 9.339217600509444e-05
411 1 17.59689836065574 32.31611737704919 7.383069070159825e-05
412 1 20.22343147540984 31.18368721311476 9.671947614271206e-05
413 1 22.965893770491807 30.949405245901644 8.453766580005224e-05
414 1 27.048761967213117 30.41272786885246 2.2618576578359173e-05
415 1 28.599314754098362 30.328659016393445 9.786468397298925e-05
416 1 31.165257704918034 30.257920000000002 6.223035366283438e-05
417 1 33.958161311475415 30.575412459016395 3.223490148386164e-05
418 1 37.40831672131148 30.911384918032788 9.41510985408063e-05
419 1 40.320633442622956 30.849280000000004 9.295777790357887e-05
420 1 43.199777049180334 30.70724655737705 4.3100604896941554e-05
421 1 45.731840000000005 30.675588196721314 7.02058652781687e-05
422 1 48.29404655737706 30.339666229508197 9.263811570620458e-05
423 1 50.791219672131156 30.498412459016397 6.648068988198925e-05
424 1 53.34812459016394 30.694371147540984 7.259399714661432e-05
425 1 55.973698360655746 30.851956065573773 2.9572925547304987e-05
426 1 58.51949508196722 30.691038688524593 2.8570479506242122e-05
427 1 61.29351475409837 30.83362754098361 1.718855141083926e-05
428 1 64.17407213114754 31.25624393442623 9.418850363032818e-05
429 1 66.75723278688525 30.95450491803279 8.859440701757006e-05
430 1 69.43178360655739 30.724565245901644 3.536077135648213e-05
431 1 71.65897704918034 32.23836 6.96187712254625e-05
432 1 74.27192786885247 31.040542950819674 8.566478125056508e-05
433 1 77.09340983606559 30.734865573770495 5.686512616836435e-05
434 1 79.74624918032788 30.79742491803279 5.007339378145684e-05
435 1 1.1479967868852459 32.811240000000005 8.813215386909904e-05
436 1 3.8501767213114757 33.021235409836066 5.3360554470864687e-05
437 1 6.461133114754099 33.24688327868853 3.2379576330002646e-05
438 1 9.860998688524592 32.74656 5.772861368174718e-05
439 1 11.382468196721312 32.954485245901644 4.405000516597722e-05
440 1 14.023340983606557 33.535443934426226 3.880349971919477e-05
441 1 16.860222950819676 33.68010295081967 5.852851737989038e-05
442 1 19.451209836065576 33.80759475409836 9.433075182178514e-05
443 1 22.537773770491803 32.971702950819676 9.675898697654201e-05
444 1 23.84313836065574 32.189080000000004 6.6077619089677e-05
445 1 27.426188196721316 33.26834229508197 2.8299399731846854e-05
446 1 30.239389508196723 32.69919868852459 9.479834349847155e-05
447 1 32.60260786885246 33.60759672131148 2.3395756198088714e-05
448 1 34.81637049180328 31.864114754098363 3.678162451759466e-05
449 1 39.15639344262296 32.91535409836066 9.09869152802781e-05
450 1 41.858209836065576 32.89217836065574 5.734095319721584e-05
451 1 44.41087344262295 33.07743278688525 7.713742820856789e-05
452 1 47.0557855737705 32.861782295081966 2.4018340012829177e-05
453 1 49.57588196721312 32.86733639344262 6.525053949662373e-05
454 1 52.01059672131148 32.99588852459017 3.546428680232927e-05
455 1 54.60739016393443 33.07909901639345 2.610613598108588e-05
456 1 57.36373770491804 33.12191606557378 2.7183480404638362e-05
457 1 59.90095081967214 32.95488918032787 4.181613187809583e-05
458 1 61.886288524590164 32.296728524590165 4.331156055668906e-06
459 1 65.55350819672132 33.41456655737706 7.138532464141071e-05
460 1 68.26037377049181 33.19144327868853 4.260259444323523e-05
461 1 70.98339672131148 33.62173442622951 8.821333125901978e-05
462 1 73.49990819672132 33.647788196721315 6.178270817316736e-05