# input file

2232 atoms
1 atom types

0.0 82.68810555352132 xlo xhi
0.0 83.16 ylo yhi
-10.0 10.0 zlo zhi
0.0 0.0 0.0 xy xz yz

Masses

1 12.0100 #C

Atoms

1 1 1.7151308196721313 0.6719348196721312 9.26309561698695e-05
2 1 4.265148655737705 0.6132784918032788 9.668349527252918e-06
3 1 6.861028196721312 1.149950819672131 1.4832345263637238e-05
4 1 10.028530491803279 1.287434950819672 2.664269876815084e-06
5 1 12.84708393442623 0.9816464918032788 9.981063567730597e-05
6 1 15.424892459016394 0.5550614426229509 2.8120883043821877e-05
7 1 17.98891672131148 0.48332470819672135 3.9066608343193815e-05
8 1 20.615348852459018 0.7662636065573771 3.317910723160456e-07
9 1 24.579056393442624 0.8135845245901641 5.833775126706809e-05
10 1 26.11410819672131 1.0412167213114756 8.801839103022915e-05
11 1 28.696511475409842 1.2629565245901642 7.996573498317762e-05
12 1 31.21903147540984 0.9719571147540984 6.767613907535538e-05
13 1 33.5821993442623 1.90490931147541 2.111321496719909e-06
14 1 36.190000000000005 0.5443723278688526 9.087891350071368e-05
15 1 39.012794754098366 0.45805305573770494 6.907060315794381e-05
16 1 41.57934360655738 0.6906521311475411 6.465962554738336e-05
17 1 44.13751081967214 0.6125160655737706 5.097012420919367e-05
18 1 46.742180983606566 0.9381730491803281 2.1575350994073672e-05
19 1 49.49706426229508 1.0196718688524593 4.000718100720208e-05
20 1 52.21862295081968 0.5976462295081968 1.5770153634442987e-05
21 1 54.95729836065574 0.3572779803278689 6.474722336261299e-05
22 1 57.673757377049185 0.24406525901639345 6.209452602714925e-05
23 1 60.37860327868853 0.7856726557377051 4.281427232042332e-05
24 1 62.9708524590164 1.2409875409836069 5.28108621642738e-05
25 1 66.27099672131149 1.243476786885246 2.671143794546882e-06
26 1 68.88697704918033 1.0740666885245902 9.934450044270492e-05
27 1 71.48579016393444 0.8418548852459018 5.492612865758249e-05
28 1 74.84904918032788 0.4281331278688525 1.0825829009719102e-05
29 1 76.39258360655738 0.534455737704918 2.292099634914845e-05
30 1 79.16357377049181 0.6599733114754099 7.374033763003237e-05
31 1 81.85983606557377 0.5298205901639345 8.587432578679157e-05
32 1 0.2960844393442623 2.9422381639344266 7.451234829184436e-05
33 1 2.8661268196721315 2.986696196721312 1.2214528436981465e-05
34 1 5.3669252459016406 3.1493656393442624 7.2085978287510515e-06
35 1 7.581142295081968 2.5217121311475412 8.974836301866661e-05
36 1 11.399736393442625 3.2529697704918035 6.444662329899872e-05
37 1 15.075943606557379 2.890100327868853 1.5183621966890937e-05
38 1 16.618720655737707 2.8855712131147544 6.977051843047832e-06
39 1 19.122053770491807 2.898789967213115 8.541249840206903e-05
40 1 21.77413573770492 3.112572262295082 8.939501865536293e-06
41 1 24.315590163934427 4.372782032786886 3.8285090219956374e-05
42 1 27.355348196721312 3.5974147540983608 4.562732464011254e-05
43 1 30.145121311475414 3.5118311475409842 6.55494230361791e-05
44 1 33.00563344262296 3.330515081967213 8.738913205801738e-05
45 1 35.399146885245905 3.101777114754099 8.314826304687417e-05
46 1 37.979328524590166 2.5748345573770495 6.831498434545565e-05
47 1 40.61868655737705 2.9126095737704922 3.400605904988412e-05
48 1 43.03123540983607 3.0416817704918038 1.4779610551332335e-05
49 1 45.4709993442623 4.253217442622951 7.607201982880388e-05
50 1 48.278343606557385 3.290803278688525 9.167016730992418e-05
51 1 52.014131147540986 2.6905819672131153 9.043366780217764e-05
52 1 53.582911475409844 2.6752274098360656 1.1439951511856828e-05
53 1 56.35844590163935 2.5357841967213117 3.332705639408838e-05
54 1 58.56392786885246 3.864051868852459 4.8928321432156557e-05
55 1 61.47881967213116 3.3186242622950823 9.874526498405768e-06
56 1 63.767613114754106 2.5786618360655744 5.708571120149875e-06
57 1 67.52622295081967 3.451028918032787 5.7705114379376654e-05
58 1 70.2396524590164 3.309126754098361 8.262673830478187e-05
59 1 72.76424262295082 3.2048914754098363 1.6427630065587073e-05
60 1 75.27015081967214 3.082191344262295 1.3961337910684713e-05
61 1 77.89572459016394 2.81159062295082 3.570095354476134e-05
62 1 80.48191475409836 2.8902164590163935 2.1126630710134897e-05
63 1 1.189814098360656 5.24791606557377 5.121595106484903e-05
64 1 3.736777180327869 5.423021639344262 8.875844523201946e-05
65 1 6.510716065573772 5.362481967213115 7.50051417042232e-05
66 1 9.57652786885246 5.322139016393443 8.061786577129227e-06
67 1 12.322928524590164 5.4052990163934425 8.864389111837524e-06
68 1 14.852365901639347 5.638520655737705 6.186290599472466e-06
69 1 18.681664262295083 5.120070819672131 9.599089187418205e-05
70 1 20.238427540983608 5.251753442622951 1.592815713706688e-05
71 1 23.15705573770492 5.433877377049181 9.338971417855246e-06
72 1 25.721736393442626 5.743644590163935 5.535131359906961e-05
73 1 29.448536393442627 5.73652524590164 7.245114863639956e-05
74 1 31.932581639344264 5.503051147540984 4.9724497551292125e-05
75 1 34.74502557377049 5.620040655737705 9.122354298150281e-05
76 1 37.27623016393443 5.022354032786886 4.700178051079799e-05
77 1 39.789308196721315 6.095370491803279 9.880446761151992e-05
78 1 42.15187016393443 6.7471691803278695 4.404126268749409e-05
79 1 44.87055081967214 5.6871442622950825 2.299504223372806e-06
80 1 47.32536131147542 5.724255737704919 2.90059478034418e-05
81 1 49.62177901639345 5.606357377049181 4.915455598261482e-05
82 1 52.19943606557378 5.164352131147541 2.2780342920409393e-05
83 1 55.02293770491804 4.904597049180328 7.068829236619711e-05
84 1 57.76413770491804 5.184649836065574 8.808390945136814e-05
85 1 60.2412655737705 5.51360393442623 3.382068861014296e-05
86 1 62.92389508196722 5.464626885245902 1.6807337140128943e-06
87 1 65.98824262295082 5.416912131147542 3.772856718907465e-05
88 1 68.79407213114754 5.606054426229509 6.946832650231419e-05
89 1 72.34263606557379 5.421355409836066 2.7248918312617867e-05
90 1 73.87304262295082 5.509463606557378 2.5374463935365722e-05
91 1 77.40746885245902 5.0988137704918035 8.591438275676039e-05
92 1 78.95201311475411 5.2002518032786895 6.274292042637527e-05
93 1 82.34657704918034 5.192627540983607 3.776507064271403e-05
94 1 82.34556721311476 7.84132655737705 4.442047372907842e-05
95 1 2.313736393442623 7.721105573770493 5.2184892743483014e-05
96 1 4.989786819672132 7.56336918032787 9.481555790719216e-05
97 1 7.292228196721312 6.690820327868853 6.632019537582637e-05
98 1 10.957832131147542 7.520148196721313 5.8306796503919346e-05
99 1 13.183106885245904 8.858685901639344 3.768425488381301e-05
100 1 15.95293573770492 7.937664918032788 4.003294171702237e-05
101 1 18.6017862295082 7.616587540983607 6.158344996132137e-05
102 1 21.377421639344263 7.459204590163935 5.527836166916412e-06
103 1 24.002692459016394 7.882931803278689 2.8689515117931298e-05
104 1 26.658460327868855 8.098228852459016 9.132490070567206e-05
105 1 28.449404590163937 6.892737049180329 7.504860238494293e-05
106 1 33.00775409836066 7.6709167213114755 3.53281365853596e-05
107 1 37.16757180327869 7.339488524590164 9.270499498033671e-05
108 1 38.77841180327869 7.296368524590164 8.27060780510768e-05
109 1 41.36636918032787 8.09504786885246 3.7996844182286e-05
110 1 44.58799868852459 8.002395409836067 8.026843345518941e-05
111 1 46.12047540983607 8.140339016393444 4.831581612105074e-06
112 1 48.524996065573774 8.222236721311477 3.5011010078917675e-05
113 1 51.1320393442623 7.67384524590164 8.751367338427419e-05
114 1 53.791442622950825 7.2168439344262305 5.895416944522447e-08
115 1 56.383691803278694 7.311718032786886 4.643719132373918e-05
116 1 58.984019672131154 7.747058360655738 3.3565218492319704e-05
117 1 61.57172459016394 7.744483278688525 9.559686094235683e-05
118 1 63.61815737704919 6.859816393442624 2.2573321568505946e-05
119 1 67.24498360655738 7.640419672131148 9.415815907009561e-05
120 1 69.71302295081969 8.097420983606558 8.30335890687275e-05
121 1 72.06745573770492 8.07848655737705 1.2362511850393943e-05
122 1 74.70868196721311 7.963011803278689 6.950151151152373e-06
123 1 77.2580131147541 7.795278032786887 8.833659610750277e-05
124 1 79.89721967213116 7.861119344262296 8.386628242428219e-05
125 1 1.237200655737705 10.109822295081969 1.286232768455129e-05
126 1 3.8235776393442626 9.923507540983607 1.8637080833439868e-05
127 1 6.562773114754099 9.523561967213116 5.706048024822774e-07
128 1 9.160929836065575 9.590665573770492 2.3610805242135903e-05
129 1 12.023815081967214 9.856302950819673 4.3469050894416855e-05
130 1 14.966830819672133 10.356979672131148 1.1023990128077278e-05
131 1 17.691620983606562 10.008081311475411 8.221610417440748e-05
132 1 20.197074754098363 9.759257704918033 5.471631135702842e-05
133 1 22.745093114754102 9.951833442622952 2.2007874632461645e-05
134 1 25.515729836065574 10.214289836065575 3.100169041631828e-05
135 1 28.339786885245903 9.902300983606558 2.1147909839142543e-05
136 1 31.058366557377052 9.452671475409836 3.128510414911756e-06
137 1 33.7364518032787 9.817878688524592 5.830196474642526e-05
138 1 36.30597967213115 9.775263606557377 3.898627803236531e-05
139 1 39.14543672131148 9.850142950819674 4.3245849588242534e-05
140 1 42.15893901639345 10.67497704918033 2.0356557062515558e-05
141 1 44.849293770491805 10.710220327868853 7.271014905408961e-05
142 1 47.33136983606558 10.742888524590164 7.293657509025575e-06
143 1 50.83363278688525 9.96920262295082 7.44286900328836e-05
144 1 52.34434754098361 9.668372459016394 3.766782931259578e-05
145 1 55.013344262295085 9.636764590163935 5.622207306474515e-05
146 1 57.71768524590165 9.848678688524592 9.189515944804285e-05
147 1 60.4492918032787 10.100178360655738 6.35854241819191e-05
148 1 63.0900131147541 9.868269508196722 4.3348170121470966e-05
149 1 65.70144918032787 9.647872786885248 2.937093788429668e-05
150 1 68.32702295081968 10.236102295081968 5.09548938162211e-05
151 1 70.87584918032788 10.570862950819674 4.77048648101842e-05
152 1 73.38428196721313 10.310628196721312 4.836430164850331e-05
153 1 76.12346229508198 10.226003934426231 8.814277760015649e-05
154 1 78.81669508196723 10.125323278688526 4.967071745289269e-05
155 1 81.40389508196722 10.284372459016396 7.986502620048385e-05
156 1 0.13557352131147543 12.628706885245903 3.1517026611505395e-05
157 1 2.7897125245901644 12.39169836065574 1.7764810957312138e-05
158 1 5.5831816393442635 11.89152655737705 9.931273048566083e-05
159 1 7.891565901639345 13.184116721311476 4.824094532832957e-06
160 1 11.104813770491806 11.702990163934428 3.573765909089729e-05
161 1 12.559482622950823 11.27401180327869 5.192463157505656e-07
162 1 16.371209836065574 12.336106885245902 5.738160633285254e-05
163 1 19.030007213114757 12.280414426229509 4.969044625140239e-05
164 1 21.417411147540985 12.240071475409838 1.643827572370935e-05
165 1 24.19032 12.249260983606558 7.222311645716108e-05
166 1 26.933388196721314 12.180440655737707 6.242837978596161e-05
167 1 29.56653573770492 11.917479344262295 1.0926560772276884e-05
168 1 32.17236721311476 11.907683934426231 5.099786568989511e-05
169 1 34.8786268852459 12.13828 1.3470556290486802e-05
170 1 37.452648524590174 11.914550819672133 9.225336564241779e-05
171 1 39.66737049180328 11.29784393442623 9.015431985871612e-05
172 1 43.230072131147544 12.879550163934427 2.7897601397364637e-06
173 1 45.93057573770492 13.26561049180328 2.940345945660018e-05
174 1 48.69535540983607 13.165838688524591 5.0481596828895096e-05
175 1 51.17344262295082 12.469253770491804 7.601221119282212e-05
176 1 53.67632131147542 11.956105573770493 3.580858977641601e-05
177 1 56.30340983606558 12.006799344262296 3.427310357749491e-05
178 1 59.01330491803279 12.231992786885247 9.248802521218604e-05
179 1 61.75400000000001 12.365594098360658 9.809315041469224e-05
180 1 65.2076393442623 11.945906229508196 9.795065443972779e-05
181 1 66.73956065573772 12.180036721311478 4.98626542657193e-05
182 1 69.44440655737705 12.754280000000001 6.996174199052037e-05
183 1 72.16288524590163 12.836379672131148 9.82248616618187e-05
184 1 74.78492459016394 12.457943606557379 9.949815824677678e-05
185 1 77.53420327868852 12.418711475409838 1.5460917938794862e-05
186 1 80.21834754098361 12.560038032786887 7.075648878444113e-05
187 1 1.527498229508197 14.88104524590164 7.68195931678934e-05
188 1 4.364400393442623 14.327604590163936 6.001551549708781e-05
189 1 7.240120655737706 14.584304918032787 7.609974676341305e-05
190 1 9.65272 15.076044590163935 9.79922821520601e-05
191 1 12.00356786885246 14.272669508196723 3.597657144634071e-05
192 1 14.764712131147544 14.334168524590165 7.616523172813663e-05
193 1 17.458904262295082 14.550121967213116 1.6563203586481136e-05
194 1 20.086194754098365 14.767135737704919 5.852801127635721e-05
195 1 22.8220931147541 14.412733770491805 7.138506534890537e-05
196 1 25.553245245901643 14.437727213114757 7.829363181921652e-05
197 1 28.10252590163935 14.369613770491805 2.8609432973518468e-05
198 1 30.716991475409838 14.258733770491805 4.7403597839721325e-05
199 1 33.43526819672132 14.263379016393444 8.054262241860455e-05
200 1 36.25407409836066 14.37905573770492 7.164744071018481e-06
201 1 38.93680459016394 14.108924590163937 2.2322338139428656e-05
202 1 41.513754754098365 14.683319344262296 7.559974196719927e-05
203 1 43.93569508196722 15.162385573770493 6.897843979205479e-05
204 1 46.31936262295083 14.80020786885246 8.372348086203144e-05
205 1 49.9199331147541 15.080538360655739 9.733299005918569e-05
206 1 53.1032393442623 14.505234754098362 1.8219018258596508e-05
207 1 54.62758688524591 14.26085442622951 1.5220539048190042e-05
208 1 57.254675409836075 14.339217704918035 4.162298798278654e-05
209 1 60.04081311475411 14.542245245901642 3.174382475518225e-05
210 1 62.93045901639345 14.903009180327869 6.667256314368297e-05
211 1 65.45050491803279 14.522149508196723 5.7334508003262344e-05
212 1 68.13717377049181 14.708514754098363 2.742646779580631e-05
213 1 70.86625573770493 15.071247868852462 6.805702582471617e-05
214 1 74.36432786885247 14.728156065573772 9.161157291767966e-05
215 1 75.89069508196722 14.593393442622952 8.076990680793182e-05
216 1 78.59099672131148 14.728408524590165 5.240113562058458e-05
217 1 81.31401967213117 14.976878688524591 3.108078122682001e-06
218 1 82.24862295081968 17.079104918032787 7.505557656477043e-05
219 1 4.043696655737706 16.450179016393445 3.219137383068973e-05
220 1 5.596713442622952 16.531470819672133 8.059713443638585e-05
221 1 8.355333114754098 17.260219016393442 9.297902133655324e-05
222 1 12.137926557377051 16.64093704918033 3.1887023613977074e-05
223 1 13.659396065573773 16.496934426229508 8.191595846602014e-05
224 1 16.1446531147541 16.68415803278689 7.635155705174123e-05
225 1 18.343268196721315 18.04147868852459 9.360532566105361e-05
226 1 22.38932786885246 16.557676065573773 5.095413356450681e-05
227 1 23.936800655737706 16.62437573770492 8.743856253497753e-05
228 1 26.599788852459017 16.795845901639346 2.7252826321792667e-05
229 1 29.236117377049183 16.64871278688525 8.236750550789016e-05
230 1 31.94545704918033 16.503346885245904 8.905157821192337e-05
231 1 34.541493114754104 16.44230229508197 3.161814324954255e-05
232 1 38.40371213114754 16.33217967213115 1.5295276731992758e-05
233 1 39.90574229508197 16.672342950819672 2.511024378114545e-05
234 1 42.47001901639345 17.341157377049182 8.622277271320674e-05
235 1 45.069286557377055 17.426135081967214 5.630185212024297e-07
236 1 47.66759475409837 17.418712786885248 4.269023317275861e-05
237 1 50.86998688524591 17.83057442622951 3.222276394700721e-05
238 1 53.4304262295082 18.419914754098365 6.221996927750545e-05
239 1 55.87271475409836 16.648460327868854 1.9562971135158414e-05
240 1 58.58513442622951 16.590344262295083 8.701673622872132e-05
241 1 60.74466885245902 15.912289836065575 4.2039720262326644e-05
242 1 64.39118688524592 17.04264983606558 8.05396814503444e-05
243 1 66.83095081967214 16.90687737704918 6.953886740560807e-05
244 1 69.43380327868853 17.138887213114756 5.732718428560132e-05
245 1 71.93163278688525 17.527320655737707 2.514998482013311e-05
246 1 74.52741639344264 17.34898360655738 9.207656829798314e-05
247 1 77.28073442622951 16.913643278688525 9.110106055215172e-05
248 1 79.47864262295083 18.177655081967213 5.622050313863868e-05
249 1 0.4405914754098361 18.33417967213115 3.5480870072463444e-05
250 1 3.797624852459017 19.316295737704923 1.741303811849142e-05
251 1 6.837700983606558 19.05106229508197 2.487471453368746e-05
252 1 10.396918688524591 19.410059016393443 7.515782095084842e-05
253 1 11.926365901639345 19.258785573770496 8.59603414600372e-05
254 1 14.693821639344264 19.091051803278692 8.625109768642023e-05
255 1 17.498186885245904 19.33815868852459 6.830348215872257e-05
256 1 19.94724131147541 19.466054426229512 1.6546939726383505e-05
257 1 22.30707672131148 18.961893770491805 4.6223818927421116e-05
258 1 25.02005180327869 19.042579672131147 2.2640580020320324e-05
259 1 28.087277377049183 19.06413967213115 8.568782659076271e-05
260 1 30.73501704918033 18.81460918032787 7.517327717975242e-06
261 1 33.28066229508197 18.815619016393445 5.257385843952434e-05
262 1 35.74683344262296 18.85116524590164 6.652589230754898e-05
263 1 38.2145193442623 20.04928524590164 6.299587048930269e-05
264 1 41.10699278688525 19.334523278688525 9.869146109254268e-05
265 1 43.92746491803279 19.747596721311478 8.08731113455994e-05
266 1 46.33854950819673 19.76097704918033 7.173720733374855e-05
267 1 48.53130754098361 18.727359344262297 2.9678359337907723e-05
268 1 52.788170491803285 19.823990819672133 6.284828826734381e-05
269 1 55.884327868852466 18.896961311475412 3.8262331984654455e-05
270 1 57.3995868852459 18.84354098360656 1.9293590659901706e-05
271 1 60.424550819672135 18.69736721311476 3.342407322853954e-05
272 1 63.113239344262304 19.154065573770495 4.85888362140847e-05
273 1 65.45504918032788 19.40788786885246 6.621783330308125e-05
274 1 68.01952786885246 19.351589508196724 6.509140891594924e-05
275 1 70.53906885245902 19.738811147540986 3.732623000807936e-05
276 1 73.27824918032788 19.77758885245902 9.595595821477434e-05
277 1 76.01137049180329 19.39602229508197 6.864488711539282e-05
278 1 78.74550163934427 19.53770229508197 1.7331246718005777e-05
279 1 81.20798688524592 19.529421639344267 6.810286788355547e-06
280 1 0.6233314098360657 21.224835409836068 1.6555680956967912e-06
281 1 2.1461238032786887 21.263966557377053 8.829660142210131e-05
282 1 4.388828327868852 20.722896393442625 2.336256246175953e-05
283 1 7.168119344262296 22.668244590163937 7.47280033184055e-05
284 1 9.998033442622953 22.001399344262296 8.229199173077936e-05
285 1 13.41496524590164 21.481182295081968 3.0822060234951125e-05
286 1 16.19817442622951 21.427913442622955 7.601065088906805e-05
287 1 19.57037049180328 21.543640655737708 9.294044188297879e-06
288 1 21.09567737704918 21.596000655737704 4.132208269399217e-05
289 1 23.582196721311476 21.238771147540987 8.709002179435607e-05
290 1 25.79045573770492 20.376118688524592 5.917294846233977e-05
291 1 29.580219016393446 21.20574950819672 3.100511379937909e-05
292 1 32.05855868852459 21.186613114754103 1.4296750755410815e-05
293 1 34.67711409836066 21.243769836065578 2.4123249867919316e-05
294 1 37.220083278688534 21.217362622950823 4.627597632685447e-05
295 1 39.586684590163934 21.582519344262295 4.2242037434489976e-05
296 1 42.75247016393443 21.64225114754099 6.155365485582824e-05
297 1 45.60490360655738 22.24497180327869 7.105794739666684e-05
298 1 48.18887213114754 21.609683934426233 9.122895762380733e-05
299 1 50.33840918032788 20.692045901639347 9.917408528942085e-05
300 1 53.87879344262296 22.187512131147543 5.922493155308531e-05
301 1 56.2756393442623 21.647249836065576 3.518472308346342e-05
302 1 58.22462295081968 20.13981704918033 9.836785367972752e-05
303 1 61.5384 22.38852 5.394796872472539e-05
304 1 64.3179737704918 21.82230491803279 8.966744219769176e-05
305 1 66.86074098360658 21.730056393442624 8.320302004792072e-05
306 1 69.10106229508197 23.106866885245903 2.2832803144840575e-05
307 1 71.90234754098361 22.013719344262295 6.937103048611492e-05
308 1 74.6551606557377 21.825031475409837 2.1649911089975473e-05
309 1 77.27518032786885 21.7440931147541 3.7245602187350626e-06
310 1 79.92499016393444 21.97090229508197 9.681478850361792e-05
311 1 0.8421022950819673 23.946848524590166 3.471497673038272e-05
312 1 3.547998426229509 23.537713442622955 9.509636878119395e-05
313 1 6.346163278688525 23.94442491803279 4.1260340820323916e-05
314 1 9.03404393442623 24.224856393442625 4.922785815314298e-05
315 1 11.127585573770492 23.042944262295084 3.07331860663065e-05
316 1 14.658931803278689 23.6259731147541 5.809621967704677e-05
317 1 17.157821639344263 24.0140531147541 8.911473165667989e-05
318 1 19.74219409836066 24.10226229508197 5.88987821402216e-05
319 1 22.490311475409836 23.81334819672131 6.459333229509852e-05
320 1 25.248123278688524 23.244810491803282 5.260362012041399e-05
321 1 28.094800655737707 23.238801967213117 4.3772332783683535e-06
322 1 30.89583344262295 23.624155409836067 5.731286896842991e-06
323 1 33.43244065573771 23.51549704918033 5.704239791844225e-05
324 1 35.992072131147545 23.620015081967214 3.498004434352144e-05
325 1 38.16256327868853 23.822588196721313 3.231311986968934e-05
326 1 40.26044721311476 22.932771147540983 9.881299204073353e-05
327 1 43.64476131147541 22.88142098360656 3.4755775761117184e-05
328 1 47.25871213114755 24.207638688524593 1.048912162038007e-06
329 1 49.92508327868853 23.663337049180328 5.216993569042283e-06
330 1 52.56853114754099 24.0225862295082 3.0346947306512663e-05
331 1 55.428891803278695 24.28322491803279 8.584244167552735e-05
332 1 57.990340983606565 23.11863147540984 4.6265649648838094e-05
333 1 60.739619672131155 23.703579016393444 5.649882081747201e-05
334 1 63.073855737704925 24.235207213114755 2.3933423705038238e-05
335 1 65.75194098360657 24.224906885245904 5.77306260459073e-05
336 1 68.42396721311475 24.50382360655738 2.893749287395501e-05
337 1 70.90210491803279 24.387389508196723 5.8534774093980734e-05
338 1 73.45699016393444 24.147452459016396 7.846035286187383e-05
339 1 75.94320655737707 24.142756721311475 2.912258158646669e-05
340 1 78.5056655737705 24.171335081967214 3.063164239231607e-05
341 1 81.07872786885247 24.33210098360656 8.30083395838156e-05
342 1 82.53642622950821 26.54338950819672 4.321713681624219e-05
343 1 2.336816196721312 25.993180327868853 4.301024733388369e-05
344 1 5.076546885245902 25.856650491803283 7.42625718257724e-05
345 1 7.874954098360657 26.27209704918033 6.508592450983368e-05
346 1 10.650993442622951 25.988181639344266 1.0286839083006838e-05
347 1 13.189468852459017 25.829990819672133 4.054769471252992e-05
348 1 15.6210531147541 26.16975016393443 4.4821978481940585e-06
349 1 18.215624918032788 26.368990819672135 2.9699020077485008e-05
350 1 21.464772459016398 26.183029508196725 7.048771598024134e-05
351 1 24.12003540983607 25.686341639344267 6.529214326519853e-05
352 1 26.7692393442623 25.372434098360657 2.3454378261653753e-05
353 1 29.552650491803284 25.581217704918036 1.830935560595899e-05
354 1 33.057690491803285 25.733147540983612 8.198920969469535e-05
355 1 34.59693311475411 25.91517049180328 2.2599770435191347e-05
356 1 37.28193573770492 26.299211147540987 4.262879123271877e-05
357 1 39.78148196721312 25.792677377049184 7.908520382463866e-05
358 1 42.54000065573771 25.509620327868856 5.395384227100631e-06
359 1 44.85525180327869 25.234894426229513 6.269380674031513e-05
360 1 48.507020983606566 26.175455737704922 1.2529792971269262e-05
361 1 51.2436262295082 26.197975081967215 5.2621888072910794e-06
362 1 54.1039868852459 26.290526557377053 6.505297562308441e-05
363 1 58.32156721311476 26.66941704918033 2.8964637819779317e-06
364 1 58.219068852459024 25.143100327868854 5.444484119886836e-05
365 1 61.29856393442624 26.401356065573776 3.977953749764642e-05
366 1 64.14327213114755 26.5166793442623 2.6130681154181313e-05
367 1 66.87235409836066 26.71258754098361 6.372447186068994e-05
368 1 70.42950163934427 26.689209836065576 2.2576743902686903e-05
369 1 71.96293770491803 26.582520655737707 8.119580748436935e-05
370 1 74.52893114754099 26.583076065573774 9.777088867131197e-05
371 1 77.22670819672132 26.53980459016394 3.4760449640784884e-05
372 1 79.90933770491804 26.59933442622951 1.4591060497289366e-05
373 1 1.3336349508196723 28.653139016393446 7.305151163738069e-05
374 1 3.882360196721312 28.1189862295082 9.967063524860108e-05
375 1 6.610790819672132 28.15468393442623 6.133474582360588e-06
376 1 9.419498360655739 28.293435409836068 6.403446416781576e-05
377 1 12.014019672131148 28.31575278688525 6.203774616935625e-05
378 1 14.573247213114756 28.437236065573774 1.0977318392038649e-05
379 1 17.058352786885248 28.559173770491803 5.14651995303137e-05
380 1 19.18532 27.53348327868853 3.311730434968981e-05
381 1 23.046680655737706 28.173416393442626 8.28435830912212e-06
382 1 25.680181639344266 27.80255409836066 2.50275198825907e-05
383 1 28.166196065573775 27.63118491803279 4.266807900983777e-05
384 1 30.34017114754099 29.150887213114757 7.399996475190004e-05
385 1 33.07132327868853 28.273693114754103 5.0046305167608375e-05
386 1 35.97692459016394 28.405628196721313 2.708651325274766e-05
387 1 39.81218098360656 28.014013770491808 3.861090910143223e-05
388 1 41.37328655737706 27.76276655737705 7.194604065462774e-05
389 1 43.588412459016396 29.204156065573773 5.777128914604968e-06
390 1 46.54925180327869 28.320297049180333 5.234238613393474e-05
391 1 49.360029508196725 28.381341639344267 4.8972510215976474e-05
392 1 53.26834754098361 28.281670819672133 6.264215877938152e-05
393 1 54.77502295081968 28.647786885245903 1.4869635068781552e-05
394 1 57.0148393442623 28.876666229508203 9.323801713084223e-05
395 1 59.830767213114754 28.538926557377053 4.796581276871356e-05
396 1 62.64316065573771 28.62865049180328 7.988642112679935e-05
397 1 65.15613770491804 28.87237442622951 8.878687455828624e-05
398 1 67.77211803278689 29.27666229508197 6.411846525317233e-05
399 1 70.33306229508197 29.296455081967213 3.160858212292518e-05
400 1 73.12172459016394 28.983052459016395 1.5634651179305626e-06
401 1 75.90988196721312 28.838393442622955 9.185683087355957e-05
402 1 78.72429508196721 28.843392131147542 5.7843101639417404e-05
403 1 81.41146885245902 28.896206557377052 8.393222385984129e-05
404 1 0.1995193704918033 31.133649836065576 6.456354883687396e-05
405 1 3.626472786885246 30.450748196721317 5.30044059542428e-05
406 1 5.151224262295083 30.326336393442627 1.810961756400694e-05
407 1 7.891868852459018 30.3427462295082 6.109921026991572e-05
408 1 10.679824262295082 30.670185573770492 8.026439148007358e-05
409 1 13.441776393442625 30.749508196721315 4.872215550660432e-05
410 1 16.205091803278687 30.887653770491806 9.40816960480343e-05
411 1 19.551183606557377 30.05287278688525 5.2427642048839467e-05
412 1 20.730419672131152 29.06111278688525 3.816268708301727e-05
413 1 24.30251278688525 30.238935081967217 8.829441775109318e-05
414 1 26.88143213114754 30.132245901639347 3.0964356658352364e-05
415 1 29.462876065573774 30.39712590163935 6.484986940673296e-05
416 1 32.046390163934426 30.721889180327874 5.020917600550442e-05
417 1 34.484790819672135 30.462815737704922 6.770929059858304e-05
418 1 37.034273442622954 30.681041311475415 1.768341384117437e-05
419 1 39.79582163934427 30.59525573770492 3.559316450876944e-05
420 1 42.71475278688525 30.54875278688525 1.4932595406983185e-05
421 1 45.26701245901639 30.697198688524594 4.294785940285856e-05
422 1 47.801801967213116 30.5822793442623 2.804998757159705e-05
423 1 50.15335672131148 30.674881311475414 6.58058506352288e-05
424 1 52.751311475409835 30.77379475409836 6.15769712377909e-05
425 1 56.00096393442624 31.39070360655738 1.875393344650125e-05
426 1 58.478091803278694 30.821358032786886 1.1260881240254384e-05
427 1 61.237468852459024 30.722798032786887 4.350037977401044e-05
428 1 63.64289836065575 31.184545573770496 9.884450327308098e-05
429 1 66.1432524590164 31.36611409836066 5.8398555015012965e-05
430 1 68.8576918032787 31.658764590163937 3.768921920376242e-05
431 1 72.02049836065575 31.352077377049184 6.17493751555237e-05
432 1 74.75866885245902 31.100375737704923 6.799012135180911e-05
433 1 77.51400655737706 30.981518032786887 2.5698509992301743e-05
434 1 80.17038032786886 31.161521311475415 8.530179338450737e-05
435 1 1.5380560655737705 33.44683081967213 6.962110404761649e-05
436 1 4.087038819672132 33.04259344262296 3.649260923393459e-05
437 1 6.833611147540984 32.51535803278689 6.684624367702865e-05
438 1 9.456357377049182 33.519438032786894 3.577137244516029e-05
439 1 12.294754098360658 32.93029967213115 8.055333406745367e-05
440 1 14.90725049180328 33.05041967213115 8.29975049627463e-05
441 1 17.565542950819673 33.184222950819674 9.335814014426614e-06
442 1 20.030300327868854 32.82371147540984 2.8767294277574586e-05
443 1 22.642544262295086 32.33782885245902 6.786884558147724e-05
444 1 25.376927868852462 32.508541639344266 4.558716508257698e-05
445 1 27.882785573770494 32.585541639344264 2.156353330895492e-05
446 1 30.414293114754102 32.816592131147544 7.207944321454816e-05
447 1 33.001038688524595 32.98735540983607 7.507550321733162e-05
448 1 35.25110491803279 32.898287868852464 3.156983037868966e-06
449 1 37.95216393442624 32.74746885245902 7.621310777116672e-05
450 1 41.04468590163935 32.824216393442626 1.973012694922175e-05
451 1 44.197747540983606 33.00871344262295 5.227915110819679e-05
452 1 46.769244590163936 33.03769573770492 8.48616598104459e-05
453 1 49.34675016393443 33.08849049180328 3.115753932605561e-05
454 1 52.05856393442623 32.85607672131148 8.722536884402223e-05
455 1 55.051718032786894 34.071616393442625 4.6887378912520365e-05
456 1 58.42103606557377 33.17654819672131 7.837964998055319e-05
457 1 59.94336393442623 32.91838360655738 2.7157322127800055e-05
458 1 62.15894426229509 34.56784983606558 1.5742144923561519e-06
459 1 64.92034098360656 33.71160983606558 7.798083277653725e-05
460 1 67.51309508196722 33.71822426229509 7.424375633535483e-05
461 1 69.7120131147541 32.931864918032794 9.438400845602212e-05