ITEM: TIMESTEP
0
ITEM: NUMBER OF ATOMS
2232
ITEM: BOX BOUNDS xy xz yz pp pp pp
0.0 82.68810555352132 0
0.0 83.16 0
-10.0 10.0 0
ITEM: ATOMS id type x y z vx vy vz
1 1 1.7151308196721313 0.6719348196721312 3.14431788905e-05 0.0 0.0 0.0
2 1 4.265148655737705 0.6132784918032788 1.80306600344e-05 0.0 0.0 0.0
3 1 6.861028196721312 1.149950819672131 4.47836114601e-05 0.0 0.0 0.0
4 1 10.028530491803279 1.287434950819672 4.34345025928e-05 0.0 0.0 0.0
5 1 12.84708393442623 0.9816464918032788 5.84396352201e-05 0.0 0.0 0.0
6 1 15.424892459016394 0.5550614426229509 6.31033975581e-05 0.0 0.0 0.0
7 1 17.98891672131148 0.48332470819672135 4.56436962046e-05 0.0 0.0 0.0
8 1 20.615348852459018 0.7662636065573771 3.63168206296e-05 0.0 0.0 0.0
9 1 24.579056393442624 0.8135845245901641 6.02395149342e-05 0.0 0.0 0.0
10 1 26.11410819672131 1.0412167213114756 3.84387244587e-05 0.0 0.0 0.0
11 1 28.696511475409842 1.2629565245901642 2.31412444172e-05 0.0 0.0 0.0
12 1 31.21903147540984 0.9719571147540984 5.93780340857e-05 0.0 0.0 0.0
13 1 33.5821993442623 1.90490931147541 3.09404093814e-05 0.0 0.0 0.0
14 1 36.190000000000005 0.5443723278688526 9.17516647467e-05 0.0 0.0 0.0
15 1 39.012794754098366 0.45805305573770494 4.5397321766e-05 0.0 0.0 0.0
16 1 41.57934360655738 0.6906521311475411 2.35500475104e-05 0.0 0.0 0.0
17 1 44.13751081967214 0.6125160655737706 1.14103331084e-05 0.0 0.0 0.0
18 1 46.742180983606566 0.9381730491803281 6.20113425813e-05 0.0 0.0 0.0
19 1 49.49706426229508 1.0196718688524593 4.17019121307e-05 0.0 0.0 0.0
20 1 52.21862295081968 0.5976462295081968 2.30149046706e-05 0.0 0.0 0.0
21 1 54.95729836065574 0.3572779803278689 4.95519132501e-05 0.0 0.0 0.0
22 1 57.673757377049185 0.24406525901639345 2.28961073469e-05 0.0 0.0 0.0
23 1 60.37860327868853 0.7856726557377051 9.70746035111e-05 0.0 0.0 0.0
24 1 62.9708524590164 1.2409875409836069 5.751592626e-05 0.0 0.0 0.0
25 1 66.27099672131149 1.243476786885246 4.78826402351e-05 0.0 0.0 0.0
26 1 68.88697704918033 1.0740666885245902 8.85268167965e-05 0.0 0.0 0.0
27 1 71.48579016393444 0.8418548852459018 7.44466751875e-05 0.0 0.0 0.0
28 1 74.84904918032788 0.4281331278688525 8.10569644818e-06 0.0 0.0 0.0
29 1 76.39258360655738 0.534455737704918 9.71733501875e-05 0.0 0.0 0.0
30 1 79.16357377049181 0.6599733114754099 4.72872659279e-05 0.0 0.0 0.0
31 1 81.85983606557377 0.5298205901639345 7.78796597895e-05 0.0 0.0 0.0
32 1 0.2960844393442623 2.9422381639344266 2.95195063571e-05 0.0 0.0 0.0
33 1 2.8661268196721315 2.986696196721312 9.75621394835e-05 0.0 0.0 0.0
34 1 5.3669252459016406 3.1493656393442624 7.25169126635e-05 0.0 0.0 0.0
35 1 7.581142295081968 2.5217121311475412 2.23940839685e-05 0.0 0.0 0.0
36 1 11.399736393442625 3.2529697704918035 2.94735121015e-05 0.0 0.0 0.0
37 1 15.075943606557379 2.890100327868853 4.51750438245e-06 0.0 0.0 0.0
38 1 16.618720655737707 2.8855712131147544 9.96683126725e-05 0.0 0.0 0.0
39 1 19.122053770491807 2.898789967213115 3.48322504351e-05 0.0 0.0 0.0
40 1 21.77413573770492 3.112572262295082 9.84772423346e-05 0.0 0.0 0.0
41 1 24.315590163934427 4.372782032786886 2.67245891117e-05 0.0 0.0 0.0
42 1 27.355348196721312 3.5974147540983608 5.77822650748e-05 0.0 0.0 0.0
43 1 30.145121311475414 3.5118311475409842 2.57280569124e-05 0.0 0.0 0.0
44 1 33.00563344262296 3.330515081967213 5.83012090066e-05 0.0 0.0 0.0
45 1 35.399146885245905 3.101777114754099 6.44583850263e-05 0.0 0.0 0.0
46 1 37.979328524590166 2.5748345573770495 4.80450108419e-05 0.0 0.0 0.0
47 1 40.61868655737705 2.9126095737704922 2.11771378219e-05 0.0 0.0 0.0
48 1 43.03123540983607 3.0416817704918038 4.23885572304e-06 0.0 0.0 0.0
49 1 45.4709993442623 4.253217442622951 1.41952710006e-05 0.0 0.0 0.0
50 1 48.278343606557385 3.290803278688525 8.80496016279e-05 0.0 0.0 0.0
51 1 52.014131147540986 2.6905819672131153 4.95272406409e-05 0.0 0.0 0.0
52 1 53.582911475409844 2.6752274098360656 7.68062702127e-05 0.0 0.0 0.0
53 1 56.35844590163935 2.5357841967213117 7.6235483946e-06 0.0 0.0 0.0
54 1 58.56392786885246 3.864051868852459 9.41699116435e-05 0.0 0.0 0.0
55 1 61.47881967213116 3.3186242622950823 1.10786962104e-05 0.0 0.0 0.0
56 1 63.767613114754106 2.5786618360655744 6.96184443427e-05 0.0 0.0 0.0
57 1 67.52622295081967 3.451028918032787 4.21974950465e-05 0.0 0.0 0.0
58 1 70.2396524590164 3.309126754098361 6.42760880323e-05 0.0 0.0 0.0
59 1 72.76424262295082 3.2048914754098363 1.214640399e-05 0.0 0.0 0.0
60 1 75.27015081967214 3.082191344262295 3.28288072974e-05 0.0 0.0 0.0
61 1 77.89572459016394 2.81159062295082 3.4654684095e-05 0.0 0.0 0.0
62 1 80.48191475409836 2.8902164590163935 2.09691764348e-05 0.0 0.0 0.0
63 1 1.189814098360656 5.24791606557377 6.46028654608e-06 0.0 0.0 0.0
64 1 3.736777180327869 5.423021639344262 5.65916523543e-05 0.0 0.0 0.0
65 1 6.510716065573772 5.362481967213115 6.11920210892e-05 0.0 0.0 0.0
66 1 9.57652786885246 5.322139016393443 8.38369995003e-05 0.0 0.0 0.0
67 1 12.322928524590164 5.4052990163934425 1.90027393617e-05 0.0 0.0 0.0
68 1 14.852365901639347 5.638520655737705 4.29178743403e-05 0.0 0.0 0.0
69 1 18.681664262295083 5.120070819672131 6.35977038102e-05 0.0 0.0 0.0
70 1 20.238427540983608 5.251753442622951 1.68705094287e-05 0.0 0.0 0.0
71 1 23.15705573770492 5.433877377049181 8.02729775365e-06 0.0 0.0 0.0
72 1 25.721736393442626 5.743644590163935 3.0704758256e-05 0.0 0.0 0.0
73 1 29.448536393442627 5.73652524590164 4.67669628236e-05 0.0 0.0 0.0
74 1 31.932581639344264 5.503051147540984 3.69996945533e-06 0.0 0.0 0.0
75 1 34.74502557377049 5.620040655737705 8.16755635754e-05 0.0 0.0 0.0
76 1 37.27623016393443 5.022354032786886 3.36990019464e-05 0.0 0.0 0.0
77 1 39.789308196721315 6.095370491803279 3.95314102682e-05 0.0 0.0 0.0
78 1 42.15187016393443 6.7471691803278695 1.35740011268e-05 0.0 0.0 0.0
79 1 44.87055081967214 5.6871442622950825 4.56971849073e-05 0.0 0.0 0.0
80 1 47.32536131147542 5.724255737704919 1.35715016627e-05 0.0 0.0 0.0
81 1 49.62177901639345 5.606357377049181 5.98923538333e-05 0.0 0.0 0.0
82 1 52.19943606557378 5.164352131147541 5.22010150252e-05 0.0 0.0 0.0
83 1 55.02293770491804 4.904597049180328 2.44344165943e-06 0.0 0.0 0.0
84 1 57.76413770491804 5.184649836065574 3.05774718428e-05 0.0 0.0 0.0
85 1 60.2412655737705 5.51360393442623 2.25830056807e-05 0.0 0.0 0.0
86 1 62.92389508196722 5.464626885245902 3.67252683428e-05 0.0 0.0 0.0
87 1 65.98824262295082 5.416912131147542 9.075538727e-05 0.0 0.0 0.0
88 1 68.79407213114754 5.606054426229509 5.35743971249e-05 0.0 0.0 0.0
89 1 72.34263606557379 5.421355409836066 9.54043623134e-05 0.0 0.0 0.0
90 1 73.87304262295082 5.509463606557378 5.56427338827e-05 0.0 0.0 0.0
91 1 77.40746885245902 5.0988137704918035 6.62103766949e-05 0.0 0.0 0.0
92 1 78.95201311475411 5.2002518032786895 5.54039879293e-05 0.0 0.0 0.0
93 1 82.34657704918034 5.192627540983607 2.351355022e-05 0.0 0.0 0.0
94 1 82.34556721311476 7.84132655737705 4.05136337566e-05 0.0 0.0 0.0
95 1 2.313736393442623 7.721105573770493 6.79980790105e-05 0.0 0.0 0.0
96 1 4.989786819672132 7.56336918032787 2.6142254035e-05 0.0 0.0 0.0
97 1 7.292228196721312 6.690820327868853 4.12980863019e-05 0.0 0.0 0.0
98 1 10.957832131147542 7.520148196721313 6.66835434989e-06 0.0 0.0 0.0
99 1 13.183106885245904 8.858685901639344 3.21468179049e-05 0.0 0.0 0.0
100 1 15.95293573770492 7.937664918032788 2.17294836084e-05 0.0 0.0 0.0
101 1 18.6017862295082 7.616587540983607 8.68565365476e-05 0.0 0.0 0.0
102 1 21.377421639344263 7.459204590163935 5.95431549749e-05 0.0 0.0 0.0
103 1 24.002692459016394 7.882931803278689 9.94184052428e-05 0.0 0.0 0.0
104 1 26.658460327868855 8.098228852459016 6.03764041279e-05 0.0 0.0 0.0
105 1 28.449404590163937 6.892737049180329 9.40680004746e-05 0.0 0.0 0.0
106 1 33.00775409836066 7.6709167213114755 2.32578327498e-05 0.0 0.0 0.0
107 1 37.16757180327869 7.339488524590164 2.91286889626e-05 0.0 0.0 0.0
108 1 38.77841180327869 7.296368524590164 1.83934806244e-05 0.0 0.0 0.0
109 1 41.36636918032787 8.09504786885246 9.29005908155e-05 0.0 0.0 0.0
110 1 44.58799868852459 8.002395409836067 3.46664620827e-05 0.0 0.0 0.0
111 1 46.12047540983607 8.140339016393444 5.40130015683e-05 0.0 0.0 0.0
112 1 48.524996065573774 8.222236721311477 5.36944234293e-05 0.0 0.0 0.0
113 1 51.1320393442623 7.67384524590164 9.6317205068e-05 0.0 0.0 0.0
114 1 53.791442622950825 7.2168439344262305 7.88558854691e-05 0.0 0.0 0.0
115 1 56.383691803278694 7.311718032786886 9.43912587187e-06 0.0 0.0 0.0
116 1 58.984019672131154 7.747058360655738 4.38996393051e-05 0.0 0.0 0.0
117 1 61.57172459016394 7.744483278688525 3.88244352064e-05 0.0 0.0 0.0
118 1 63.61815737704919 6.859816393442624 3.69772753396e-05 0.0 0.0 0.0
119 1 67.24498360655738 7.640419672131148 3.07917892251e-05 0.0 0.0 0.0
120 1 69.71302295081969 8.097420983606558 6.84226009428e-05 0.0 0.0 0.0
121 1 72.06745573770492 8.07848655737705 3.07617256061e-06 0.0 0.0 0.0
122 1 74.70868196721311 7.963011803278689 4.00703934189e-05 0.0 0.0 0.0
123 1 77.2580131147541 7.795278032786887 2.48943665523e-05 0.0 0.0 0.0
124 1 79.89721967213116 7.861119344262296 4.74579011198e-05 0.0 0.0 0.0
125 1 1.237200655737705 10.109822295081969 6.04735181117e-05 0.0 0.0 0.0
126 1 3.8235776393442626 9.923507540983607 3.80932437667e-05 0.0 0.0 0.0
127 1 6.562773114754099 9.523561967213116 2.22871444577e-05 0.0 0.0 0.0
128 1 9.160929836065575 9.590665573770492 1.83160357363e-07 0.0 0.0 0.0
129 1 12.023815081967214 9.856302950819673 1.36853762299e-05 0.0 0.0 0.0
130 1 14.966830819672133 10.356979672131148 3.32947936355e-05 0.0 0.0 0.0
131 1 17.691620983606562 10.008081311475411 5.92541856576e-05 0.0 0.0 0.0
132 1 20.197074754098363 9.759257704918033 5.97637532622e-05 0.0 0.0 0.0
133 1 22.745093114754102 9.951833442622952 2.96259012592e-05 0.0 0.0 0.0
134 1 25.515729836065574 10.214289836065575 6.16211441553e-05 0.0 0.0 0.0
135 1 28.339786885245903 9.902300983606558 4.89299689381e-05 0.0 0.0 0.0
136 1 31.058366557377052 9.452671475409836 6.75337667877e-05 0.0 0.0 0.0
137 1 33.7364518032787 9.817878688524592 9.29977834288e-05 0.0 0.0 0.0
138 1 36.30597967213115 9.775263606557377 3.34713910883e-05 0.0 0.0 0.0
139 1 39.14543672131148 9.850142950819674 9.00302864892e-05 0.0 0.0 0.0
140 1 42.15893901639345 10.67497704918033 4.62520791217e-05 0.0 0.0 0.0
141 1 44.849293770491805 10.710220327868853 3.13923939325e-05 0.0 0.0 0.0
142 1 47.33136983606558 10.742888524590164 5.64680790868e-05 0.0 0.0 0.0
143 1 50.83363278688525 9.96920262295082 9.32464296963e-05 0.0 0.0 0.0
144 1 52.34434754098361 9.668372459016394 1.41996943621e-07 0.0 0.0 0.0
145 1 55.013344262295085 9.636764590163935 6.50205065552e-05 0.0 0.0 0.0
146 1 57.71768524590165 9.848678688524592 3.89131184789e-05 0.0 0.0 0.0
147 1 60.4492918032787 10.100178360655738 6.82002589796e-05 0.0 0.0 0.0
148 1 63.0900131147541 9.868269508196722 1.90751707445e-05 0.0 0.0 0.0
149 1 65.70144918032787 9.647872786885248 4.37236735669e-05 0.0 0.0 0.0
150 1 68.32702295081968 10.236102295081968 3.34074856645e-05 0.0 0.0 0.0
151 1 70.87584918032788 10.570862950819674 6.4450532394e-05 0.0 0.0 0.0
152 1 73.38428196721313 10.310628196721312 7.7822418458e-05 0.0 0.0 0.0
153 1 76.12346229508198 10.226003934426231 2.07555461362e-05 0.0 0.0 0.0
154 1 78.81669508196723 10.125323278688526 6.38323417569e-05 0.0 0.0 0.0
155 1 81.40389508196722 10.284372459016396 8.71101140597e-05 0.0 0.0 0.0
156 1 0.13557352131147543 12.628706885245903 3.98170817456e-05 0.0 0.0 0.0
157 1 2.7897125245901644 12.39169836065574 3.98588948255e-05 0.0 0.0 0.0
158 1 5.5831816393442635 11.89152655737705 1.39994579175e-05 0.0 0.0 0.0
159 1 7.891565901639345 13.184116721311476 9.21488416534e-05 0.0 0.0 0.0
160 1 11.104813770491806 11.702990163934428 3.92959125579e-05 0.0 0.0 0.0
161 1 12.559482622950823 11.27401180327869 6.21954296624e-05 0.0 0.0 0.0
162 1 16.371209836065574 12.336106885245902 7.27953510171e-05 0.0 0.0 0.0
163 1 19.030007213114757 12.280414426229509 4.66720441058e-07 0.0 0.0 0.0
164 1 21.417411147540985 12.240071475409838 6.77755862602e-05 0.0 0.0 0.0
165 1 24.19032 12.249260983606558 4.26530304182e-05 0.0 0.0 0.0
166 1 26.933388196721314 12.180440655737707 7.90008205063e-05 0.0 0.0 0.0
167 1 29.56653573770492 11.917479344262295 9.25729167604e-05 0.0 0.0 0.0
168 1 32.17236721311476 11.907683934426231 5.34978482749e-05 0.0 0.0 0.0
169 1 34.8786268852459 12.13828 5.82320628509e-05 0.0 0.0 0.0
170 1 37.452648524590174 11.914550819672133 4.18523945468e-05 0.0 0.0 0.0
171 1 39.66737049180328 11.29784393442623 7.42086880543e-05 0.0 0.0 0.0
172 1 43.230072131147544 12.879550163934427 1.77913992932e-06 0.0 0.0 0.0
173 1 45.93057573770492 13.26561049180328 4.97370112536e-05 0.0 0.0 0.0
174 1 48.69535540983607 13.165838688524591 6.3996723466e-05 0.0 0.0 0.0
175 1 51.17344262295082 12.469253770491804 2.64027304352e-06 0.0 0.0 0.0
176 1 53.67632131147542 11.956105573770493 8.37393490546e-05 0.0 0.0 0.0
177 1 56.30340983606558 12.006799344262296 1.34377395681e-05 0.0 0.0 0.0
178 1 59.01330491803279 12.231992786885247 9.57792896768e-05 0.0 0.0 0.0
179 1 61.75400000000001 12.365594098360658 2.11908045854e-05 0.0 0.0 0.0
180 1 65.2076393442623 11.945906229508196 2.269679441e-05 0.0 0.0 0.0
181 1 66.73956065573772 12.180036721311478 5.4695339165e-05 0.0 0.0 0.0
182 1 69.44440655737705 12.754280000000001 4.09357415349e-05 0.0 0.0 0.0
183 1 72.16288524590163 12.836379672131148 9.5568383295e-05 0.0 0.0 0.0
184 1 74.78492459016394 12.457943606557379 3.31702584723e-05 0.0 0.0 0.0
185 1 77.53420327868852 12.418711475409838 6.30943846913e-06 0.0 0.0 0.0
186 1 80.21834754098361 12.560038032786887 9.22003518044e-05 0.0 0.0 0.0
187 1 1.527498229508197 14.88104524590164 2.64249467671e-05 0.0 0.0 0.0
188 1 4.364400393442623 14.327604590163936 8.32432104223e-06 0.0 0.0 0.0
189 1 7.240120655737706 14.584304918032787 7.40137892596e-05 0.0 0.0 0.0
190 1 9.65272 15.076044590163935 7.51818414878e-05 0.0 0.0 0.0
191 1 12.00356786885246 14.272669508196723 4.52029177812e-05 0.0 0.0 0.0
192 1 14.764712131147544 14.334168524590165 2.1471280006e-05 0.0 0.0 0.0
193 1 17.458904262295082 14.550121967213116 3.80221070852e-05 0.0 0.0 0.0
194 1 20.086194754098365 14.767135737704919 4.40212653363e-05 0.0 0.0 0.0
195 1 22.8220931147541 14.412733770491805 1.04464684094e-05 0.0 0.0 0.0
196 1 25.553245245901643 14.437727213114757 7.12965253754e-05 0.0 0.0 0.0
197 1 28.10252590163935 14.369613770491805 2.57703096715e-05 0.0 0.0 0.0
198 1 30.716991475409838 14.258733770491805 4.93889571411e-05 0.0 0.0 0.0
199 1 33.43526819672132 14.263379016393444 7.75070750694e-05 0.0 0.0 0.0
200 1 36.25407409836066 14.37905573770492 1.22444670809e-05 0.0 0.0 0.0
201 1 38.93680459016394 14.108924590163937 7.43219073566e-05 0.0 0.0 0.0
202 1 41.513754754098365 14.683319344262296 8.66650511961e-05 0.0 0.0 0.0
203 1 43.93569508196722 15.162385573770493 5.66224287284e-05 0.0 0.0 0.0
204 1 46.31936262295083 14.80020786885246 6.20380210322e-05 0.0 0.0 0.0
205 1 49.9199331147541 15.080538360655739 9.14782948069e-05 0.0 0.0 0.0
206 1 53.1032393442623 14.505234754098362 3.2292091582e-05 0.0 0.0 0.0
207 1 54.62758688524591 14.26085442622951 2.14949050665e-05 0.0 0.0 0.0
208 1 57.254675409836075 14.339217704918035 6.73888557971e-05 0.0 0.0 0.0
209 1 60.04081311475411 14.542245245901642 5.88920392717e-05 0.0 0.0 0.0
210 1 62.93045901639345 14.903009180327869 3.08470234166e-05 0.0 0.0 0.0
211 1 65.45050491803279 14.522149508196723 2.84397301358e-05 0.0 0.0 0.0
212 1 68.13717377049181 14.708514754098363 7.90017491496e-05 0.0 0.0 0.0
213 1 70.86625573770493 15.071247868852462 4.61810345241e-06 0.0 0.0 0.0
214 1 74.36432786885247 14.728156065573772 4.91795649186e-05 0.0 0.0 0.0
215 1 75.89069508196722 14.593393442622952 2.19108047141e-05 0.0 0.0 0.0
216 1 78.59099672131148 14.728408524590165 5.75395996445e-05 0.0 0.0 0.0
217 1 81.31401967213117 14.976878688524591 5.02156946955e-05 0.0 0.0 0.0
218 1 82.24862295081968 17.079104918032787 1.55357787338e-05 0.0 0.0 0.0
219 1 4.043696655737706 16.450179016393445 2.72536952912e-05 0.0 0.0 0.0
220 1 5.596713442622952 16.531470819672133 5.16385981261e-05 0.0 0.0 0.0
221 1 8.355333114754098 17.260219016393442 9.82518000949e-05 0.0 0.0 0.0
222 1 12.137926557377051 16.64093704918033 6.04013879821e-05 0.0 0.0 0.0
223 1 13.659396065573773 16.496934426229508 5.89711300323e-05 0.0 0.0 0.0
224 1 16.1446531147541 16.68415803278689 9.43496905172e-05 0.0 0.0 0.0
225 1 18.343268196721315 18.04147868852459 3.25280302888e-05 0.0 0.0 0.0
226 1 22.38932786885246 16.557676065573773 3.22743838739e-06 0.0 0.0 0.0
227 1 23.936800655737706 16.62437573770492 4.6213110741e-05 0.0 0.0 0.0
228 1 26.599788852459017 16.795845901639346 9.76838857569e-06 0.0 0.0 0.0
229 1 29.236117377049183 16.64871278688525 2.87504177188e-05 0.0 0.0 0.0
230 1 31.94545704918033 16.503346885245904 1.41993366567e-05 0.0 0.0 0.0
231 1 34.541493114754104 16.44230229508197 3.08760967592e-05 0.0 0.0 0.0
232 1 38.40371213114754 16.33217967213115 1.86354236505e-05 0.0 0.0 0.0
233 1 39.90574229508197 16.672342950819672 5.90013172644e-05 0.0 0.0 0.0
234 1 42.47001901639345 17.341157377049182 7.82207116623e-05 0.0 0.0 0.0
235 1 45.069286557377055 17.426135081967214 3.04533102034e-05 0.0 0.0 0.0
236 1 47.66759475409837 17.418712786885248 3.27049478759e-05 0.0 0.0 0.0
237 1 50.86998688524591 17.83057442622951 3.33909406328e-05 0.0 0.0 0.0
238 1 53.4304262295082 18.419914754098365 2.51642608254e-05 0.0 0.0 0.0
239 1 55.87271475409836 16.648460327868854 4.99293107056e-05 0.0 0.0 0.0
240 1 58.58513442622951 16.590344262295083 2.5912299857e-05 0.0 0.0 0.0
241 1 60.74466885245902 15.912289836065575 6.48792012707e-05 0.0 0.0 0.0
242 1 64.39118688524592 17.04264983606558 5.29179181806e-06 0.0 0.0 0.0
243 1 66.83095081967214 16.90687737704918 7.12258028511e-05 0.0 0.0 0.0
244 1 69.43380327868853 17.138887213114756 3.26735321641e-05 0.0 0.0 0.0
245 1 71.93163278688525 17.527320655737707 5.90678913894e-06 0.0 0.0 0.0
246 1 74.52741639344264 17.34898360655738 5.57726155147e-05 0.0 0.0 0.0
247 1 77.28073442622951 16.913643278688525 3.60615165834e-05 0.0 0.0 0.0
248 1 79.47864262295083 18.177655081967213 6.65293770648e-05 0.0 0.0 0.0
249 1 0.4405914754098361 18.33417967213115 7.18565417163e-05 0.0 0.0 0.0
250 1 3.797624852459017 19.316295737704923 5.36702725568e-05 0.0 0.0 0.0
251 1 6.837700983606558 19.05106229508197 1.29442671072e-05 0.0 0.0 0.0
252 1 10.396918688524591 19.410059016393443 6.59964023534e-05 0.0 0.0 0.0
253 1 11.926365901639345 19.258785573770496 8.52839274015e-05 0.0 0.0 0.0
254 1 14.693821639344264 19.091051803278692 6.78738534859e-05 0.0 0.0 0.0
255 1 17.498186885245904 19.33815868852459 9.76173702699e-05 0.0 0.0 0.0
256 1 19.94724131147541 19.466054426229512 5.28808058456e-05 0.0 0.0 0.0
257 1 22.30707672131148 18.961893770491805 4.16992146105e-05 0.0 0.0 0.0
258 1 25.02005180327869 19.042579672131147 3.97828578124e-05 0.0 0.0 0.0
259 1 28.087277377049183 19.06413967213115 8.16740031269e-05 0.0 0.0 0.0
260 1 30.73501704918033 18.81460918032787 1.13079853605e-05 0.0 0.0 0.0
261 1 33.28066229508197 18.815619016393445 5.96841360215e-06 0.0 0.0 0.0
262 1 35.74683344262296 18.85116524590164 5.37546698344e-05 0.0 0.0 0.0
263 1 38.2145193442623 20.04928524590164 9.59452030069e-05 0.0 0.0 0.0
264 1 41.10699278688525 19.334523278688525 4.70605798911e-07 0.0 0.0 0.0
265 1 43.92746491803279 19.747596721311478 2.36900759712e-06 0.0 0.0 0.0
266 1 46.33854950819673 19.76097704918033 8.44741002736e-05 0.0 0.0 0.0
267 1 48.53130754098361 18.727359344262297 7.48339035944e-06 0.0 0.0 0.0
268 1 52.788170491803285 19.823990819672133 8.92821968545e-05 0.0 0.0 0.0
269 1 55.884327868852466 18.896961311475412 7.62279824864e-05 0.0 0.0 0.0
270 1 57.3995868852459 18.84354098360656 1.30839116514e-05 0.0 0.0 0.0
271 1 60.424550819672135 18.69736721311476 4.61333350651e-06 0.0 0.0 0.0
272 1 63.113239344262304 19.154065573770495 6.61848474358e-06 0.0 0.0 0.0
273 1 65.45504918032788 19.40788786885246 8.70989201767e-05 0.0 0.0 0.0
274 1 68.01952786885246 19.351589508196724 4.30300073063e-05 0.0 0.0 0.0
275 1 70.53906885245902 19.738811147540986 3.68482729866e-05 0.0 0.0 0.0
276 1 73.27824918032788 19.77758885245902 6.70282863064e-05 0.0 0.0 0.0
277 1 76.01137049180329 19.39602229508197 9.2913235947e-05 0.0 0.0 0.0
278 1 78.74550163934427 19.53770229508197 8.33451969211e-05 0.0 0.0 0.0
279 1 81.20798688524592 19.529421639344267 1.17733668135e-05 0.0 0.0 0.0
280 1 0.6233314098360657 21.224835409836068 9.34875752893e-05 0.0 0.0 0.0
281 1 2.1461238032786887 21.263966557377053 4.28272607567e-05 0.0 0.0 0.0
282 1 4.388828327868852 20.722896393442625 6.16878991417e-05 0.0 0.0 0.0
283 1 7.168119344262296 22.668244590163937 9.29677509966e-05 0.0 0.0 0.0
284 1 9.998033442622953 22.001399344262296 4.76695648337e-05 0.0 0.0 0.0
285 1 13.41496524590164 21.481182295081968 6.81882701112e-05 0.0 0.0 0.0
286 1 16.19817442622951 21.427913442622955 3.08363632357e-05 0.0 0.0 0.0
287 1 19.57037049180328 21.543640655737708 8.73493173731e-05 0.0 0.0 0.0
288 1 21.09567737704918 21.596000655737704 7.45754126239e-05 0.0 0.0 0.0
289 1 23.582196721311476 21.238771147540987 4.42691848637e-05 0.0 0.0 0.0
290 1 25.79045573770492 20.376118688524592 5.10978248838e-05 0.0 0.0 0.0
291 1 29.580219016393446 21.20574950819672 3.43045527981e-05 0.0 0.0 0.0
292 1 32.05855868852459 21.186613114754103 2.17831507099e-05 0.0 0.0 0.0
293 1 34.67711409836066 21.243769836065578 4.49702751186e-05 0.0 0.0 0.0
294 1 37.220083278688534 21.217362622950823 2.03030406013e-06 0.0 0.0 0.0
295 1 39.586684590163934 21.582519344262295 9.68979609693e-05 0.0 0.0 0.0
296 1 42.75247016393443 21.64225114754099 9.96102999491e-05 0.0 0.0 0.0
297 1 45.60490360655738 22.24497180327869 6.71283241982e-05 0.0 0.0 0.0
298 1 48.18887213114754 21.609683934426233 3.33470722378e-05 0.0 0.0 0.0
299 1 50.33840918032788 20.692045901639347 7.07558826619e-05 0.0 0.0 0.0
300 1 53.87879344262296 22.187512131147543 8.69907974402e-05 0.0 0.0 0.0
301 1 56.2756393442623 21.647249836065576 9.39813477804e-05 0.0 0.0 0.0
302 1 58.22462295081968 20.13981704918033 2.2859478357e-05 0.0 0.0 0.0
303 1 61.5384 22.38852 5.12699380468e-05 0.0 0.0 0.0
304 1 64.3179737704918 21.82230491803279 5.47966570222e-05 0.0 0.0 0.0
305 1 66.86074098360658 21.730056393442624 1.7631951646e-05 0.0 0.0 0.0
306 1 69.10106229508197 23.106866885245903 4.99107542329e-05 0.0 0.0 0.0
307 1 71.90234754098361 22.013719344262295 6.90301637123e-05 0.0 0.0 0.0
308 1 74.6551606557377 21.825031475409837 9.00500820757e-05 0.0 0.0 0.0
309 1 77.27518032786885 21.7440931147541 8.65515761022e-05 0.0 0.0 0.0
310 1 79.92499016393444 21.97090229508197 4.38209973402e-05 0.0 0.0 0.0
311 1 0.8421022950819673 23.946848524590166 8.64110458168e-05 0.0 0.0 0.0
312 1 3.547998426229509 23.537713442622955 5.54346017538e-05 0.0 0.0 0.0
313 1 6.346163278688525 23.94442491803279 3.03457849483e-05 0.0 0.0 0.0
314 1 9.03404393442623 24.224856393442625 2.27065092439e-05 0.0 0.0 0.0
315 1 11.127585573770492 23.042944262295084 1.93167646726e-05 0.0 0.0 0.0
316 1 14.658931803278689 23.6259731147541 2.96251823316e-05 0.0 0.0 0.0
317 1 17.157821639344263 24.0140531147541 5.2383844554e-05 0.0 0.0 0.0
318 1 19.74219409836066 24.10226229508197 6.45914018742e-05 0.0 0.0 0.0
319 1 22.490311475409836 23.81334819672131 4.66341393866e-05 0.0 0.0 0.0
320 1 25.248123278688524 23.244810491803282 5.57129685533e-05 0.0 0.0 0.0
321 1 28.094800655737707 23.238801967213117 2.76510902359e-05 0.0 0.0 0.0
322 1 30.89583344262295 23.624155409836067 7.67944312871e-06 0.0 0.0 0.0
323 1 33.43244065573771 23.51549704918033 8.10380629929e-05 0.0 0.0 0.0
324 1 35.992072131147545 23.620015081967214 4.95103670507e-05 0.0 0.0 0.0
325 1 38.16256327868853 23.822588196721313 8.99554075515e-05 0.0 0.0 0.0
326 1 40.26044721311476 22.932771147540983 9.53611880543e-05 0.0 0.0 0.0
327 1 43.64476131147541 22.88142098360656 8.19068632676e-05 0.0 0.0 0.0
328 1 47.25871213114755 24.207638688524593 2.91658974966e-05 0.0 0.0 0.0
329 1 49.92508327868853 23.663337049180328 9.27485100311e-05 0.0 0.0 0.0
330 1 52.56853114754099 24.0225862295082 2.23423698105e-05 0.0 0.0 0.0
331 1 55.428891803278695 24.28322491803279 2.37996135309e-05 0.0 0.0 0.0
332 1 57.990340983606565 23.11863147540984 7.93392600636e-05 0.0 0.0 0.0
333 1 60.739619672131155 23.703579016393444 7.09735538237e-05 0.0 0.0 0.0
334 1 63.073855737704925 24.235207213114755 3.40975035756e-05 0.0 0.0 0.0
335 1 65.75194098360657 24.224906885245904 4.7631973338e-05 0.0 0.0 0.0
336 1 68.42396721311475 24.50382360655738 8.6345408046e-05 0.0 0.0 0.0
337 1 70.90210491803279 24.387389508196723 9.69129222125e-05 0.0 0.0 0.0
338 1 73.45699016393444 24.147452459016396 2.79639869255e-05 0.0 0.0 0.0
339 1 75.94320655737707 24.142756721311475 2.82786972899e-05 0.0 0.0 0.0
340 1 78.5056655737705 24.171335081967214 9.68333434057e-05 0.0 0.0 0.0
341 1 81.07872786885247 24.33210098360656 3.1134452448e-05 0.0 0.0 0.0
342 1 82.53642622950821 26.54338950819672 1.64677040045e-05 0.0 0.0 0.0
343 1 2.336816196721312 25.993180327868853 6.6017720227e-05 0.0 0.0 0.0
344 1 5.076546885245902 25.856650491803283 8.43696589221e-05 0.0 0.0 0.0
345 1 7.874954098360657 26.27209704918033 7.77457737789e-06 0.0 0.0 0.0
346 1 10.650993442622951 25.988181639344266 3.13492068115e-05 0.0 0.0 0.0
347 1 13.189468852459017 25.829990819672133 9.27949313734e-05 0.0 0.0 0.0
348 1 15.6210531147541 26.16975016393443 2.31557527672e-05 0.0 0.0 0.0
349 1 18.215624918032788 26.368990819672135 3.79179916017e-05 0.0 0.0 0.0
350 1 21.464772459016398 26.183029508196725 2.37033603676e-05 0.0 0.0 0.0
351 1 24.12003540983607 25.686341639344267 7.33423046033e-05 0.0 0.0 0.0
352 1 26.7692393442623 25.372434098360657 1.94929681003e-05 0.0 0.0 0.0
353 1 29.552650491803284 25.581217704918036 4.1066513266e-05 0.0 0.0 0.0
354 1 33.057690491803285 25.733147540983612 2.25570789562e-05 0.0 0.0 0.0
355 1 34.59693311475411 25.91517049180328 6.06651689317e-06 0.0 0.0 0.0
356 1 37.28193573770492 26.299211147540987 9.73681291236e-06 0.0 0.0 0.0
357 1 39.78148196721312 25.792677377049184 2.1123756566e-05 0.0 0.0 0.0
358 1 42.54000065573771 25.509620327868856 2.88302327138e-05 0.0 0.0 0.0
359 1 44.85525180327869 25.234894426229513 9.73528012076e-05 0.0 0.0 0.0
360 1 48.507020983606566 26.175455737704922 2.82745369411e-05 0.0 0.0 0.0
361 1 51.2436262295082 26.197975081967215 9.45330056376e-06 0.0 0.0 0.0
362 1 54.1039868852459 26.290526557377053 8.77306306011e-05 0.0 0.0 0.0
363 1 58.32156721311476 26.66941704918033 3.19682834022e-05 0.0 0.0 0.0
364 1 58.219068852459024 25.143100327868854 9.53515998236e-05 0.0 0.0 0.0
365 1 61.29856393442624 26.401356065573776 1.02217826632e-05 0.0 0.0 0.0
366 1 64.14327213114755 26.5166793442623 5.8196304197e-05 0.0 0.0 0.0
367 1 66.87235409836066 26.71258754098361 3.95898934441e-05 0.0 0.0 0.0
368 1 70.42950163934427 26.689209836065576 6.65509680546e-05 0.0 0.0 0.0
369 1 71.96293770491803 26.582520655737707 6.85072829772e-06 0.0 0.0 0.0
370 1 74.52893114754099 26.583076065573774 3.54963926687e-05 0.0 0.0 0.0
371 1 77.22670819672132 26.53980459016394 1.46211496387e-05 0.0 0.0 0.0
372 1 79.90933770491804 26.59933442622951 6.82182736353e-05 0.0 0.0 0.0
373 1 1.3336349508196723 28.653139016393446 5.19833658021e-05 0.0 0.0 0.0
374 1 3.882360196721312 28.1189862295082 9.76467217033e-05 0.0 0.0 0.0
375 1 6.610790819672132 28.15468393442623 2.80891956818e-05 0.0 0.0 0.0
376 1 9.419498360655739 28.293435409836068 1.10551014877e-05 0.0 0.0 0.0
377 1 12.014019672131148 28.31575278688525 8.47905648927e-05 0.0 0.0 0.0
378 1 14.573247213114756 28.437236065573774 4.07510771068e-06 0.0 0.0 0.0
379 1 17.058352786885248 28.559173770491803 2.66368941712e-05 0.0 0.0 0.0
380 1 19.18532 27.53348327868853 8.40417616497e-07 0.0 0.0 0.0
381 1 23.046680655737706 28.173416393442626 6.31436134739e-07 0.0 0.0 0.0
382 1 25.680181639344266 27.80255409836066 3.51643488847e-05 0.0 0.0 0.0
383 1 28.166196065573775 27.63118491803279 1.15331035451e-05 0.0 0.0 0.0
384 1 30.34017114754099 29.150887213114757 3.28138889357e-05 0.0 0.0 0.0
385 1 33.07132327868853 28.273693114754103 5.89495082322e-05 0.0 0.0 0.0
386 1 35.97692459016394 28.405628196721313 5.47001716671e-05 0.0 0.0 0.0
387 1 39.81218098360656 28.014013770491808 9.23244948967e-05 0.0 0.0 0.0
388 1 41.37328655737706 27.76276655737705 5.99236292294e-05 0.0 0.0 0.0
389 1 43.588412459016396 29.204156065573773 9.2353398586e-05 0.0 0.0 0.0
390 1 46.54925180327869 28.320297049180333 7.99616180737e-06 0.0 0.0 0.0
391 1 49.360029508196725 28.381341639344267 1.5279745984e-05 0.0 0.0 0.0
392 1 53.26834754098361 28.281670819672133 3.87054205201e-05 0.0 0.0 0.0
393 1 54.77502295081968 28.647786885245903 8.29128834923e-05 0.0 0.0 0.0
394 1 57.0148393442623 28.876666229508203 3.94835125302e-05 0.0 0.0 0.0
395 1 59.830767213114754 28.538926557377053 8.70962284546e-05 0.0 0.0 0.0
396 1 62.64316065573771 28.62865049180328 4.9752984747e-05 0.0 0.0 0.0
397 1 65.15613770491804 28.87237442622951 5.92005923393e-05 0.0 0.0 0.0
398 1 67.77211803278689 29.27666229508197 7.65299028177e-05 0.0 0.0 0.0
399 1 70.33306229508197 29.296455081967213 9.63744427959e-05 0.0 0.0 0.0
400 1 73.12172459016394 28.983052459016395 8.08817528231e-05 0.0 0.0 0.0
401 1 75.90988196721312 28.838393442622955 5.26964706574e-05 0.0 0.0 0.0
402 1 78.72429508196721 28.843392131147542 5.69120859827e-05 0.0 0.0 0.0
403 1 81.41146885245902 28.896206557377052 9.80655743956e-05 0.0 0.0 0.0
404 1 0.1995193704918033 31.133649836065576 5.68840638637e-05 0.0 0.0 0.0
405 1 3.626472786885246 30.450748196721317 7.76701322023e-05 0.0 0.0 0.0
406 1 5.151224262295083 30.326336393442627 9.77678066311e-05 0.0 0.0 0.0
407 1 7.891868852459018 30.3427462295082 5.10583284739e-06 0.0 0.0 0.0
408 1 10.679824262295082 30.670185573770492 9.96023799521e-05 0.0 0.0 0.0
409 1 13.441776393442625 30.749508196721315 4.58180010576e-05 0.0 0.0 0.0
410 1 16.205091803278687 30.887653770491806 1.17162599554e-05 0.0 0.0 0.0
411 1 19.551183606557377 30.05287278688525 4.54219054157e-05 0.0 0.0 0.0
412 1 20.730419672131152 29.06111278688525 1.63852487199e-05 0.0 0.0 0.0