ITEM: TIMESTEP
0
ITEM: NUMBER OF ATOMS
1350
ITEM: BOX BOUNDS xy xz yz pp pp pp
0.0 76.3000594144 0
0.0 83.2362708944 0
-10.0 10.0 0
ITEM: ATOMS id type x y z vx vy vz
1 1 2.29085748404 83.2170354472 0.0 0.0 0.0 0.0
2 1 7.10375748404 0.129985447213 0.0 0.0 0.0 0.0
3 1 11.914867484 2.36499544721 0.0 0.0 0.0 0.0
4 1 17.516867484 0.558777447213 0.0 0.0 0.0 0.0
5 1 22.867567484 0.471633747213 0.0 0.0 0.0 0.0
6 1 28.062667484 2.87660544721 0.0 0.0 0.0 0.0
7 1 33.890767484 2.50920544721 0.0 0.0 0.0 0.0
8 1 40.594467484 2.16981544721 0.0 0.0 0.0 0.0
9 1 43.627267484 2.40940544721 0.0 0.0 0.0 0.0
10 1 48.552067484 2.07160544721 0.0 0.0 0.0 0.0
11 1 52.838167484 4.52155544721 0.0 0.0 0.0 0.0
12 1 58.306967484 2.32051544721 0.0 0.0 0.0 0.0
13 1 63.627067484 1.71136544721 0.0 0.0 0.0 0.0
14 1 68.979367484 1.41681744721 0.0 0.0 0.0 0.0
15 1 75.611867484 0.403609347213 0.0 0.0 0.0 0.0
16 1 0.182517484045 5.32470544721 0.0 0.0 0.0 0.0
17 1 4.86804748404 7.07451544721 0.0 0.0 0.0 0.0
18 1 10.369567484 4.97860544721 0.0 0.0 0.0 0.0
19 1 15.699667484 5.12226544721 0.0 0.0 0.0 0.0
20 1 21.124667484 4.88266544721 0.0 0.0 0.0 0.0
21 1 26.452867484 5.40722544721 0.0 0.0 0.0 0.0
22 1 31.390167484 6.46047544721 0.0 0.0 0.0 0.0
23 1 36.236267484 7.38734544721 0.0 0.0 0.0 0.0
24 1 41.171667484 7.31079544721 0.0 0.0 0.0 0.0
25 1 46.420667484 7.08246544721 0.0 0.0 0.0 0.0
26 1 51.723767484 7.34416544721 0.0 0.0 0.0 0.0
27 1 56.754867484 6.82289544721 0.0 0.0 0.0 0.0
28 1 62.020367484 6.25315544721 0.0 0.0 0.0 0.0
29 1 66.892467484 5.87091544721 0.0 0.0 0.0 0.0
30 1 71.662167484 8.24849544721 0.0 0.0 0.0 0.0
31 1 3.80636748404 9.92769544721 0.0 0.0 0.0 0.0
32 1 8.25631748404 9.74245544721 0.0 0.0 0.0 0.0
33 1 13.028667484 9.44336544721 0.0 0.0 0.0 0.0
34 1 18.609467484 9.30543544721 0.0 0.0 0.0 0.0
35 1 25.002667484 9.28388544721 0.0 0.0 0.0 0.0
36 1 27.828767484 10.3853454472 0.0 0.0 0.0 0.0
37 1 33.108467484 11.5581354472 0.0 0.0 0.0 0.0
38 1 38.813867484 12.0732354472 0.0 0.0 0.0 0.0
39 1 44.028367484 11.8143354472 0.0 0.0 0.0 0.0
40 1 49.142667484 11.7661354472 0.0 0.0 0.0 0.0
41 1 56.322167484 11.0375354472 0.0 0.0 0.0 0.0
42 1 59.335867484 10.9140354472 0.0 0.0 0.0 0.0
43 1 64.696567484 10.8154354472 0.0 0.0 0.0 0.0
44 1 70.134467484 10.8517354472 0.0 0.0 0.0 0.0
45 1 75.063367484 10.7229354472 0.0 0.0 0.0 0.0
46 1 1.14097748404 14.9117354472 0.0 0.0 0.0 0.0
47 1 6.09811748404 14.8768354472 0.0 0.0 0.0 0.0
48 1 10.473267484 14.3856354472 0.0 0.0 0.0 0.0
49 1 15.531567484 13.4134354472 0.0 0.0 0.0 0.0
50 1 20.111767484 14.5952354472 0.0 0.0 0.0 0.0
51 1 24.788867484 14.5684354472 0.0 0.0 0.0 0.0
52 1 30.143467484 15.3192354472 0.0 0.0 0.0 0.0
53 1 35.674067484 15.7682354472 0.0 0.0 0.0 0.0
54 1 41.197267484 16.5342354472 0.0 0.0 0.0 0.0
55 1 46.500867484 16.5431354472 0.0 0.0 0.0 0.0
56 1 51.717267484 16.2547354472 0.0 0.0 0.0 0.0
57 1 56.824667484 15.9198354472 0.0 0.0 0.0 0.0
58 1 62.039067484 15.2602354472 0.0 0.0 0.0 0.0
59 1 67.194467484 15.1665354472 0.0 0.0 0.0 0.0
60 1 72.266667484 15.4960354472 0.0 0.0 0.0 0.0
61 1 3.89786748404 19.5954354472 0.0 0.0 0.0 0.0
62 1 9.16116748404 19.6171354472 0.0 0.0 0.0 0.0
63 1 15.133667484 17.7097354472 0.0 0.0 0.0 0.0
64 1 17.696967484 21.5727354472 0.0 0.0 0.0 0.0
65 1 22.817367484 19.4094354472 0.0 0.0 0.0 0.0
66 1 27.683267484 21.1387354472 0.0 0.0 0.0 0.0
67 1 33.318467484 19.6977354472 0.0 0.0 0.0 0.0
68 1 38.014067484 22.2126354472 0.0 0.0 0.0 0.0
69 1 43.552367484 21.1194354472 0.0 0.0 0.0 0.0
70 1 51.285467484 20.1860354472 0.0 0.0 0.0 0.0
71 1 54.298467484 20.6546354472 0.0 0.0 0.0 0.0
72 1 61.235067484 19.6727354472 0.0 0.0 0.0 0.0
73 1 64.272467484 19.7685354472 0.0 0.0 0.0 0.0
74 1 69.233367484 19.9436354472 0.0 0.0 0.0 0.0
75 1 74.752867484 19.7165354472 0.0 0.0 0.0 0.0
76 1 1.30063748404 23.9605354472 0.0 0.0 0.0 0.0
77 1 6.39927748404 24.1185354472 0.0 0.0 0.0 0.0
78 1 11.474667484 24.0943354472 0.0 0.0 0.0 0.0
79 1 17.016867484 24.4829354472 0.0 0.0 0.0 0.0
80 1 22.104867484 24.2709354472 0.0 0.0 0.0 0.0
81 1 26.809467484 24.0167354472 0.0 0.0 0.0 0.0
82 1 31.526167484 26.4644354472 0.0 0.0 0.0 0.0
83 1 37.138067484 25.0761354472 0.0 0.0 0.0 0.0
84 1 41.186567484 25.6709354472 0.0 0.0 0.0 0.0
85 1 44.779667484 23.9045354472 0.0 0.0 0.0 0.0
86 1 51.870667484 25.6417354472 0.0 0.0 0.0 0.0
87 1 56.896267484 25.3575354472 0.0 0.0 0.0 0.0
88 1 61.615567484 24.8862354472 0.0 0.0 0.0 0.0
89 1 67.058167484 24.6544354472 0.0 0.0 0.0 0.0
90 1 71.957567484 24.0722354472 0.0 0.0 0.0 0.0
91 1 3.31558748404 28.6194354472 0.0 0.0 0.0 0.0
92 1 9.29156748404 28.7199354472 0.0 0.0 0.0 0.0
93 1 14.425767484 28.4016354472 0.0 0.0 0.0 0.0
94 1 19.571767484 28.9303354472 0.0 0.0 0.0 0.0
95 1 24.469467484 29.0783354472 0.0 0.0 0.0 0.0
96 1 31.449267484 29.4330354472 0.0 0.0 0.0 0.0
97 1 34.432867484 29.4055354472 0.0 0.0 0.0 0.0
98 1 38.929767484 30.5526354472 0.0 0.0 0.0 0.0
99 1 43.967967484 29.8814354472 0.0 0.0 0.0 0.0
100 1 49.020767484 29.9205354472 0.0 0.0 0.0 0.0
101 1 54.502267484 30.1216354472 0.0 0.0 0.0 0.0
102 1 59.408467484 29.9865354472 0.0 0.0 0.0 0.0
103 1 64.530167484 29.1679354472 0.0 0.0 0.0 0.0
104 1 71.391467484 28.7095354472 0.0 0.0 0.0 0.0
105 1 74.315067484 28.0052354472 0.0 0.0 0.0 0.0
106 1 0.490477484045 32.6865354472 0.0 0.0 0.0 0.0
107 1 4.78632748404 31.2443354472 0.0 0.0 0.0 0.0
108 1 12.368267484 33.0603354472 0.0 0.0 0.0 0.0
109 1 17.296567484 33.1121354472 0.0 0.0 0.0 0.0
110 1 20.992467484 36.1803354472 0.0 0.0 0.0 0.0
111 1 26.436067484 34.3994354472 0.0 0.0 0.0 0.0
112 1 31.088767484 34.0627354472 0.0 0.0 0.0 0.0
113 1 35.464867484 36.6022354472 0.0 0.0 0.0 0.0
114 1 41.103067484 34.8102354472 0.0 0.0 0.0 0.0
115 1 47.948167484 34.1689354472 0.0 0.0 0.0 0.0
116 1 50.965567484 34.1355354472 0.0 0.0 0.0 0.0
117 1 56.449867484 34.7728354472 0.0 0.0 0.0 0.0
118 1 62.608267484 34.0897354472 0.0 0.0 0.0 0.0
119 1 65.592167484 34.1431354472 0.0 0.0 0.0 0.0
120 1 69.180667484 32.9348354472 0.0 0.0 0.0 0.0
121 1 3.99557748404 36.7663354472 0.0 0.0 0.0 0.0
122 1 9.20946748404 36.7872354472 0.0 0.0 0.0 0.0
123 1 14.591367484 37.7992354472 0.0 0.0 0.0 0.0
124 1 19.625667484 38.8659354472 0.0 0.0 0.0 0.0
125 1 24.477567484 39.0630354472 0.0 0.0 0.0 0.0
126 1 29.379467484 39.1038354472 0.0 0.0 0.0 0.0
127 1 33.844667484 39.1457354472 0.0 0.0 0.0 0.0
128 1 38.661967484 39.2775354472 0.0 0.0 0.0 0.0
129 1 43.212367484 39.8827354472 0.0 0.0 0.0 0.0
130 1 47.388767484 39.4721354472 0.0 0.0 0.0 0.0
131 1 52.807267484 38.5780354472 0.0 0.0 0.0 0.0
132 1 58.027567484 39.7683354472 0.0 0.0 0.0 0.0
133 1 63.304167484 39.5022354472 0.0 0.0 0.0 0.0
134 1 68.469067484 38.7539354472 0.0 0.0 0.0 0.0
135 1 74.812767484 36.8317354472 0.0 0.0 0.0 0.0
136 1 1.46657748404 41.0698354472 0.0 0.0 0.0 0.0
137 1 7.87569748404 41.0336354472 0.0 0.0 0.0 0.0
138 1 10.870867484 41.4169354472 0.0 0.0 0.0 0.0
139 1 16.023867484 42.7850354472 0.0 0.0 0.0 0.0
140 1 23.327767484 43.4028354472 0.0 0.0 0.0 0.0
141 1 26.318967484 43.7250354472 0.0 0.0 0.0 0.0
142 1 31.336067484 44.1744354472 0.0 0.0 0.0 0.0
143 1 36.242667484 43.9517354472 0.0 0.0 0.0 0.0
144 1 40.250167484 46.8862354472 0.0 0.0 0.0 0.0
145 1 45.272167484 44.8201354472 0.0 0.0 0.0 0.0
146 1 50.312267484 43.1969354472 0.0 0.0 0.0 0.0
147 1 55.394167484 43.4474354472 0.0 0.0 0.0 0.0
148 1 59.320767484 42.4835354472 0.0 0.0 0.0 0.0
149 1 66.490467484 43.6203354472 0.0 0.0 0.0 0.0
150 1 70.723167484 40.7540354472 0.0 0.0 0.0 0.0
151 1 1.90592748404 46.3014354472 0.0 0.0 0.0 0.0
152 1 6.93796748404 46.3801354472 0.0 0.0 0.0 0.0
153 1 12.327967484 46.4140354472 0.0 0.0 0.0 0.0
154 1 17.461067484 47.7358354472 0.0 0.0 0.0 0.0
155 1 22.487067484 48.2146354472 0.0 0.0 0.0 0.0
156 1 27.843667484 48.5134354472 0.0 0.0 0.0 0.0
157 1 35.232867484 48.5050354472 0.0 0.0 0.0 0.0
158 1 38.205367484 49.0945354472 0.0 0.0 0.0 0.0
159 1 42.988967484 50.0576354472 0.0 0.0 0.0 0.0
160 1 50.115667484 47.6593354472 0.0 0.0 0.0 0.0
161 1 53.099767484 47.8577354472 0.0 0.0 0.0 0.0
162 1 58.097067484 48.1166354472 0.0 0.0 0.0 0.0
163 1 63.252267484 47.9065354472 0.0 0.0 0.0 0.0
164 1 68.751167484 45.6218354472 0.0 0.0 0.0 0.0
165 1 73.879167484 44.9418354472 0.0 0.0 0.0 0.0
166 1 75.283067484 50.5824354472 0.0 0.0 0.0 0.0
167 1 4.09095748404 50.9725354472 0.0 0.0 0.0 0.0
168 1 9.12576748404 50.7055354472 0.0 0.0 0.0 0.0
169 1 14.344267484 51.4497354472 0.0 0.0 0.0 0.0
170 1 19.731267484 52.5930354472 0.0 0.0 0.0 0.0
171 1 24.617067484 52.7497354472 0.0 0.0 0.0 0.0
172 1 29.184267484 53.4221354472 0.0 0.0 0.0 0.0
173 1 34.003367484 53.4561354472 0.0 0.0 0.0 0.0
174 1 39.348467484 54.2028354472 0.0 0.0 0.0 0.0
175 1 47.342967484 53.5839354472 0.0 0.0 0.0 0.0
176 1 50.235067484 52.8585354472 0.0 0.0 0.0 0.0
177 1 55.440567484 52.6752354472 0.0 0.0 0.0 0.0
178 1 60.564867484 52.5875354472 0.0 0.0 0.0 0.0
179 1 65.453067484 52.4668354472 0.0 0.0 0.0 0.0
180 1 70.316567484 51.2217354472 0.0 0.0 0.0 0.0
181 1 1.85614748404 55.3651354472 0.0 0.0 0.0 0.0
182 1 6.46963748404 55.4818354472 0.0 0.0 0.0 0.0
183 1 11.011267484 55.4567354472 0.0 0.0 0.0 0.0
184 1 16.672767484 56.1866354472 0.0 0.0 0.0 0.0
185 1 22.090267484 57.4462354472 0.0 0.0 0.0 0.0
186 1 26.366667484 58.0065354472 0.0 0.0 0.0 0.0
187 1 31.316867484 58.2000354472 0.0 0.0 0.0 0.0
188 1 36.455467484 58.1303354472 0.0 0.0 0.0 0.0
189 1 40.210667484 57.0900354472 0.0 0.0 0.0 0.0
190 1 47.630367484 58.4946354472 0.0 0.0 0.0 0.0
191 1 52.939967484 57.2778354472 0.0 0.0 0.0 0.0
192 1 58.121267484 57.2348354472 0.0 0.0 0.0 0.0
193 1 63.368367484 57.2836354472 0.0 0.0 0.0 0.0
194 1 68.491967484 56.4387354472 0.0 0.0 0.0 0.0
195 1 73.362767484 55.6293354472 0.0 0.0 0.0 0.0
196 1 0.962757484045 60.0150354472 0.0 0.0 0.0 0.0
197 1 3.95991748404 60.3907354472 0.0 0.0 0.0 0.0
198 1 8.01684748404 60.3720354472 0.0 0.0 0.0 0.0
199 1 13.035867484 59.6103354472 0.0 0.0 0.0 0.0
200 1 18.519467484 60.8407354472 0.0 0.0 0.0 0.0
201 1 24.133767484 62.8831354472 0.0 0.0 0.0 0.0
202 1 28.950867484 62.7970354472 0.0 0.0 0.0 0.0
203 1 34.248767484 62.6624354472 0.0 0.0 0.0 0.0
204 1 39.378367484 62.8300354472 0.0 0.0 0.0 0.0
205 1 44.650867484 62.7483354472 0.0 0.0 0.0 0.0
206 1 50.190367484 62.0851354472 0.0 0.0 0.0 0.0
207 1 55.347067484 61.8041354472 0.0 0.0 0.0 0.0
208 1 60.499567484 61.7505354472 0.0 0.0 0.0 0.0
209 1 67.777567484 60.9308354472 0.0 0.0 0.0 0.0
210 1 70.799067484 60.7299354472 0.0 0.0 0.0 0.0
211 1 0.483577484045 65.7145354472 0.0 0.0 0.0 0.0
212 1 6.89910748404 65.6371354472 0.0 0.0 0.0 0.0
213 1 11.487867484 64.4463354472 0.0 0.0 0.0 0.0
214 1 17.146467484 65.1949354472 0.0 0.0 0.0 0.0
215 1 19.669867484 63.5974354472 0.0 0.0 0.0 0.0
216 1 26.936167484 67.6613354472 0.0 0.0 0.0 0.0
217 1 32.211367484 67.0741354472 0.0 0.0 0.0 0.0
218 1 36.755567484 69.4952354472 0.0 0.0 0.0 0.0
219 1 43.927067484 66.5986354472 0.0 0.0 0.0 0.0
220 1 46.943667484 66.4595354472 0.0 0.0 0.0 0.0
221 1 52.216767484 66.4225354472 0.0 0.0 0.0 0.0
222 1 57.465867484 66.3160354472 0.0 0.0 0.0 0.0
223 1 62.012967484 66.3770354472 0.0 0.0 0.0 0.0
224 1 66.923267484 66.1513354472 0.0 0.0 0.0 0.0
225 1 73.766167484 65.6763354472 0.0 0.0 0.0 0.0
226 1 74.138467484 70.4416354472 0.0 0.0 0.0 0.0
227 1 2.43158748404 68.0792354472 0.0 0.0 0.0 0.0
228 1 11.730567484 69.1319354472 0.0 0.0 0.0 0.0
229 1 14.618967484 70.0840354472 0.0 0.0 0.0 0.0
230 1 19.303367484 69.9134354472 0.0 0.0 0.0 0.0
231 1 24.617367484 72.5556354472 0.0 0.0 0.0 0.0
232 1 30.161667484 71.7976354472 0.0 0.0 0.0 0.0
233 1 35.212667484 72.0814354472 0.0 0.0 0.0 0.0
234 1 39.924767484 72.7432354472 0.0 0.0 0.0 0.0
235 1 44.660867484 71.6307354472 0.0 0.0 0.0 0.0
236 1 49.700567484 70.8936354472 0.0 0.0 0.0 0.0
237 1 54.870367484 70.8223354472 0.0 0.0 0.0 0.0
238 1 59.817167484 71.3271354472 0.0 0.0 0.0 0.0
239 1 64.554867484 70.9721354472 0.0 0.0 0.0 0.0
240 1 69.178167484 73.2126354472 0.0 0.0 0.0 0.0
241 1 1.68228748404 73.6005354472 0.0 0.0 0.0 0.0
242 1 6.80847748404 73.7971354472 0.0 0.0 0.0 0.0
243 1 11.803667484 74.3489354472 0.0 0.0 0.0 0.0
244 1 17.126067484 74.9455354472 0.0 0.0 0.0 0.0
245 1 22.718967484 74.9289354472 0.0 0.0 0.0 0.0
246 1 28.028667484 76.2589354472 0.0 0.0 0.0 0.0
247 1 33.010367484 76.5875354472 0.0 0.0 0.0 0.0
248 1 37.758567484 77.1598354472 0.0 0.0 0.0 0.0
249 1 43.078967484 76.8288354472 0.0 0.0 0.0 0.0
250 1 48.142467484 75.7586354472 0.0 0.0 0.0 0.0
251 1 52.920067484 75.3103354472 0.0 0.0 0.0 0.0
252 1 57.127767484 78.2284354472 0.0 0.0 0.0 0.0
253 1 62.484267484 76.0105354472 0.0 0.0 0.0 0.0
254 1 67.967767484 75.9577354472 0.0 0.0 0.0 0.0
255 1 73.014767484 75.5281354472 0.0 0.0 0.0 0.0
256 1 74.393667484 3.14601544721 0.0 0.0 0.0 0.0
257 1 4.60997748404 1.90413544721 0.0 0.0 0.0 0.0
258 1 10.143767484 83.1629354472 0.0 0.0 0.0 0.0
259 1 14.958967484 2.20780544721 0.0 0.0 0.0 0.0
260 1 20.241167484 1.97490544721 0.0 0.0 0.0 0.0
261 1 25.892667484 0.781778447213 0.0 0.0 0.0 0.0
262 1 31.032867484 3.48516544721 0.0 0.0 0.0 0.0
263 1 36.325067484 4.38103544721 0.0 0.0 0.0 0.0
264 1 39.330067484 4.88108544721 0.0 0.0 0.0 0.0
265 1 46.212367484 4.03046544721 0.0 0.0 0.0 0.0
266 1 51.566267484 1.79610544721 0.0 0.0 0.0 0.0
267 1 55.806567484 3.99292544721 0.0 0.0 0.0 0.0
268 1 61.130067484 3.38159544721 0.0 0.0 0.0 0.0
269 1 66.376067484 2.91846544721 0.0 0.0 0.0 0.0
270 1 71.378067484 3.23052544721 0.0 0.0 0.0 0.0
271 1 3.14754748404 4.58778544721 0.0 0.0 0.0 0.0
272 1 7.88586748404 6.74909544721 0.0 0.0 0.0 0.0
273 1 12.992567484 6.45091544721 0.0 0.0 0.0 0.0
274 1 18.476167484 6.30872544721 0.0 0.0 0.0 0.0
275 1 23.677767484 6.54707544721 0.0 0.0 0.0 0.0
276 1 28.595367484 7.50272544721 0.0 0.0 0.0 0.0
277 1 33.498167484 8.58696544721 0.0 0.0 0.0 0.0
278 1 38.739467484 9.06867544721 0.0 0.0 0.0 0.0
279 1 43.867867484 8.75111544721 0.0 0.0 0.0 0.0
280 1 49.003567484 8.71187544721 0.0 0.0 0.0 0.0
281 1 54.421167484 8.70346544721 0.0 0.0 0.0 0.0
282 1 59.539567484 7.92815544721 0.0 0.0 0.0 0.0
283 1 64.597167484 7.80504544721 0.0 0.0 0.0 0.0
284 1 69.891067484 5.83960544721 0.0 0.0 0.0 0.0
285 1 74.645667484 7.74655544721 0.0 0.0 0.0 0.0
286 1 1.51742748404 11.9065354472 0.0 0.0 0.0 0.0
287 1 6.11315748404 11.8525354472 0.0 0.0 0.0 0.0
288 1 10.750767484 11.3933354472 0.0 0.0 0.0 0.0
289 1 15.843967484 10.4452354472 0.0 0.0 0.0 0.0
290 1 20.512367484 11.6277354472 0.0 0.0 0.0 0.0
291 1 23.495867484 11.8604354472 0.0 0.0 0.0 0.0
292 1 30.177167484 12.3068354472 0.0 0.0 0.0 0.0
293 1 35.874667484 12.7828354472 0.0 0.0 0.0 0.0
294 1 41.488867484 13.5054354472 0.0 0.0 0.0 0.0
295 1 46.599167484 13.4711354472 0.0 0.0 0.0 0.0
296 1 51.810167484 13.2570354472 0.0 0.0 0.0 0.0
297 1 54.831267484 13.6257354472 0.0 0.0 0.0 0.0
298 1 62.038367484 12.2525354472 0.0 0.0 0.0 0.0
299 1 67.403367484 12.1549354472 0.0 0.0 0.0 0.0
300 1 72.634667484 12.5105354472 0.0 0.0 0.0 0.0
301 1 3.63478748404 16.5924354472 0.0 0.0 0.0 0.0
302 1 8.52130748404 16.6613354472 0.0 0.0 0.0 0.0
303 1 13.283567484 15.3719354472 0.0 0.0 0.0 0.0
304 1 17.378867484 15.7581354472 0.0 0.0 0.0 0.0
305 1 22.452467484 16.4448354472 0.0 0.0 0.0 0.0
306 1 27.274167484 16.2384354472 0.0 0.0 0.0 0.0
307 1 32.813767484 16.7377354472 0.0 0.0 0.0 0.0
308 1 38.245467484 17.3528354472 0.0 0.0 0.0 0.0
309 1 43.840967484 18.0746354472 0.0 0.0 0.0 0.0
310 1 49.230667484 17.9353354472 0.0 0.0 0.0 0.0
311 1 54.393167484 17.6651354472 0.0 0.0 0.0 0.0
312 1 59.642767484 17.0812354472 0.0 0.0 0.0 0.0
313 1 64.644567484 16.7733354472 0.0 0.0 0.0 0.0
314 1 69.620367484 16.9482354472 0.0 0.0 0.0 0.0
315 1 75.012867484 16.7125354472 0.0 0.0 0.0 0.0
316 1 1.20612748404 20.9567354472 0.0 0.0 0.0 0.0
317 1 6.52294748404 21.0999354472 0.0 0.0 0.0 0.0
318 1 11.803867484 21.1066354472 0.0 0.0 0.0 0.0
319 1 14.804967484 20.6715354472 0.0 0.0 0.0 0.0
320 1 20.729867484 21.5796354472 0.0 0.0 0.0 0.0
321 1 25.772767484 18.8471354472 0.0 0.0 0.0 0.0
322 1 30.694567484 21.2061354472 0.0 0.0 0.0 0.0
323 1 36.353367484 19.7184354472 0.0 0.0 0.0 0.0
324 1 40.972367484 22.6608354472 0.0 0.0 0.0 0.0
325 1 47.727567484 24.3396354472 0.0 0.0 0.0 0.0
326 1 50.408967484 23.0356354472 0.0 0.0 0.0 0.0
327 1 56.843667484 22.3498354472 0.0 0.0 0.0 0.0
328 1 59.887467484 22.3711354472 0.0 0.0 0.0 0.0
329 1 66.700067484 21.6189354472 0.0 0.0 0.0 0.0
330 1 72.037367484 21.0635354472 0.0 0.0 0.0 0.0
331 1 3.79963748404 25.6441354472 0.0 0.0 0.0 0.0
332 1 8.94586748404 25.7263354472 0.0 0.0 0.0 0.0
333 1 14.170567484 25.4211354472 0.0 0.0 0.0 0.0
334 1 19.625167484 25.9469354472 0.0 0.0 0.0 0.0
335 1 24.561667484 26.0338354472 0.0 0.0 0.0 0.0
336 1 29.795067484 24.0593354472 0.0 0.0 0.0 0.0
337 1 34.496067484 26.4215354472 0.0 0.0 0.0 0.0
338 1 38.850567484 27.5401354472 0.0 0.0 0.0 0.0
339 1 43.938767484 26.8320354472 0.0 0.0 0.0 0.0
340 1 49.179467484 26.9446354472 0.0 0.0 0.0 0.0
341 1 54.476067484 27.1187354472 0.0 0.0 0.0 0.0
342 1 59.437467484 26.9679354472 0.0 0.0 0.0 0.0
343 1 64.398767484 26.1285354472 0.0 0.0 0.0 0.0
344 1 69.742167484 26.1320354472 0.0 0.0 0.0 0.0
345 1 74.799167484 25.0527354472 0.0 0.0 0.0 0.0
346 1 0.506027484045 29.6820354472 0.0 0.0 0.0 0.0
347 1 7.77752748404 31.3101354472 0.0 0.0 0.0 0.0
348 1 11.962967484 30.0864354472 0.0 0.0 0.0 0.0
349 1 16.845667484 30.1571354472 0.0 0.0 0.0 0.0
350 1 21.948867484 30.7439354472 0.0 0.0 0.0 0.0
351 1 26.412967484 31.3878354472 0.0 0.0 0.0 0.0
352 1 29.397467484 31.5865354472 0.0 0.0 0.0 0.0
353 1 36.202967484 31.8084354472 0.0 0.0 0.0 0.0
354 1 41.649467484 31.8349354472 0.0 0.0 0.0 0.0
355 1 46.497067484 31.5292354472 0.0 0.0 0.0 0.0
356 1 51.713467484 31.2362354472 0.0 0.0 0.0 0.0
357 1 56.997467484 31.8016354472 0.0 0.0 0.0 0.0
358 1 62.200967484 31.1006354472 0.0 0.0 0.0 0.0
359 1 66.639567484 31.3301354472 0.0 0.0 0.0 0.0
360 1 71.914467484 31.7109354472 0.0 0.0 0.0 0.0
361 1 3.26868748404 33.8398354472 0.0 0.0 0.0 0.0
362 1 9.46346748404 33.8000354472 0.0 0.0 0.0 0.0
363 1 14.820567484 34.8043354472 0.0 0.0 0.0 0.0
364 1 20.296567484 33.2664354472 0.0 0.0 0.0 0.0
365 1 23.989167484 36.1209354472 0.0 0.0 0.0 0.0
366 1 28.916767484 36.1262354472 0.0 0.0 0.0 0.0
367 1 34.093467484 33.9488354472 0.0 0.0 0.0 0.0
368 1 38.468067484 36.2916354472 0.0 0.0 0.0 0.0
369 1 43.301367484 36.8752354472 0.0 0.0 0.0 0.0
370 1 46.294467484 36.6718354472 0.0 0.0 0.0 0.0
371 1 53.557667484 35.6703354472 0.0 0.0 0.0 0.0
372 1 58.660967484 36.8358354472 0.0 0.0 0.0 0.0
373 1 61.667767484 36.9462354472 0.0 0.0 0.0 0.0
374 1 68.119567484 35.7518354472 0.0 0.0 0.0 0.0
375 1 74.039867484 33.8941354472 0.0 0.0 0.0 0.0
376 1 1.27951748404 38.0625354472 0.0 0.0 0.0 0.0
377 1 6.60978748404 38.2911354472 0.0 0.0 0.0 0.0
378 1 11.672467484 38.5219354472 0.0 0.0 0.0 0.0
379 1 16.783267484 39.8632354472 0.0 0.0 0.0 0.0
380 1 21.988867484 40.7164354472 0.0 0.0 0.0 0.0
381 1 26.915067484 40.7896354472 0.0 0.0 0.0 0.0
382 1 31.586867484 41.1422354472 0.0 0.0 0.0 0.0
383 1 36.197267484 40.9685354472 0.0 0.0 0.0 0.0
384 1 40.686067484 41.4669354472 0.0 0.0 0.0 0.0
385 1 45.502967484 41.8107354472 0.0 0.0 0.0 0.0
386 1 50.287167484 40.1991354472 0.0 0.0 0.0 0.0
387 1 55.127467484 40.4671354472 0.0 0.0 0.0 0.0
388 1 62.296667484 42.3382354472 0.0 0.0 0.0 0.0
389 1 66.106467484 40.6106354472 0.0 0.0 0.0 0.0
390 1 73.455267484 39.5257354472 0.0 0.0 0.0 0.0
391 1 3.14640748404 43.5537354472 0.0 0.0 0.0 0.0
392 1 6.14848748404 43.4882354472 0.0 0.0 0.0 0.0
393 1 13.074767484 43.4889354472 0.0 0.0 0.0 0.0
394 1 18.247667484 44.8394354472 0.0 0.0 0.0 0.0
395 1 21.194167484 45.4941354472 0.0 0.0 0.0 0.0
396 1 28.666567484 45.6083354472 0.0 0.0 0.0 0.0
397 1 33.886667484 45.8040354472 0.0 0.0 0.0 0.0
398 1 39.232367484 44.0839354472 0.0 0.0 0.0 0.0
399 1 43.243367484 47.0592354472 0.0 0.0 0.0 0.0
400 1 48.224667484 45.3356354472 0.0 0.0 0.0 0.0
401 1 52.791767484 44.8813354472 0.0 0.0 0.0 0.0
402 1 57.882567484 45.1128354472 0.0 0.0 0.0 0.0
403 1 63.794567484 44.9416354472 0.0 0.0 0.0 0.0
404 1 71.107567484 43.7601354472 0.0 0.0 0.0 0.0
405 1 74.969767484 42.1304354472 0.0 0.0 0.0 0.0
406 1 75.448567484 47.5369354472 0.0 0.0 0.0 0.0
407 1 4.39453748404 47.9852354472 0.0 0.0 0.0 0.0
408 1 9.61736748404 47.7334354472 0.0 0.0 0.0 0.0
409 1 14.546267484 48.4508354472 0.0 0.0 0.0 0.0
410 1 19.828267484 49.5973354472 0.0 0.0 0.0 0.0
411 1 25.084667484 49.7584354472 0.0 0.0 0.0 0.0
412 1 30.064267484 50.5463354472 0.0 0.0 0.0 0.0
413 1 33.077267484 50.5996354472 0.0 0.0 0.0 0.0
414 1 40.241267484 51.3208354472 0.0 0.0 0.0 0.0
415 1 45.829367484 51.0161354472 0.0 0.0 0.0 0.0
416 1 48.723167484 50.2763354472 0.0 0.0 0.0 0.0
417 1 55.510067484 49.6617354472 0.0 0.0 0.0 0.0
418 1 60.734067484 49.5711354472 0.0 0.0 0.0 0.0
419 1 65.813567484 49.4855354472 0.0 0.0 0.0 0.0
420 1 68.711867484 48.6500354472 0.0 0.0 0.0 0.0
421 1 1.42853748404 52.3679354472 0.0 0.0 0.0 0.0
422 1 6.68801748404 52.4776354472 0.0 0.0 0.0 0.0
423 1 11.527567484 52.5002354472 0.0 0.0 0.0 0.0
424 1 16.795567484 53.1962354472 0.0 0.0 0.0 0.0
425 1 22.121167484 54.4246354472 0.0 0.0 0.0 0.0
426 1 26.623567484 54.9910354472 0.0 0.0 0.0 0.0
427 1 31.579667484 55.2149354472 0.0 0.0 0.0 0.0
428 1 36.498867484 55.1169354472 0.0 0.0 0.0 0.0
429 1 43.164867484 57.4156354472 0.0 0.0 0.0 0.0
430 1 45.831467484 56.1227354472 0.0 0.0 0.0 0.0
431 1 52.887467484 54.2684354472 0.0 0.0 0.0 0.0
432 1 58.028867484 54.2171354472 0.0 0.0 0.0 0.0
433 1 63.056367484 54.2812354472 0.0 0.0 0.0 0.0
434 1 68.286867484 53.4433354472 0.0 0.0 0.0 0.0
435 1 73.016067484 52.5940354472 0.0 0.0 0.0 0.0
436 1 75.878067484 57.3123354472 0.0 0.0 0.0 0.0
437 1 4.12788748404 57.3577354472 0.0 0.0 0.0 0.0
438 1 8.73676748404 57.4334354472 0.0 0.0 0.0 0.0
439 1 13.722967484 56.7118354472 0.0 0.0 0.0 0.0
440 1 19.130267484 57.9163354472 0.0 0.0 0.0 0.0
441 1 23.962267484 59.8287354472 0.0 0.0 0.0 0.0
442 1 28.779367484 59.7936354472 0.0 0.0 0.0 0.0
443 1 33.909067484 59.6912354472 0.0 0.0 0.0 0.0
444 1 38.938167484 59.8247354472 0.0 0.0 0.0 0.0
445 1 44.947867484 59.7999354472 0.0 0.0 0.0 0.0
446 1 50.554667484 59.1074354472 0.0 0.0 0.0 0.0
447 1 55.538867484 58.7948354472 0.0 0.0 0.0 0.0
448 1 60.730667484 58.7479354472 0.0 0.0 0.0 0.0
449 1 66.187967484 58.3673354472 0.0 0.0 0.0 0.0
450 1 71.200167484 57.7368354472 0.0 0.0 0.0 0.0
451 1 76.064167484 62.7718354472 0.0 0.0 0.0 0.0
452 1 6.02533748404 62.6531354472 0.0 0.0 0.0 0.0
453 1 10.757867484 61.5476354472 0.0 0.0 0.0 0.0
454 1 15.549167484 61.2063354472 0.0 0.0 0.0 0.0
455 1 22.192167484 65.2080354472 0.0 0.0 0.0 0.0
456 1 26.583667484 64.6478354472 0.0 0.0 0.0 0.0
457 1 31.636567484 64.1337354472 0.0 0.0 0.0 0.0
458 1 36.748867484 64.3188354472 0.0 0.0 0.0 0.0
459 1 42.056167484 64.2397354472 0.0 0.0 0.0 0.0
460 1 47.548667484 63.5296354472 0.0 0.0 0.0 0.0
461 1 52.841967484 63.4818354472 0.0 0.0 0.0 0.0
462 1 57.934967484 63.3374354472 0.0 0.0 0.0 0.0
463 1 62.930667484 63.5142354472 0.0 0.0 0.0 0.0
464 1 65.938667484 63.3132354472 0.0 0.0 0.0 0.0
465 1 73.049267484 62.7630354472 0.0 0.0 0.0 0.0
466 1 72.144467484 68.1885354472 0.0 0.0 0.0 0.0
467 1 5.48200748404 68.3370354472 0.0 0.0 0.0 0.0
468 1 9.70646748404 66.8480354472 0.0 0.0 0.0 0.0
469 1 14.433067484 63.9769354472 0.0 0.0 0.0 0.0
470 1 16.892767484 68.1529354472 0.0 0.0 0.0 0.0
471 1 21.830867484 68.2266354472 0.0 0.0 0.0 0.0
472 1 29.742667484 68.8099354472 0.0 0.0 0.0 0.0
473 1 35.225067484 66.9207354472 0.0 0.0 0.0 0.0
474 1 39.748767484 69.7595354472 0.0 0.0 0.0 0.0
475 1 42.722467484 69.3308354472 0.0 0.0 0.0 0.0
476 1 49.586067484 67.8932354472 0.0 0.0 0.0 0.0
477 1 54.869367484 67.8226354472 0.0 0.0 0.0 0.0
478 1 59.713067484 68.3083354472 0.0 0.0 0.0 0.0
479 1 64.535167484 67.9742354472 0.0 0.0 0.0 0.0
480 1 69.135067484 68.1711354472 0.0 0.0 0.0 0.0
481 1 0.856857484045 70.6781354472 0.0 0.0 0.0 0.0
482 1 7.31143748404 70.8239354472 0.0 0.0 0.0 0.0
483 1 10.230767484 71.7258354472 0.0 0.0 0.0 0.0
484 1 17.036867484 71.9248354472 0.0 0.0 0.0 0.0
485 1 24.548967484 69.5318354472 0.0 0.0 0.0 0.0
486 1 27.553467484 73.2947354472 0.0 0.0 0.0 0.0
487 1 32.606167484 73.5778354472 0.0 0.0 0.0 0.0
488 1 37.323067484 74.2026354472 0.0 0.0 0.0 0.0
489 1 42.687267484 73.8722354472 0.0 0.0 0.0 0.0
490 1 47.415367484 72.8318354472 0.0 0.0 0.0 0.0
491 1 52.305467484 72.3739354472 0.0 0.0 0.0 0.0
492 1 57.168567484 72.7503354472 0.0 0.0 0.0 0.0
493 1 62.324867484 72.9946354472 0.0 0.0 0.0 0.0
494 1 67.540067484 70.7209354472 0.0 0.0 0.0 0.0
495 1 72.131367484 72.6773354472 0.0 0.0 0.0 0.0
496 1 75.987867484 75.8586354472 0.0 0.0 0.0 0.0
497 1 4.19684748404 75.2740354472 0.0 0.0 0.0 0.0
498 1 9.13426748404 75.7312354472 0.0 0.0 0.0 0.0
499 1 14.314467484 76.1226354472 0.0 0.0 0.0 0.0
500 1 19.918867484 76.1607354472 0.0 0.0 0.0 0.0
501 1 25.074867484 76.8156354472 0.0 0.0 0.0 0.0
502 1 30.417767484 78.1093354472 0.0 0.0 0.0 0.0
503 1 35.191967484 78.6940354472 0.0 0.0 0.0 0.0
504 1 40.505867484 78.3550354472 0.0 0.0 0.0 0.0
505 1 45.917167484 77.7698354472 0.0 0.0 0.0 0.0
506 1 50.705667484 77.3372354472 0.0 0.0 0.0 0.0
507 1 55.915567484 75.4843354472 0.0 0.0 0.0 0.0
508 1 60.129967484 77.9093354472 0.0 0.0 0.0 0.0
509 1 65.245167484 77.2405354472 0.0 0.0 0.0 0.0
510 1 70.629367484 77.3472354472 0.0 0.0 0.0 0.0
511 1 4.67976748404 78.2595354472 0.0 0.0 0.0 0.0
512 1 9.37606748404 78.7313354472 0.0 0.0 0.0 0.0
513 1 14.444067484 79.1800354472 0.0 0.0 0.0 0.0
514 1 19.627567484 79.1838354472 0.0 0.0 0.0 0.0
515 1 25.054067484 79.8054354472 0.0 0.0 0.0 0.0
516 1 30.557667484 81.1317354472 0.0 0.0 0.0 0.0
517 1 35.896967484 81.6407354472 0.0 0.0 0.0 0.0
518 1 40.933767484 81.3143354472 0.0 0.0 0.0 0.0
519 1 45.953167484 80.7636354472 0.0 0.0 0.0 0.0
520 1 50.813167484 80.3522354472 0.0 0.0 0.0 0.0
521 1 55.689167484 80.8940354472 0.0 0.0 0.0 0.0
522 1 60.665167484 80.8611354472 0.0 0.0 0.0 0.0
523 1 65.880467484 80.1866354472 0.0 0.0 0.0 0.0
524 1 71.141967484 80.2956354472 0.0 0.0 0.0 0.0
525 1 76.056967484 78.8598354472 0.0 0.0 0.0 0.0
526 1 2.41923748404 80.2204354472 0.0 0.0 0.0 0.0
527 1 6.84689748404 80.3523354472 0.0 0.0 0.0 0.0
528 1 11.745567484 80.5805354472 0.0 0.0 0.0 0.0
529 1 17.044667484 80.7800354472 0.0 0.0 0.0 0.0
530 1 22.202967484 80.7742354472 0.0 0.0 0.0 0.0
531 1 27.545867484 81.5057354472 0.0 0.0 0.0 0.0
532 1 33.116267484 82.8127354472 0.0 0.0 0.0 0.0
533 1 38.560667484 83.1379354472 0.0 0.0 0.0 0.0
534 1 43.626867484 82.6446354472 0.0 0.0 0.0 0.0
535 1 48.515867484 82.2960354472 0.0 0.0 0.0 0.0
536 1 53.038867484 82.3668354472 0.0 0.0 0.0 0.0
537 1 58.185667484 82.5586354472 0.0 0.0 0.0 0.0
538 1 63.455567484 81.9561354472 0.0 0.0 0.0 0.0
539 1 68.491367484 81.6912354472 0.0 0.0 0.0 0.0
540 1 74.037367484 81.0790354472 0.0 0.0 0.0 0.0
541 2 2.44748748404 81.7186354472 0.0 0.0 0.0 0.0
542 2 3.44559748404 0.933217447213 0.0 0.0 0.0 0.0
543 2 0.809667484045 0.267301447213 0.0 0.0 0.0 0.0
544 2 6.86354748404 81.8606354472 0.0 0.0 0.0 0.0
545 2 8.63286748404 0.130012447213 0.0 0.0 0.0 0.0
546 2 5.93504748404 1.12303644721 0.0 0.0 0.0 0.0
547 2 11.031067484 1.14579244721 0.0 0.0 0.0 0.0
548 2 13.432167484 2.20573544721 0.0 0.0 0.0 0.0
549 2 11.050067484 3.61768544721 0.0 0.0 0.0 0.0
550 2 17.276367484 82.2872354472 0.0 0.0 0.0 0.0
551 2 18.876667484 1.27668544721 0.0 0.0 0.0 0.0
552 2 16.199867484 1.33091844721 0.0 0.0 0.0 0.0
553 2 22.462067484 82.2569354472 0.0 0.0 0.0 0.0
554 2 24.372867484 0.728355447213 0.0 0.0 0.0 0.0
555 2 21.575467484 1.25027644721 0.0 0.0 0.0 0.0
556 2 26.978667484 1.83105544721 0.0 0.0 0.0 0.0
557 2 29.574267484 3.04746544721 0.0 0.0 0.0 0.0
558 2 27.221067484 4.12667544721 0.0 0.0 0.0 0.0
559 2 33.517367484 1.03740244721 0.0 0.0 0.0 0.0
560 2 35.155067484 3.38572544721 0.0 0.0 0.0 0.0
561 2 32.452567484 2.98890544721 0.0 0.0 0.0 0.0
562 2 39.987867484 3.53700544721 0.0 0.0 0.0 0.0
563 2 39.501067484 1.10555744721 0.0 0.0 0.0 0.0
564 2 42.104667484 2.36160544721 0.0 0.0 0.0 0.0
565 2 43.751967484 0.898187447213 0.0 0.0 0.0 0.0
566 2 44.870967484 3.28685544721 0.0 0.0 0.0 0.0
567 2 48.441267484 0.556862447213 0.0 0.0 0.0 0.0
568 2 50.070567484 2.02257544721 0.0 0.0 0.0 0.0
569 2 47.424367484 3.08997544721 0.0 0.0 0.0 0.0
570 2 52.187567484 3.16568544721 0.0 0.0 0.0 0.0
571 2 54.317867484 4.19246544721 0.0 0.0 0.0 0.0
572 2 52.191567484 5.89230544721 0.0 0.0 0.0 0.0
573 2 58.232567484 0.819996447213 0.0 0.0 0.0 0.0
574 2 59.708867484 2.88411544721 0.0 0.0 0.0 0.0
575 2 57.004067484 3.07571544721 0.0 0.0 0.0 0.0
576 2 63.555467484 0.214982447213 0.0 0.0 0.0 0.0
577 2 65.000267484 2.32038544721 0.0 0.0 0.0 0.0
578 2 62.359367484 2.51126544721 0.0 0.0 0.0 0.0
579 2 68.734867484 83.1731354472 0.0 0.0 0.0 0.0
580 2 70.259367484 2.21138544721 0.0 0.0 0.0 0.0
581 2 67.667067484 2.15336544721 0.0 0.0 0.0 0.0
582 2 74.985267484 1.76376544721 0.0 0.0 0.0 0.0
583 2 74.757867484 82.3980354472 0.0 0.0 0.0 0.0
584 2 75.433267484 4.23136544721 0.0 0.0 0.0 0.0
585 2 1.65751748404 4.94965544721 0.0 0.0 0.0 0.0
586 2 75.625267484 6.59303544721 0.0 0.0 0.0 0.0
587 2 4.00315748404 5.83670544721 0.0 0.0 0.0 0.0
588 2 6.36419748404 6.79974544721 0.0 0.0 0.0 0.0
589 2 4.26166748404 8.47596544721 0.0 0.0 0.0 0.0
590 2 11.655667484 5.77556544721 0.0 0.0 0.0 0.0
591 2 9.05416748404 5.76366544721 0.0 0.0 0.0 0.0
592 2 15.399867484 3.65147544721 0.0 0.0 0.0 0.0
593 2 17.091767484 5.70619544721 0.0 0.0 0.0 0.0
594 2 14.364767484 5.82765544721 0.0 0.0 0.0 0.0
595 2 20.692467484 3.43004544721 0.0 0.0 0.0 0.0
596 2 22.401667484 5.72173544721 0.0 0.0 0.0 0.0
597 2 19.805867484 5.61902544721 0.0 0.0 0.0 0.0
598 2 25.015367484 5.83323544721 0.0 0.0 0.0 0.0
599 2 27.479367484 6.50620544721 0.0 0.0 0.0 0.0
600 2 31.254767484 4.97489544721 0.0 0.0 0.0 0.0
601 2 32.458367484 7.50664544721 0.0 0.0 0.0 0.0
602 2 30.001767484 7.01779544721 0.0 0.0 0.0 0.0
603 2 36.167367484 5.88825544721 0.0 0.0 0.0 0.0
604 2 37.477867484 8.23809544721 0.0 0.0 0.0 0.0
605 2 34.887867484 8.03450544721 0.0 0.0 0.0 0.0
606 2 40.322367484 6.03814544721 0.0 0.0 0.0 0.0
607 2 42.546067484 7.97019544721 0.0 0.0 0.0 0.0
608 2 40.004167484 8.26865544721 0.0 0.0 0.0 0.0