ITEM: TIMESTEP
0
ITEM: NUMBER OF ATOMS
1350
ITEM: BOX BOUNDS xy xz yz pp pp pp
0.0 75.9335593913 0
0.0 83.7355617257 0
-10.0 10.0 0
ITEM: ATOMS id type x y z vx vy vz
1 1 6.18352747251 1.18718686285 0.0 0.0 0.0 0.0
2 1 9.07331747251 0.448656862854 0.0 0.0 0.0 0.0
3 1 14.1195174725 0.285470862854 0.0 0.0 0.0 0.0
4 1 18.7681174725 2.80565086285 0.0 0.0 0.0 0.0
5 1 24.2416174725 1.80855086285 0.0 0.0 0.0 0.0
6 1 28.8477174725 1.87168086285 0.0 0.0 0.0 0.0
7 1 36.3079174725 1.36579586285 0.0 0.0 0.0 0.0
8 1 39.3030174725 1.43789486285 0.0 0.0 0.0 0.0
9 1 43.7282174725 1.47955286285 0.0 0.0 0.0 0.0
10 1 48.9230174725 1.81998086285 0.0 0.0 0.0 0.0
11 1 53.9671174725 2.98226086285 0.0 0.0 0.0 0.0
12 1 61.3855174725 2.07503086285 0.0 0.0 0.0 0.0
13 1 64.3786174725 1.62437086285 0.0 0.0 0.0 0.0
14 1 69.3149174725 1.42574986285 0.0 0.0 0.0 0.0
15 1 74.7715174725 1.12422486285 0.0 0.0 0.0 0.0
16 1 1.13837747251 5.99788086285 0.0 0.0 0.0 0.0
17 1 5.89384747251 5.95008086285 0.0 0.0 0.0 0.0
18 1 11.0434174725 4.88286086285 0.0 0.0 0.0 0.0
19 1 16.6910174725 4.96262086285 0.0 0.0 0.0 0.0
20 1 21.1687174725 6.40008086285 0.0 0.0 0.0 0.0
21 1 25.8297174725 6.73391086285 0.0 0.0 0.0 0.0
22 1 30.1890174725 6.45810086285 0.0 0.0 0.0 0.0
23 1 35.3804174725 6.30175086285 0.0 0.0 0.0 0.0
24 1 41.7095174725 6.56232086285 0.0 0.0 0.0 0.0
25 1 46.4291174725 6.17324086285 0.0 0.0 0.0 0.0
26 1 50.1367174725 9.37374086285 0.0 0.0 0.0 0.0
27 1 55.5859174725 7.49760086285 0.0 0.0 0.0 0.0
28 1 61.1619174725 7.00986086285 0.0 0.0 0.0 0.0
29 1 66.5787174725 6.33889086285 0.0 0.0 0.0 0.0
30 1 71.7291174725 5.57034086285 0.0 0.0 0.0 0.0
31 1 3.77971747251 10.8092808629 0.0 0.0 0.0 0.0
32 1 10.4295174725 9.36614086285 0.0 0.0 0.0 0.0
33 1 13.3974174725 8.86684086285 0.0 0.0 0.0 0.0
34 1 17.2895174725 12.4400808629 0.0 0.0 0.0 0.0
35 1 22.9752174725 11.4391808629 0.0 0.0 0.0 0.0
36 1 28.2688174725 11.6671808629 0.0 0.0 0.0 0.0
37 1 32.8485174725 10.8194808629 0.0 0.0 0.0 0.0
38 1 37.1641174725 8.70157086285 0.0 0.0 0.0 0.0
39 1 43.6068174725 11.2228808629 0.0 0.0 0.0 0.0
40 1 48.4839174725 11.9274808629 0.0 0.0 0.0 0.0
41 1 53.2309174725 12.3335808629 0.0 0.0 0.0 0.0
42 1 58.2308174725 11.3433808629 0.0 0.0 0.0 0.0
43 1 63.7087174725 11.0728808629 0.0 0.0 0.0 0.0
44 1 71.0454174725 10.0274608629 0.0 0.0 0.0 0.0
45 1 74.0722174725 10.1133708629 0.0 0.0 0.0 0.0
46 1 0.599177472511 14.5169808629 0.0 0.0 0.0 0.0
47 1 5.69479747251 15.1205808629 0.0 0.0 0.0 0.0
48 1 11.9749174725 14.0505808629 0.0 0.0 0.0 0.0
49 1 15.0035174725 14.4046808629 0.0 0.0 0.0 0.0
50 1 20.1277174725 15.7992808629 0.0 0.0 0.0 0.0
51 1 25.7441174725 16.0014808629 0.0 0.0 0.0 0.0
52 1 33.0704174725 15.2278808629 0.0 0.0 0.0 0.0
53 1 35.9830174725 14.3561808629 0.0 0.0 0.0 0.0
54 1 39.4781174725 17.6818808629 0.0 0.0 0.0 0.0
55 1 45.0419174725 16.2795808629 0.0 0.0 0.0 0.0
56 1 50.2136174725 16.9235808629 0.0 0.0 0.0 0.0
57 1 57.4203174725 16.0162808629 0.0 0.0 0.0 0.0
58 1 60.3388174725 15.3266808629 0.0 0.0 0.0 0.0
59 1 64.5664174725 13.9806808629 0.0 0.0 0.0 0.0
60 1 71.4032174725 15.5128808629 0.0 0.0 0.0 0.0
61 1 2.23634747251 19.2721808629 0.0 0.0 0.0 0.0
62 1 6.85597747251 20.0465808629 0.0 0.0 0.0 0.0
63 1 11.7144174725 19.6732808629 0.0 0.0 0.0 0.0
64 1 17.0536174725 19.5033808629 0.0 0.0 0.0 0.0
65 1 22.4836174725 19.9827808629 0.0 0.0 0.0 0.0
66 1 27.6987174725 20.5144808629 0.0 0.0 0.0 0.0
67 1 32.6074174725 20.4598808629 0.0 0.0 0.0 0.0
68 1 37.8330174725 20.2771808629 0.0 0.0 0.0 0.0
69 1 42.5496174725 20.9791808629 0.0 0.0 0.0 0.0
70 1 47.4341174725 21.1547808629 0.0 0.0 0.0 0.0
71 1 52.3620174725 21.6604808629 0.0 0.0 0.0 0.0
72 1 57.2398174725 20.9773808629 0.0 0.0 0.0 0.0
73 1 62.7056174725 19.6075808629 0.0 0.0 0.0 0.0
74 1 68.1132174725 20.0259808629 0.0 0.0 0.0 0.0
75 1 75.1764174725 19.2908808629 0.0 0.0 0.0 0.0
76 1 74.9634174725 24.4709808629 0.0 0.0 0.0 0.0
77 1 4.24642747251 24.5137808629 0.0 0.0 0.0 0.0
78 1 9.03121747251 24.5705808629 0.0 0.0 0.0 0.0
79 1 14.1309174725 23.9375808629 0.0 0.0 0.0 0.0
80 1 19.6518174725 24.0083808629 0.0 0.0 0.0 0.0
81 1 24.6787174725 24.6961808629 0.0 0.0 0.0 0.0
82 1 29.7931174725 25.2009808629 0.0 0.0 0.0 0.0
83 1 34.6370174725 24.9231808629 0.0 0.0 0.0 0.0
84 1 39.6717174725 25.4643808629 0.0 0.0 0.0 0.0
85 1 44.7815174725 25.8343808629 0.0 0.0 0.0 0.0
86 1 49.8515174725 26.1219808629 0.0 0.0 0.0 0.0
87 1 54.9537174725 26.0279808629 0.0 0.0 0.0 0.0
88 1 59.9684174725 24.3570808629 0.0 0.0 0.0 0.0
89 1 65.0160174725 24.1190808629 0.0 0.0 0.0 0.0
90 1 69.9553174725 24.7082808629 0.0 0.0 0.0 0.0
91 1 2.00383747251 28.9694808629 0.0 0.0 0.0 0.0
92 1 6.92534747251 29.3712808629 0.0 0.0 0.0 0.0
93 1 11.4292174725 28.7741808629 0.0 0.0 0.0 0.0
94 1 16.8185174725 28.1220808629 0.0 0.0 0.0 0.0
95 1 21.7723174725 28.9476808629 0.0 0.0 0.0 0.0
96 1 26.4759174725 29.4438808629 0.0 0.0 0.0 0.0
97 1 31.4238174725 29.7964808629 0.0 0.0 0.0 0.0
98 1 36.6404174725 29.8338808629 0.0 0.0 0.0 0.0
99 1 42.0074174725 30.2606808629 0.0 0.0 0.0 0.0
100 1 47.1322174725 30.6203808629 0.0 0.0 0.0 0.0
101 1 52.1928174725 30.6946808629 0.0 0.0 0.0 0.0
102 1 59.1876174725 29.2663808629 0.0 0.0 0.0 0.0
103 1 62.1528174725 28.8234808629 0.0 0.0 0.0 0.0
104 1 67.0926174725 29.0648808629 0.0 0.0 0.0 0.0
105 1 72.4765174725 29.2100808629 0.0 0.0 0.0 0.0
106 1 75.2160174725 33.3099808629 0.0 0.0 0.0 0.0
107 1 4.56776747251 33.8976808629 0.0 0.0 0.0 0.0
108 1 10.0980174725 33.9968808629 0.0 0.0 0.0 0.0
109 1 14.8013174725 32.6126808629 0.0 0.0 0.0 0.0
110 1 18.4843174725 35.7617808629 0.0 0.0 0.0 0.0
111 1 23.8997174725 34.0523808629 0.0 0.0 0.0 0.0
112 1 28.4591174725 36.3495808629 0.0 0.0 0.0 0.0
113 1 33.7246174725 34.3433808629 0.0 0.0 0.0 0.0
114 1 39.1109174725 34.4282808629 0.0 0.0 0.0 0.0
115 1 44.5161174725 35.0546808629 0.0 0.0 0.0 0.0
116 1 49.2839174725 35.3240808629 0.0 0.0 0.0 0.0
117 1 54.4895174725 35.2919808629 0.0 0.0 0.0 0.0
118 1 59.2263174725 34.4714808629 0.0 0.0 0.0 0.0
119 1 64.6029174725 33.6472808629 0.0 0.0 0.0 0.0
120 1 69.7716174725 33.4548808629 0.0 0.0 0.0 0.0
121 1 1.36500747251 40.0089808629 0.0 0.0 0.0 0.0
122 1 6.99391747251 38.1842808629 0.0 0.0 0.0 0.0
123 1 14.9654174725 39.5711808629 0.0 0.0 0.0 0.0
124 1 15.5557174725 36.6249808629 0.0 0.0 0.0 0.0
125 1 21.8242174725 39.0010808629 0.0 0.0 0.0 0.0
126 1 27.1422174725 39.0584808629 0.0 0.0 0.0 0.0
127 1 31.8039174725 39.3459808629 0.0 0.0 0.0 0.0
128 1 36.1143174725 38.7319808629 0.0 0.0 0.0 0.0
129 1 41.2349174725 39.0003808629 0.0 0.0 0.0 0.0
130 1 46.8448174725 40.1028808629 0.0 0.0 0.0 0.0
131 1 52.3547174725 39.7899808629 0.0 0.0 0.0 0.0
132 1 57.6381174725 39.6210808629 0.0 0.0 0.0 0.0
133 1 62.5911174725 38.2797808629 0.0 0.0 0.0 0.0
134 1 67.8492174725 38.0235808629 0.0 0.0 0.0 0.0
135 1 72.8588174725 37.6263808629 0.0 0.0 0.0 0.0
136 1 75.6243174725 42.5138808629 0.0 0.0 0.0 0.0
137 1 4.75258747251 42.6146808629 0.0 0.0 0.0 0.0
138 1 8.70821747251 45.5438808629 0.0 0.0 0.0 0.0
139 1 13.0889174725 43.6885808629 0.0 0.0 0.0 0.0
140 1 17.1166174725 41.6778808629 0.0 0.0 0.0 0.0
141 1 24.1910174725 43.4262808629 0.0 0.0 0.0 0.0
142 1 29.6095174725 44.0692808629 0.0 0.0 0.0 0.0
143 1 34.7973174725 44.0491808629 0.0 0.0 0.0 0.0
144 1 39.4385174725 43.2647808629 0.0 0.0 0.0 0.0
145 1 44.6849174725 45.5538808629 0.0 0.0 0.0 0.0
146 1 50.0941174725 44.1301808629 0.0 0.0 0.0 0.0
147 1 55.4346174725 44.1388808629 0.0 0.0 0.0 0.0
148 1 62.1267174725 43.0055808629 0.0 0.0 0.0 0.0
149 1 65.1022174725 42.5876808629 0.0 0.0 0.0 0.0
150 1 70.1681174725 42.4868808629 0.0 0.0 0.0 0.0
151 1 1.77208747251 47.1323808629 0.0 0.0 0.0 0.0
152 1 7.33152747251 48.1870808629 0.0 0.0 0.0 0.0
153 1 12.0485174725 49.2547808629 0.0 0.0 0.0 0.0
154 1 16.8845174725 47.3412808629 0.0 0.0 0.0 0.0
155 1 21.3435174725 49.5704808629 0.0 0.0 0.0 0.0
156 1 26.9239174725 48.0014808629 0.0 0.0 0.0 0.0
157 1 32.4957174725 48.6087808629 0.0 0.0 0.0 0.0
158 1 37.8092174725 48.5305808629 0.0 0.0 0.0 0.0
159 1 43.1574174725 48.1994808629 0.0 0.0 0.0 0.0
160 1 47.9220174725 48.8664808629 0.0 0.0 0.0 0.0
161 1 52.7702174725 48.5200808629 0.0 0.0 0.0 0.0
162 1 57.5461174725 49.0014808629 0.0 0.0 0.0 0.0
163 1 62.2205174725 48.3271808629 0.0 0.0 0.0 0.0
164 1 67.3489174725 47.1845808629 0.0 0.0 0.0 0.0
165 1 72.4736174725 46.7791808629 0.0 0.0 0.0 0.0
166 1 75.0023174725 51.4128808629 0.0 0.0 0.0 0.0
167 1 4.36606747251 51.5911808629 0.0 0.0 0.0 0.0
168 1 7.07656747251 55.6168808629 0.0 0.0 0.0 0.0
169 1 15.2534174725 52.7472808629 0.0 0.0 0.0 0.0
170 1 20.5225174725 52.4730808629 0.0 0.0 0.0 0.0
171 1 25.2848174725 52.3950808629 0.0 0.0 0.0 0.0
172 1 29.6564174725 54.7669808629 0.0 0.0 0.0 0.0
173 1 35.1478174725 53.0735808629 0.0 0.0 0.0 0.0
174 1 40.9607174725 52.8249808629 0.0 0.0 0.0 0.0
175 1 46.2327174725 53.1864808629 0.0 0.0 0.0 0.0
176 1 50.7918174725 53.4023808629 0.0 0.0 0.0 0.0
177 1 55.0582174725 56.0045808629 0.0 0.0 0.0 0.0
178 1 60.1633174725 53.4994808629 0.0 0.0 0.0 0.0
179 1 65.1473174725 52.2202808629 0.0 0.0 0.0 0.0
180 1 70.0471174725 51.5614808629 0.0 0.0 0.0 0.0
181 1 1.96127747251 55.8720808629 0.0 0.0 0.0 0.0
182 1 10.0791174725 55.7407808629 0.0 0.0 0.0 0.0
183 1 13.6538174725 57.5107808629 0.0 0.0 0.0 0.0
184 1 18.4636174725 57.0535808629 0.0 0.0 0.0 0.0
185 1 23.1097174725 57.2654808629 0.0 0.0 0.0 0.0
186 1 28.2688174725 57.4248808629 0.0 0.0 0.0 0.0
187 1 33.2865174725 57.6593808629 0.0 0.0 0.0 0.0
188 1 36.7613174725 55.6355808629 0.0 0.0 0.0 0.0
189 1 43.6245174725 57.4077808629 0.0 0.0 0.0 0.0
190 1 48.5412174725 58.2823808629 0.0 0.0 0.0 0.0
191 1 53.6982174725 58.6932808629 0.0 0.0 0.0 0.0
192 1 58.6036174725 58.5790808629 0.0 0.0 0.0 0.0
193 1 63.2882174725 57.3825808629 0.0 0.0 0.0 0.0
194 1 68.2351174725 56.5757808629 0.0 0.0 0.0 0.0
195 1 72.8226174725 56.1724808629 0.0 0.0 0.0 0.0
196 1 0.0676874725113 60.5574808629 0.0 0.0 0.0 0.0
197 1 4.33401747251 62.5924808629 0.0 0.0 0.0 0.0
198 1 10.0930174725 61.5032808629 0.0 0.0 0.0 0.0
199 1 15.7395174725 61.9988808629 0.0 0.0 0.0 0.0
200 1 20.6434174725 62.0923808629 0.0 0.0 0.0 0.0
201 1 25.4889174725 61.8695808629 0.0 0.0 0.0 0.0
202 1 31.0740174725 62.1189808629 0.0 0.0 0.0 0.0
203 1 36.6577174725 61.5812808629 0.0 0.0 0.0 0.0
204 1 41.0373174725 61.4679808629 0.0 0.0 0.0 0.0
205 1 45.3481174725 64.6429808629 0.0 0.0 0.0 0.0
206 1 51.0325174725 63.0681808629 0.0 0.0 0.0 0.0
207 1 56.4406174725 63.3574808629 0.0 0.0 0.0 0.0
208 1 61.4454174725 62.7181808629 0.0 0.0 0.0 0.0
209 1 66.3658174725 61.5877808629 0.0 0.0 0.0 0.0
210 1 71.1580174725 61.2819808629 0.0 0.0 0.0 0.0
211 1 2.53763747251 65.0090808629 0.0 0.0 0.0 0.0
212 1 7.46000747251 65.6999808629 0.0 0.0 0.0 0.0
213 1 12.7989174725 65.7568808629 0.0 0.0 0.0 0.0
214 1 17.8412174725 66.8015808629 0.0 0.0 0.0 0.0
215 1 23.3518174725 66.7943808629 0.0 0.0 0.0 0.0
216 1 28.2425174725 66.0713808629 0.0 0.0 0.0 0.0
217 1 33.8927174725 65.9310808629 0.0 0.0 0.0 0.0
218 1 38.7925174725 66.7033808629 0.0 0.0 0.0 0.0
219 1 43.7448174725 67.2216808629 0.0 0.0 0.0 0.0
220 1 49.0120174725 67.4793808629 0.0 0.0 0.0 0.0
221 1 54.4616174725 67.4870808629 0.0 0.0 0.0 0.0
222 1 59.7796174725 67.6375808629 0.0 0.0 0.0 0.0
223 1 65.3101174725 66.5558808629 0.0 0.0 0.0 0.0
224 1 68.3335174725 66.2170808629 0.0 0.0 0.0 0.0
225 1 73.4538174725 65.6803808629 0.0 0.0 0.0 0.0
226 1 0.988217472511 69.9073808629 0.0 0.0 0.0 0.0
227 1 6.94990747251 70.7858808629 0.0 0.0 0.0 0.0
228 1 9.91631747251 70.0634808629 0.0 0.0 0.0 0.0
229 1 14.9952174725 72.2791808629 0.0 0.0 0.0 0.0
230 1 20.7776174725 71.0526808629 0.0 0.0 0.0 0.0
231 1 28.0609174725 70.4321808629 0.0 0.0 0.0 0.0
232 1 31.0647174725 69.9931808629 0.0 0.0 0.0 0.0
233 1 34.5371174725 73.3190808629 0.0 0.0 0.0 0.0
234 1 41.1002174725 71.7990808629 0.0 0.0 0.0 0.0
235 1 46.3230174725 71.7884808629 0.0 0.0 0.0 0.0
236 1 51.5117174725 71.7508808629 0.0 0.0 0.0 0.0
237 1 56.4097174725 72.0037808629 0.0 0.0 0.0 0.0
238 1 61.4959174725 73.1716808629 0.0 0.0 0.0 0.0
239 1 66.4064174725 72.4308808629 0.0 0.0 0.0 0.0
240 1 71.6665174725 70.5245808629 0.0 0.0 0.0 0.0
241 1 3.59837747251 75.2558808629 0.0 0.0 0.0 0.0
242 1 7.89422747251 76.0660808629 0.0 0.0 0.0 0.0
243 1 13.4113174725 74.8346808629 0.0 0.0 0.0 0.0
244 1 18.2636174725 75.2692808629 0.0 0.0 0.0 0.0
245 1 23.0376174725 75.5521808629 0.0 0.0 0.0 0.0
246 1 27.6127174725 75.7109808629 0.0 0.0 0.0 0.0
247 1 32.6312174725 75.6352808629 0.0 0.0 0.0 0.0
248 1 36.8976174725 75.1845808629 0.0 0.0 0.0 0.0
249 1 44.2509174725 76.2501808629 0.0 0.0 0.0 0.0
250 1 49.3165174725 76.2415808629 0.0 0.0 0.0 0.0
251 1 53.4043174725 79.0424808629 0.0 0.0 0.0 0.0
252 1 58.3537174725 77.0451808629 0.0 0.0 0.0 0.0
253 1 62.7961174725 75.8687808629 0.0 0.0 0.0 0.0
254 1 69.8675174725 75.5594808629 0.0 0.0 0.0 0.0
255 1 74.3336174725 74.7575808629 0.0 0.0 0.0 0.0
256 1 1.24094747251 2.98903086285 0.0 0.0 0.0 0.0
257 1 4.22477747251 3.43646086285 0.0 0.0 0.0 0.0
258 1 11.6433174725 1.96047086285 0.0 0.0 0.0 0.0
259 1 17.1161174725 0.326272862854 0.0 0.0 0.0 0.0
260 1 21.6988174725 3.43161086285 0.0 0.0 0.0 0.0
261 1 26.5009174725 3.78060086285 0.0 0.0 0.0 0.0
262 1 31.2452174725 3.65138086285 0.0 0.0 0.0 0.0
263 1 34.2463174725 3.53217086285 0.0 0.0 0.0 0.0
264 1 41.4890174725 3.51886086285 0.0 0.0 0.0 0.0
265 1 46.2258174725 3.16404086285 0.0 0.0 0.0 0.0
266 1 51.0868174725 3.92075086285 0.0 0.0 0.0 0.0
267 1 56.4998174725 4.62890086285 0.0 0.0 0.0 0.0
268 1 59.5420174725 4.45895086285 0.0 0.0 0.0 0.0
269 1 66.8992174725 3.30129086285 0.0 0.0 0.0 0.0
270 1 72.1067174725 2.57948086285 0.0 0.0 0.0 0.0
271 1 3.54998747251 7.81094086285 0.0 0.0 0.0 0.0
272 1 8.77571747251 6.84526086285 0.0 0.0 0.0 0.0
273 1 13.8506174725 5.90785086285 0.0 0.0 0.0 0.0
274 1 18.3533174725 7.44570086285 0.0 0.0 0.0 0.0
275 1 23.3557174725 8.44618086285 0.0 0.0 0.0 0.0
276 1 28.1372174725 8.64846086285 0.0 0.0 0.0 0.0
277 1 32.8220174725 7.84328086285 0.0 0.0 0.0 0.0
278 1 40.1166174725 9.13841086285 0.0 0.0 0.0 0.0
279 1 44.2176174725 8.23654086285 0.0 0.0 0.0 0.0
280 1 49.4270174725 6.45033086285 0.0 0.0 0.0 0.0
281 1 53.1600174725 9.32911086285 0.0 0.0 0.0 0.0
282 1 58.4687174725 8.37263086285 0.0 0.0 0.0 0.0
283 1 64.0329174725 8.04181086285 0.0 0.0 0.0 0.0
284 1 69.3954174725 7.48216086285 0.0 0.0 0.0 0.0
285 1 74.2996174725 7.12707086285 0.0 0.0 0.0 0.0
286 1 0.826157472511 11.5247808629 0.0 0.0 0.0 0.0
287 1 6.47669747251 12.2258808629 0.0 0.0 0.0 0.0
288 1 9.52491747251 12.2300808629 0.0 0.0 0.0 0.0
289 1 16.2964174725 9.62778086285 0.0 0.0 0.0 0.0
290 1 20.2803174725 12.8049808629 0.0 0.0 0.0 0.0
291 1 25.5647174725 12.9946808629 0.0 0.0 0.0 0.0
292 1 30.9248174725 13.0997808629 0.0 0.0 0.0 0.0
293 1 35.7821174725 11.3658808629 0.0 0.0 0.0 0.0
294 1 40.7101174725 12.1172808629 0.0 0.0 0.0 0.0
295 1 45.7803174725 13.3187808629 0.0 0.0 0.0 0.0
296 1 50.7007174725 13.9550808629 0.0 0.0 0.0 0.0
297 1 56.0316174725 13.3696808629 0.0 0.0 0.0 0.0
298 1 61.0176174725 12.4020808629 0.0 0.0 0.0 0.0
299 1 67.5137174725 14.4696808629 0.0 0.0 0.0 0.0
300 1 70.0289174725 12.8512808629 0.0 0.0 0.0 0.0
301 1 2.96525747251 16.3581808629 0.0 0.0 0.0 0.0
302 1 7.83063747251 17.2130808629 0.0 0.0 0.0 0.0
303 1 10.8038174725 16.8174808629 0.0 0.0 0.0 0.0
304 1 17.1812174725 16.5033808629 0.0 0.0 0.0 0.0
305 1 22.8935174725 17.0133808629 0.0 0.0 0.0 0.0
306 1 28.3336174725 17.5784808629 0.0 0.0 0.0 0.0
307 1 31.3624174725 17.7078808629 0.0 0.0 0.0 0.0
308 1 38.9946174725 14.6752808629 0.0 0.0 0.0 0.0
309 1 42.4997174725 17.9613808629 0.0 0.0 0.0 0.0
310 1 47.4442174725 18.1276808629 0.0 0.0 0.0 0.0
311 1 52.6603174725 18.6750808629 0.0 0.0 0.0 0.0
312 1 55.6549174725 18.4321808629 0.0 0.0 0.0 0.0
313 1 63.0383174725 16.6023808629 0.0 0.0 0.0 0.0
314 1 68.8846174725 17.1278808629 0.0 0.0 0.0 0.0
315 1 74.2431174725 16.4448808629 0.0 0.0 0.0 0.0
316 1 73.5632174725 21.8102808629 0.0 0.0 0.0 0.0
317 1 4.23802747251 21.5062808629 0.0 0.0 0.0 0.0
318 1 9.41041747251 21.5984808629 0.0 0.0 0.0 0.0
319 1 14.4215174725 20.9490808629 0.0 0.0 0.0 0.0
320 1 19.6602174725 21.0067808629 0.0 0.0 0.0 0.0
321 1 24.9421174725 21.7067808629 0.0 0.0 0.0 0.0
322 1 30.1707174725 22.2200808629 0.0 0.0 0.0 0.0
323 1 35.2532174725 21.9200808629 0.0 0.0 0.0 0.0
324 1 39.9217174725 22.4499808629 0.0 0.0 0.0 0.0
325 1 44.9276174725 22.8182808629 0.0 0.0 0.0 0.0
326 1 49.7317174725 23.1068808629 0.0 0.0 0.0 0.0
327 1 55.0362174725 23.0244808629 0.0 0.0 0.0 0.0
328 1 60.2250174725 21.3530808629 0.0 0.0 0.0 0.0
329 1 65.3071174725 21.1257808629 0.0 0.0 0.0 0.0
330 1 70.5574174725 21.7753808629 0.0 0.0 0.0 0.0
331 1 1.63351747251 25.9795808629 0.0 0.0 0.0 0.0
332 1 6.62215747251 26.3642808629 0.0 0.0 0.0 0.0
333 1 11.7603174725 25.7912808629 0.0 0.0 0.0 0.0
334 1 16.8773174725 25.1348808629 0.0 0.0 0.0 0.0
335 1 21.9508174725 25.9467808629 0.0 0.0 0.0 0.0
336 1 27.0788174725 26.4969808629 0.0 0.0 0.0 0.0
337 1 32.2877174725 26.8715808629 0.0 0.0 0.0 0.0
338 1 36.9784174725 26.8259808629 0.0 0.0 0.0 0.0
339 1 42.1143174725 27.2397808629 0.0 0.0 0.0 0.0
340 1 47.2263174725 27.6028808629 0.0 0.0 0.0 0.0
341 1 52.4322174725 27.6839808629 0.0 0.0 0.0 0.0
342 1 57.9078174725 26.5517808629 0.0 0.0 0.0 0.0
343 1 62.5656174725 25.8487808629 0.0 0.0 0.0 0.0
344 1 67.2900174725 26.0699808629 0.0 0.0 0.0 0.0
345 1 72.5354174725 26.2220808629 0.0 0.0 0.0 0.0
346 1 75.2602174725 30.3209808629 0.0 0.0 0.0 0.0
347 1 4.33284747251 30.8874808629 0.0 0.0 0.0 0.0
348 1 9.44521747251 31.0334808629 0.0 0.0 0.0 0.0
349 1 14.2699174725 29.6788808629 0.0 0.0 0.0 0.0
350 1 19.0300174725 30.1355808629 0.0 0.0 0.0 0.0
351 1 23.9190174725 31.0375808629 0.0 0.0 0.0 0.0
352 1 28.7924174725 31.3447808629 0.0 0.0 0.0 0.0
353 1 34.0125174725 31.3395808629 0.0 0.0 0.0 0.0
354 1 39.2168174725 31.4153808629 0.0 0.0 0.0 0.0
355 1 44.4656174725 32.0299808629 0.0 0.0 0.0 0.0
356 1 49.6330174725 32.3112808629 0.0 0.0 0.0 0.0
357 1 54.7396174725 32.2996808629 0.0 0.0 0.0 0.0
358 1 57.7140174725 31.8767808629 0.0 0.0 0.0 0.0
359 1 64.5370174725 30.6435808629 0.0 0.0 0.0 0.0
360 1 69.7496174725 30.4611808629 0.0 0.0 0.0 0.0
361 1 1.75516747251 35.0087808629 0.0 0.0 0.0 0.0
362 1 7.30986747251 35.1904808629 0.0 0.0 0.0 0.0
363 1 12.9835174725 34.9893808629 0.0 0.0 0.0 0.0
364 1 17.7876174725 32.8562808629 0.0 0.0 0.0 0.0
365 1 21.5216174725 35.9949808629 0.0 0.0 0.0 0.0
366 1 26.9358174725 33.7637808629 0.0 0.0 0.0 0.0
367 1 31.4702174725 36.3552808629 0.0 0.0 0.0 0.0
368 1 36.3917174725 35.7380808629 0.0 0.0 0.0 0.0
369 1 41.6684174725 36.0298808629 0.0 0.0 0.0 0.0
370 1 46.7927174725 37.0531808629 0.0 0.0 0.0 0.0
371 1 51.9030174725 36.8147808629 0.0 0.0 0.0 0.0
372 1 57.1672174725 36.6543808629 0.0 0.0 0.0 0.0
373 1 62.1072174725 35.3147808629 0.0 0.0 0.0 0.0
374 1 67.2490174725 35.0783808629 0.0 0.0 0.0 0.0
375 1 72.5218174725 34.6487808629 0.0 0.0 0.0 0.0
376 1 75.8596174725 37.3997808629 0.0 0.0 0.0 0.0
377 1 4.35313747251 39.6474808629 0.0 0.0 0.0 0.0
378 1 9.28181747251 40.1454808629 0.0 0.0 0.0 0.0
379 1 12.2224174725 40.8056808629 0.0 0.0 0.0 0.0
380 1 20.1105174725 41.4845808629 0.0 0.0 0.0 0.0
381 1 24.4660174725 40.4231808629 0.0 0.0 0.0 0.0
382 1 29.3607174725 41.0748808629 0.0 0.0 0.0 0.0
383 1 34.2470174725 41.0783808629 0.0 0.0 0.0 0.0
384 1 38.5910174725 40.3901808629 0.0 0.0 0.0 0.0
385 1 42.0960174725 41.8649808629 0.0 0.0 0.0 0.0
386 1 49.6726174725 41.1564808629 0.0 0.0 0.0 0.0
387 1 55.0509174725 41.1539808629 0.0 0.0 0.0 0.0
388 1 60.5265174725 40.4605808629 0.0 0.0 0.0 0.0
389 1 65.2930174725 39.5933808629 0.0 0.0 0.0 0.0
390 1 70.4806174725 39.4844808629 0.0 0.0 0.0 0.0
391 1 2.18730747251 44.1729808629 0.0 0.0 0.0 0.0
392 1 7.74003747251 42.7209808629 0.0 0.0 0.0 0.0
393 1 11.5988174725 46.2855808629 0.0 0.0 0.0 0.0
394 1 15.9854174725 44.4620808629 0.0 0.0 0.0 0.0
395 1 21.2940174725 44.2636808629 0.0 0.0 0.0 0.0
396 1 26.7526174725 45.0113808629 0.0 0.0 0.0 0.0
397 1 32.2148174725 45.6028808629 0.0 0.0 0.0 0.0
398 1 37.4411174725 45.5220808629 0.0 0.0 0.0 0.0
399 1 45.0074174725 42.5355808629 0.0 0.0 0.0 0.0
400 1 47.6680174725 45.8974808629 0.0 0.0 0.0 0.0
401 1 52.7640174725 45.5163808629 0.0 0.0 0.0 0.0
402 1 57.7988174725 46.0055808629 0.0 0.0 0.0 0.0
403 1 60.7859174725 45.6859808629 0.0 0.0 0.0 0.0
404 1 67.6563174725 44.1794808629 0.0 0.0 0.0 0.0
405 1 72.8827174725 43.7917808629 0.0 0.0 0.0 0.0
406 1 74.9930174725 48.4119808629 0.0 0.0 0.0 0.0
407 1 4.37288747251 48.6074808629 0.0 0.0 0.0 0.0
408 1 9.28791747251 50.4681808629 0.0 0.0 0.0 0.0
409 1 15.0224174725 49.7382808629 0.0 0.0 0.0 0.0
410 1 19.8762174725 46.9430808629 0.0 0.0 0.0 0.0
411 1 24.3469174725 49.5516808629 0.0 0.0 0.0 0.0
412 1 29.5825174725 49.4272808629 0.0 0.0 0.0 0.0
413 1 35.1770174725 50.0432808629 0.0 0.0 0.0 0.0
414 1 40.5700174725 49.8018808629 0.0 0.0 0.0 0.0
415 1 45.3123174725 50.3145808629 0.0 0.0 0.0 0.0
416 1 50.4606174725 50.4264808629 0.0 0.0 0.0 0.0
417 1 54.9785174725 50.5428808629 0.0 0.0 0.0 0.0
418 1 60.1428174725 50.4955808629 0.0 0.0 0.0 0.0
419 1 65.0962174725 49.1964808629 0.0 0.0 0.0 0.0
420 1 70.0296174725 48.5455808629 0.0 0.0 0.0 0.0
421 1 1.67323747251 52.8950808629 0.0 0.0 0.0 0.0
422 1 7.18276747251 52.6180808629 0.0 0.0 0.0 0.0
423 1 12.8767174725 54.6149808629 0.0 0.0 0.0 0.0
424 1 17.9682174725 54.0709808629 0.0 0.0 0.0 0.0
425 1 22.9411174725 54.2645808629 0.0 0.0 0.0 0.0
426 1 28.2698174725 52.1251808629 0.0 0.0 0.0 0.0
427 1 32.6511174725 54.7280808629 0.0 0.0 0.0 0.0
428 1 39.7458174725 55.6002808629 0.0 0.0 0.0 0.0
429 1 43.5111174725 54.4075808629 0.0 0.0 0.0 0.0
430 1 48.4332174725 55.2577808629 0.0 0.0 0.0 0.0
431 1 53.7839174725 53.2999808629 0.0 0.0 0.0 0.0
432 1 58.0412174725 55.6362808629 0.0 0.0 0.0 0.0
433 1 63.0354174725 54.3773808629 0.0 0.0 0.0 0.0
434 1 67.8254174725 53.5862808629 0.0 0.0 0.0 0.0
435 1 72.5768174725 53.1757808629 0.0 0.0 0.0 0.0
436 1 75.4481174725 57.6100808629 0.0 0.0 0.0 0.0
437 1 4.58047747251 57.3282808629 0.0 0.0 0.0 0.0
438 1 10.8843174725 58.6195808629 0.0 0.0 0.0 0.0
439 1 16.2189174725 59.0380808629 0.0 0.0 0.0 0.0
440 1 20.7066174725 59.0627808629 0.0 0.0 0.0 0.0
441 1 25.6389174725 58.8665808629 0.0 0.0 0.0 0.0
442 1 30.7043174725 59.1581808629 0.0 0.0 0.0 0.0
443 1 36.1266174725 58.5952808629 0.0 0.0 0.0 0.0
444 1 40.8147174725 58.4421808629 0.0 0.0 0.0 0.0
445 1 45.7807174725 59.4903808629 0.0 0.0 0.0 0.0
446 1 50.9992174725 60.0394808629 0.0 0.0 0.0 0.0
447 1 56.1924174725 60.3652808629 0.0 0.0 0.0 0.0
448 1 61.3748174725 59.7063808629 0.0 0.0 0.0 0.0
449 1 66.0246174725 58.6009808629 0.0 0.0 0.0 0.0
450 1 70.7018174725 58.2946808629 0.0 0.0 0.0 0.0
451 1 3.01929747251 59.9134808629 0.0 0.0 0.0 0.0
452 1 7.33862747251 62.7124808629 0.0 0.0 0.0 0.0
453 1 12.8288174725 62.7647808629 0.0 0.0 0.0 0.0
454 1 18.1515174725 63.7958808629 0.0 0.0 0.0 0.0
455 1 23.1514174725 63.7722808629 0.0 0.0 0.0 0.0
456 1 28.2316174725 63.0873808629 0.0 0.0 0.0 0.0
457 1 33.9692174725 62.9369808629 0.0 0.0 0.0 0.0
458 1 38.9026174725 63.6293808629 0.0 0.0 0.0 0.0
459 1 44.0241174725 61.9402808629 0.0 0.0 0.0 0.0
460 1 48.3842174725 64.5460808629 0.0 0.0 0.0 0.0
461 1 53.6814174725 64.5673808629 0.0 0.0 0.0 0.0
462 1 59.1555174725 64.6789808629 0.0 0.0 0.0 0.0
463 1 64.2702174725 63.7328808629 0.0 0.0 0.0 0.0
464 1 68.8696174725 63.2414808629 0.0 0.0 0.0 0.0
465 1 73.8311174725 62.6707808629 0.0 0.0 0.0 0.0
466 1 0.246767472511 66.9660808629 0.0 0.0 0.0 0.0
467 1 4.76381747251 67.0003808629 0.0 0.0 0.0 0.0
468 1 10.1081174725 67.0775808629 0.0 0.0 0.0 0.0
469 1 14.9780174725 67.8096808629 0.0 0.0 0.0 0.0
470 1 20.5995174725 68.0493808629 0.0 0.0 0.0 0.0
471 1 26.0751174725 68.1394808629 0.0 0.0 0.0 0.0
472 1 31.0902174725 67.0016808629 0.0 0.0 0.0 0.0
473 1 36.0471174725 68.0225808629 0.0 0.0 0.0 0.0
474 1 41.0868174725 68.7190808629 0.0 0.0 0.0 0.0
475 1 46.3077174725 68.7960808629 0.0 0.0 0.0 0.0
476 1 51.7347174725 68.7620808629 0.0 0.0 0.0 0.0
477 1 57.0723174725 69.0401808629 0.0 0.0 0.0 0.0
478 1 62.7754174725 68.2343808629 0.0 0.0 0.0 0.0
479 1 63.6885174725 71.1063808629 0.0 0.0 0.0 0.0
480 1 71.0609174725 67.5487808629 0.0 0.0 0.0 0.0
481 1 4.03565747251 69.9005808629 0.0 0.0 0.0 0.0
482 1 6.12347747251 73.6572808629 0.0 0.0 0.0 0.0
483 1 12.9601174725 70.0756808629 0.0 0.0 0.0 0.0
484 1 18.0183174725 72.2856808629 0.0 0.0 0.0 0.0
485 1 23.3965174725 72.5782808629 0.0 0.0 0.0 0.0
486 1 26.4015174725 72.9377808629 0.0 0.0 0.0 0.0
487 1 34.0805174725 70.3449808629 0.0 0.0 0.0 0.0
488 1 39.8555174725 74.5897808629 0.0 0.0 0.0 0.0
489 1 43.7287174725 73.2797808629 0.0 0.0 0.0 0.0
490 1 48.9258174725 73.2685808629 0.0 0.0 0.0 0.0
491 1 53.8528174725 73.6217808629 0.0 0.0 0.0 0.0
492 1 58.6201174725 74.0385808629 0.0 0.0 0.0 0.0
493 1 65.7332174725 75.3613808629 0.0 0.0 0.0 0.0
494 1 69.4212174725 72.5631808629 0.0 0.0 0.0 0.0
495 1 74.4619174725 71.7169808629 0.0 0.0 0.0 0.0
496 1 0.854427472511 76.4732808629 0.0 0.0 0.0 0.0
497 1 5.37378747251 77.6657808629 0.0 0.0 0.0 0.0
498 1 10.8656174725 76.4152808629 0.0 0.0 0.0 0.0
499 1 15.6838174725 76.7687808629 0.0 0.0 0.0 0.0
500 1 20.5472174725 77.1951808629 0.0 0.0 0.0 0.0
501 1 25.2607174725 77.5576808629 0.0 0.0 0.0 0.0
502 1 30.1504174725 77.3333808629 0.0 0.0 0.0 0.0
503 1 34.9796174725 77.4980808629 0.0 0.0 0.0 0.0
504 1 41.4060174725 77.2193808629 0.0 0.0 0.0 0.0
505 1 46.7894174725 77.8931808629 0.0 0.0 0.0 0.0
506 1 52.3327174725 76.2371808629 0.0 0.0 0.0 0.0
507 1 56.3929174725 79.3276808629 0.0 0.0 0.0 0.0
508 1 61.0760174725 78.3108808629 0.0 0.0 0.0 0.0
509 1 67.6819174725 77.6272808629 0.0 0.0 0.0 0.0
510 1 72.4295174725 77.1205808629 0.0 0.0 0.0 0.0
511 1 5.70467747251 81.9846808629 0.0 0.0 0.0 0.0
512 1 10.9710174725 79.4102808629 0.0 0.0 0.0 0.0
513 1 16.0936174725 79.7237808629 0.0 0.0 0.0 0.0
514 1 21.2177174725 80.1144808629 0.0 0.0 0.0 0.0
515 1 25.7477174725 82.9244808629 0.0 0.0 0.0 0.0
516 1 30.7531174725 80.3041808629 0.0 0.0 0.0 0.0
517 1 36.1588174725 82.1138808629 0.0 0.0 0.0 0.0
518 1 41.5097174725 80.2598808629 0.0 0.0 0.0 0.0
519 1 46.6255174725 80.9116808629 0.0 0.0 0.0 0.0
520 1 52.0746174725 81.7420808629 0.0 0.0 0.0 0.0
521 1 56.9883174725 82.2804808629 0.0 0.0 0.0 0.0
522 1 62.0215174725 81.1559808629 0.0 0.0 0.0 0.0
523 1 67.2157174725 80.6058808629 0.0 0.0 0.0 0.0
524 1 72.0796174725 80.1571808629 0.0 0.0 0.0 0.0
525 1 0.559617472511 79.4803808629 0.0 0.0 0.0 0.0
526 1 3.50188747251 79.9987808629 0.0 0.0 0.0 0.0
527 1 8.59681747251 81.2329808629 0.0 0.0 0.0 0.0
528 1 13.4412174725 81.1056808629 0.0 0.0 0.0 0.0
529 1 18.5432174725 81.4390808629 0.0 0.0 0.0 0.0
530 1 24.2025174725 80.3615808629 0.0 0.0 0.0 0.0
531 1 28.7488174725 82.5952808629 0.0 0.0 0.0 0.0
532 1 33.7846174725 80.2623808629 0.0 0.0 0.0 0.0
533 1 39.1678174725 82.1591808629 0.0 0.0 0.0 0.0
534 1 43.8712174725 82.1742808629 0.0 0.0 0.0 0.0
535 1 49.1669174725 82.5499808629 0.0 0.0 0.0 0.0
536 1 54.3436174725 83.7279808629 0.0 0.0 0.0 0.0
537 1 59.8486174725 83.2248808629 0.0 0.0 0.0 0.0
538 1 64.7709174725 82.3676808629 0.0 0.0 0.0 0.0
539 1 69.7884174725 82.1561808629 0.0 0.0 0.0 0.0
540 1 74.5931174725 81.8241808629 0.0 0.0 0.0 0.0
541 2 7.67808747251 1.01840586285 0.0 0.0 0.0 0.0
542 2 5.20325747251 2.29767086285 0.0 0.0 0.0 0.0
543 2 5.77482747251 83.4756808629 0.0 0.0 0.0 0.0
544 2 10.3641174725 1.18418686285 0.0 0.0 0.0 0.0
545 2 8.97911747251 82.6911808629 0.0 0.0 0.0 0.0
546 2 13.6954174725 82.5795808629 0.0 0.0 0.0 0.0
547 2 15.6159174725 0.395414862854 0.0 0.0 0.0 0.0
548 2 12.9448174725 1.21775386285 0.0 0.0 0.0 0.0
549 2 17.9901174725 1.53132586285 0.0 0.0 0.0 0.0
550 2 20.2500174725 3.00366086285 0.0 0.0 0.0 0.0
551 2 17.6885174725 3.85074086285 0.0 0.0 0.0 0.0
552 2 24.9272174725 0.460340862854 0.0 0.0 0.0 0.0
553 2 25.3278174725 2.84457086285 0.0 0.0 0.0 0.0
554 2 22.9129174725 2.53893086285 0.0 0.0 0.0 0.0
555 2 28.9108174725 0.369673862854 0.0 0.0 0.0 0.0
556 2 27.6974174725 2.85643086285 0.0 0.0 0.0 0.0
557 2 30.1259174725 2.66046086285 0.0 0.0 0.0 0.0
558 2 35.2403174725 2.41281086285 0.0 0.0 0.0 0.0
559 2 36.0654174725 83.6192808629 0.0 0.0 0.0 0.0
560 2 37.7979174725 1.58657286285 0.0 0.0 0.0 0.0
561 2 39.4030174725 83.6583808629 0.0 0.0 0.0 0.0
562 2 40.3164174725 2.54847086285 0.0 0.0 0.0 0.0
563 2 43.7595174725 83.6956808629 0.0 0.0 0.0 0.0
564 2 44.9994174725 2.29682086285 0.0 0.0 0.0 0.0
565 2 42.6156174725 2.50550086285 0.0 0.0 0.0 0.0
566 2 49.0491174725 0.319027862854 0.0 0.0 0.0 0.0
567 2 50.0547174725 2.81493086285 0.0 0.0 0.0 0.0
568 2 47.5612174725 2.46471086285 0.0 0.0 0.0 0.0
569 2 54.1507174725 1.48407586285 0.0 0.0 0.0 0.0
570 2 55.2677174725 3.74787086285 0.0 0.0 0.0 0.0
571 2 52.5476174725 3.52161086285 0.0 0.0 0.0 0.0
572 2 60.4606174725 3.26204086285 0.0 0.0 0.0 0.0
573 2 60.5616174725 0.810712862854 0.0 0.0 0.0 0.0
574 2 62.8953174725 1.94902086285 0.0 0.0 0.0 0.0
575 2 64.6445174725 0.133148862854 0.0 0.0 0.0 0.0
576 2 65.6005174725 2.50939086285 0.0 0.0 0.0 0.0
577 2 69.5365174725 83.6526808629 0.0 0.0 0.0 0.0
578 2 70.7185174725 1.99133086285 0.0 0.0 0.0 0.0
579 2 68.1170174725 2.37294086285 0.0 0.0 0.0 0.0
580 2 74.7302174725 83.3357808629 0.0 0.0 0.0 0.0
581 2 0.0879774725113 2.00291086285 0.0 0.0 0.0 0.0
582 2 73.4339174725 1.84675086285 0.0 0.0 0.0 0.0
583 2 1.11543747251 4.49751086285 0.0 0.0 0.0 0.0
584 2 75.6852174725 6.56265086285 0.0 0.0 0.0 0.0
585 2 2.32251747251 6.93025086285 0.0 0.0 0.0 0.0
586 2 5.09221747251 4.67218086285 0.0 0.0 0.0 0.0
587 2 7.33728747251 6.39601086285 0.0 0.0 0.0 0.0
588 2 4.79158747251 6.96970086285 0.0 0.0 0.0 0.0
589 2 11.2952174725 3.40793086285 0.0 0.0 0.0 0.0
590 2 12.4618174725 5.36709086285 0.0 0.0 0.0 0.0
591 2 9.85331747251 5.78653086285 0.0 0.0 0.0 0.0
592 2 17.5077174725 6.21260086285 0.0 0.0 0.0 0.0
593 2 15.2248174725 5.29971086285 0.0 0.0 0.0 0.0
594 2 21.5189174725 4.93484086285 0.0 0.0 0.0 0.0
595 2 22.2282174725 7.45598086285 0.0 0.0 0.0 0.0
596 2 19.7854174725 6.99678086285 0.0 0.0 0.0 0.0
597 2 26.1832174725 5.26064086285 0.0 0.0 0.0 0.0
598 2 26.9402174725 7.74103086285 0.0 0.0 0.0 0.0