# input file

1350 atoms
2 atom types

0.0 77.1378834494 xlo xhi
0.0 82.4450321941 ylo yhi
-10.0 10.0 zlo zhi
0.0 0.0 0.0 xy xz yz

Masses

1 28.0855 #Si
2 15.9994 #O

Atoms

1 1 2.28877950153 1.15835609704 0.0
2 1 7.26837950153 1.51777609704 0.0
3 1 12.6011795015 1.48971609704 0.0
4 1 17.9673795015 1.37545609704 0.0
5 1 22.7141795015 4.26396609704 0.0
6 1 27.8191795015 1.89787609704 0.0
7 1 33.1551795015 1.89270609704 0.0
8 1 37.7383795015 4.53640609704 0.0
9 1 42.6097795015 1.61688609704 0.0
10 1 47.9430795015 1.57642609704 0.0
11 1 53.2792795015 1.84505609704 0.0
12 1 58.4398795015 0.986907097037 0.0
13 1 63.7858795015 0.851427097037 0.0
14 1 68.9169795015 1.42232609704 0.0
15 1 74.1273795015 0.850718097037 0.0
16 1 76.4832795015 5.41202609704 0.0
17 1 4.65205950153 6.03501609704 0.0
18 1 10.0494795015 5.90469609704 0.0
19 1 15.7032795015 5.75155609704 0.0
20 1 21.2539795015 6.91130609704 0.0
21 1 25.9741795015 7.15866609704 0.0
22 1 30.5237795015 6.42194609704 0.0
23 1 35.8678795015 6.89354609704 0.0
24 1 42.4472795015 6.35209609704 0.0
25 1 45.4221795015 5.97998609704 0.0
26 1 50.4852795015 6.09033609704 0.0
27 1 56.1926795015 5.89522609704 0.0
28 1 61.6053795015 5.26739609704 0.0
29 1 65.9211795015 8.04159609704 0.0
30 1 73.4658795015 5.09646609704 0.0
31 1 2.03373950153 10.175716097 0.0
32 1 8.17349950153 10.242116097 0.0
33 1 13.7056795015 9.76558609704 0.0
34 1 18.3175795015 12.481716097 0.0
35 1 23.6909795015 11.941716097 0.0
36 1 28.5123795015 11.798716097 0.0
37 1 32.7814795015 11.049716097 0.0
38 1 37.2870795015 13.866116097 0.0
39 1 42.4908795015 11.353616097 0.0
40 1 47.6815795015 10.680316097 0.0
41 1 52.9890795015 9.97027609704 0.0
42 1 58.8159795015 9.88822609704 0.0
43 1 64.7699795015 10.839116097 0.0
44 1 69.5493795015 11.049416097 0.0
45 1 73.8006795015 9.99805609704 0.0
46 1 76.6895795015 14.412816097 0.0
47 1 3.59416950153 12.764516097 0.0
48 1 10.9375795015 14.145316097 0.0
49 1 16.4600795015 14.829816097 0.0
50 1 21.2302795015 16.558716097 0.0
51 1 26.2809795015 16.769716097 0.0
52 1 31.3873795015 16.567716097 0.0
53 1 36.5881795015 16.765916097 0.0
54 1 41.3978795015 16.044816097 0.0
55 1 44.7830795015 18.326616097 0.0
56 1 50.8103795015 14.694316097 0.0
57 1 56.0350795015 13.634416097 0.0
58 1 60.2576795015 12.534016097 0.0
59 1 66.9673795015 15.699716097 0.0
60 1 72.0583795015 15.479516097 0.0
61 1 2.57371950153 18.535716097 0.0
62 1 7.79429950153 18.334616097 0.0
63 1 13.1824795015 18.571316097 0.0
64 1 17.2087795015 22.038116097 0.0
65 1 22.8796795015 21.278216097 0.0
66 1 29.2129795015 21.373316097 0.0
67 1 35.7804795015 20.669816097 0.0
68 1 38.7891795015 21.098816097 0.0
69 1 43.7751795015 21.164416097 0.0
70 1 47.6541795015 19.118616097 0.0
71 1 54.7765795015 18.261716097 0.0
72 1 58.8270795015 20.712616097 0.0
73 1 64.2091795015 19.295416097 0.0
74 1 69.5318795015 20.142116097 0.0
75 1 74.7868795015 19.719816097 0.0
76 1 0.203439501526 23.734216097 0.0
77 1 5.00180950153 22.950216097 0.0
78 1 10.1278795015 22.785416097 0.0
79 1 15.2140795015 24.275816097 0.0
80 1 19.9219795015 25.585016097 0.0
81 1 24.2919795015 23.955316097 0.0
82 1 31.2484795015 26.000116097 0.0
83 1 36.4146795015 26.019516097 0.0
84 1 41.8290795015 25.836216097 0.0
85 1 48.9251795015 23.921416097 0.0
86 1 51.7370795015 22.841216097 0.0
87 1 57.0172795015 23.112716097 0.0
88 1 61.8728795015 24.100916097 0.0
89 1 67.2135795015 24.040916097 0.0
90 1 72.2853795015 24.383116097 0.0
91 1 2.96208950153 28.116316097 0.0
92 1 7.84554950153 27.427016097 0.0
93 1 12.5417795015 29.999516097 0.0
94 1 17.6256795015 31.161016097 0.0
95 1 22.8794795015 29.605916097 0.0
96 1 27.7337795015 29.552616097 0.0
97 1 32.9885795015 30.418816097 0.0
98 1 39.5020795015 30.340216097 0.0
99 1 45.0631795015 30.101016097 0.0
100 1 49.9332795015 28.564016097 0.0
101 1 54.4508795015 27.421616097 0.0
102 1 58.9542795015 30.307116097 0.0
103 1 64.6137795015 28.417216097 0.0
104 1 69.8179795015 28.851216097 0.0
105 1 74.9042795015 28.675416097 0.0
106 1 0.595529501526 32.917916097 0.0
107 1 5.81683950153 32.509216097 0.0
108 1 10.9786795015 32.581216097 0.0
109 1 16.0173795015 33.680416097 0.0
110 1 20.7378795015 34.590616097 0.0
111 1 25.5109795015 34.391416097 0.0
112 1 30.4190795015 34.351316097 0.0
113 1 34.7623795015 32.826616097 0.0
114 1 41.4298795015 32.652516097 0.0
115 1 48.7344795015 33.683816097 0.0
116 1 53.3895795015 32.816616097 0.0
117 1 58.2263795015 33.222016097 0.0
118 1 62.8087795015 32.439216097 0.0
119 1 65.0867795015 35.739416097 0.0
120 1 72.5337795015 33.416816097 0.0
121 1 3.27086950153 37.227916097 0.0
122 1 8.29811950153 37.140716097 0.0
123 1 13.0707795015 37.606216097 0.0
124 1 17.2659795015 40.798316097 0.0
125 1 22.8407795015 39.306716097 0.0
126 1 28.8809795015 38.978416097 0.0
127 1 34.4163795015 38.158716097 0.0
128 1 40.1006795015 38.075316097 0.0
129 1 47.7573795015 38.009216097 0.0
130 1 50.7920795015 38.017816097 0.0
131 1 55.8384795015 37.827016097 0.0
132 1 62.4578795015 37.191916097 0.0
133 1 67.7841795015 36.984616097 0.0
134 1 70.9806795015 38.551416097 0.0
135 1 75.4388795015 37.701716097 0.0
136 1 0.428099501526 42.101116097 0.0
137 1 5.49006950153 41.837616097 0.0
138 1 10.5585795015 42.198316097 0.0
139 1 15.5806795015 43.267116097 0.0
140 1 20.4950795015 43.816416097 0.0
141 1 24.5481795015 41.785516097 0.0
142 1 31.7154795015 42.667916097 0.0
143 1 36.9476795015 42.165616097 0.0
144 1 42.0909795015 42.610416097 0.0
145 1 47.2094795015 42.842316097 0.0
146 1 54.4721795015 42.414516097 0.0
147 1 57.4735795015 42.766816097 0.0
148 1 62.2556795015 42.672316097 0.0
149 1 67.5270795015 42.836616097 0.0
150 1 72.4717795015 42.870316097 0.0
151 1 2.62630950153 46.563916097 0.0
152 1 7.55023950153 46.607416097 0.0
153 1 12.8756795015 47.274316097 0.0
154 1 17.8443795015 48.199616097 0.0
155 1 23.6141795015 47.550416097 0.0
156 1 28.8355795015 47.216416097 0.0
157 1 33.9772795015 46.811316097 0.0
158 1 39.0861795015 46.902616097 0.0
159 1 43.9716795015 47.238416097 0.0
160 1 49.1473795015 47.385216097 0.0
161 1 54.2743795015 47.597416097 0.0
162 1 61.3642795015 47.234716097 0.0
163 1 64.4059795015 47.210516097 0.0
164 1 69.4360795015 47.586516097 0.0
165 1 74.7434795015 46.976516097 0.0
166 1 76.6953795015 51.324016097 0.0
167 1 4.29547950153 51.220316097 0.0
168 1 9.40477950153 51.205216097 0.0
169 1 14.4854795015 52.321116097 0.0
170 1 20.7845795015 51.668616097 0.0
171 1 26.2770795015 51.886216097 0.0
172 1 32.7830795015 51.284316097 0.0
173 1 35.7854795015 51.324616097 0.0
174 1 40.8508795015 51.753516097 0.0
175 1 45.9080795015 51.759316097 0.0
176 1 51.1907795015 52.020016097 0.0
177 1 56.0354795015 52.529416097 0.0
178 1 61.0902795015 52.421316097 0.0
179 1 66.6758795015 52.168716097 0.0
180 1 73.6806795015 51.327916097 0.0
181 1 2.30772950153 56.137016097 0.0
182 1 7.06583950153 55.771516097 0.0
183 1 11.7521795015 58.245516097 0.0
184 1 16.1307795015 54.838816097 0.0
185 1 22.7971795015 58.184216097 0.0
186 1 28.1063795015 57.036216097 0.0
187 1 32.7883795015 56.565816097 0.0
188 1 38.1326795015 56.136016097 0.0
189 1 43.4455795015 56.378616097 0.0
190 1 48.6106795015 56.284816097 0.0
191 1 51.8365795015 59.453516097 0.0
192 1 58.4100795015 57.146616097 0.0
193 1 63.8772795015 56.581716097 0.0
194 1 69.3672795015 56.985916097 0.0
195 1 74.2388795015 56.187516097 0.0
196 1 0.292499501526 60.683316097 0.0
197 1 5.39215950153 60.773616097 0.0
198 1 10.5373795015 60.995716097 0.0
199 1 15.5022795015 60.348816097 0.0
200 1 20.8954795015 60.481016097 0.0
201 1 25.9239795015 61.830116097 0.0
202 1 31.1211795015 61.623716097 0.0
203 1 35.9522795015 60.682116097 0.0
204 1 40.8106795015 60.661516097 0.0
205 1 45.6217795015 60.864616097 0.0
206 1 50.3107795015 62.032516097 0.0
207 1 54.3761795015 61.026716097 0.0
208 1 61.3031795015 61.062016097 0.0
209 1 65.1764795015 59.322316097 0.0
210 1 72.3988795015 61.241616097 0.0
211 1 2.95366950153 65.379416097 0.0
212 1 8.22632950153 65.489616097 0.0
213 1 13.4522795015 65.305516097 0.0
214 1 18.1462795015 64.715416097 0.0
215 1 23.0991795015 67.123316097 0.0
216 1 28.7952795015 66.199716097 0.0
217 1 35.4600795015 65.389916097 0.0
218 1 38.4667795015 65.434316097 0.0
219 1 43.1275795015 65.562616097 0.0
220 1 47.6321795015 68.415016097 0.0
221 1 53.1164795015 66.592116097 0.0
222 1 58.7094795015 65.495316097 0.0
223 1 64.1634795015 65.161816097 0.0
224 1 69.4225795015 65.367616097 0.0
225 1 74.7855795015 65.574116097 0.0
226 1 0.0202095015256 69.919616097 0.0
227 1 5.35262950153 69.944216097 0.0
228 1 12.5237795015 69.480816097 0.0
229 1 15.5412795015 69.823116097 0.0
230 1 22.3337795015 69.995616097 0.0
231 1 25.3052795015 70.324116097 0.0
232 1 30.3583795015 71.031716097 0.0
233 1 35.6958795015 70.593816097 0.0
234 1 40.6927795015 70.466216097 0.0
235 1 46.0518795015 70.992116097 0.0
236 1 51.2271795015 71.306116097 0.0
237 1 56.4355795015 70.007516097 0.0
238 1 61.7055795015 69.653416097 0.0
239 1 66.7098795015 69.770916097 0.0
240 1 71.8791795015 69.881616097 0.0
241 1 2.17521950153 74.329116097 0.0
242 1 7.17569950153 74.742416097 0.0
243 1 12.0349795015 74.637416097 0.0
244 1 17.5025795015 75.080316097 0.0
245 1 22.9384795015 74.352216097 0.0
246 1 25.7275795015 73.265716097 0.0
247 1 32.5701795015 75.070716097 0.0
248 1 37.5763795015 75.212616097 0.0
249 1 42.7258795015 75.114616097 0.0
250 1 48.2116795015 75.663616097 0.0
251 1 55.7415795015 74.525316097 0.0
252 1 58.7388795015 74.236716097 0.0
253 1 63.8922795015 74.409116097 0.0
254 1 69.0083795015 74.394916097 0.0
255 1 74.1166795015 74.368016097 0.0
256 1 76.7028795015 2.41515609704 0.0
257 1 4.66159950153 3.01925609704 0.0
258 1 9.94267950153 2.90157609704 0.0
259 1 15.3225795015 2.78435609704 0.0
260 1 20.9504795015 1.82586609704 0.0
261 1 25.7376795015 4.13383609704 0.0
262 1 30.4906795015 3.37166609704 0.0
263 1 36.1697795015 1.99659609704 0.0
264 1 40.6857795015 3.92424609704 0.0
265 1 45.2945795015 2.98005609704 0.0
266 1 50.5403795015 3.08799609704 0.0
267 1 56.0984795015 2.88773609704 0.0
268 1 61.1476795015 2.29826609704 0.0
269 1 66.1628795015 2.70484609704 0.0
270 1 71.7054795015 2.63098609704 0.0
271 1 1.84269950153 7.15780609704 0.0
272 1 7.38873950153 7.33515609704 0.0
273 1 12.9096795015 6.87558609704 0.0
274 1 18.2556795015 7.35492609704 0.0
275 1 23.5127795015 8.91449609704 0.0
276 1 28.5473795015 8.73392609704 0.0
277 1 33.0650795015 8.03387609704 0.0
278 1 37.8339795015 9.15063609704 0.0
279 1 40.8290795015 8.86819609704 0.0
280 1 47.9107795015 7.67382609704 0.0
281 1 53.3620795015 6.99200609704 0.0
282 1 59.0540795015 6.89458609704 0.0
283 1 64.6299795015 5.32002609704 0.0
284 1 68.9371795015 8.12376609704 0.0
285 1 71.9061795015 7.65102609704 0.0
286 1 76.4420795015 11.410116097 0.0
287 1 6.58993950153 12.798816097 0.0
288 1 11.0399795015 11.150716097 0.0
289 1 16.7186795015 9.94246609704 0.0
290 1 21.1377795015 13.541916097 0.0
291 1 26.1537795015 13.711516097 0.0
292 1 31.0126795015 13.515916097 0.0
293 1 35.7615795015 11.316516097 0.0
294 1 40.2207795015 13.306916097 0.0
295 1 45.2679795015 12.501016097 0.0
296 1 50.5116795015 11.702216097 0.0
297 1 55.9130795015 10.654316097 0.0
298 1 63.1288795015 13.372516097 0.0
299 1 67.0935795015 12.716516097 0.0
300 1 72.1554795015 12.491416097 0.0
301 1 2.34232950153 15.513016097 0.0
302 1 8.18556950153 15.346416097 0.0
303 1 13.5565795015 15.595416097 0.0
304 1 18.2882795015 17.207416097 0.0
305 1 23.6740795015 18.341816097 0.0
306 1 28.9015795015 18.329916097 0.0
307 1 33.9660795015 18.216616097 0.0
308 1 39.2606795015 18.144016097 0.0
309 1 44.3187795015 15.366616097 0.0
310 1 50.2440795015 17.638716097 0.0
311 1 53.6933795015 15.471716097 0.0
312 1 58.6547795015 15.066216097 0.0
313 1 64.0337795015 16.273416097 0.0
314 1 69.5797795015 17.152516097 0.0
315 1 74.7735795015 16.720016097 0.0
316 1 0.478189501526 20.723416097 0.0
317 1 5.23643950153 19.938716097 0.0
318 1 10.4294795015 19.795616097 0.0
319 1 16.1046795015 19.266716097 0.0
320 1 20.1601795015 22.582816097 0.0
321 1 27.2987795015 23.738016097 0.0
322 1 31.7448795015 23.043216097 0.0
323 1 34.7400795015 23.482016097 0.0
324 1 41.2674795015 22.852016097 0.0
325 1 46.6795795015 21.940416097 0.0
326 1 52.2597795015 19.876716097 0.0
327 1 57.7568795015 17.923916097 0.0
328 1 61.8017795015 21.101116097 0.0
329 1 66.6724795015 21.070816097 0.0
330 1 72.2724795015 21.379016097 0.0
331 1 2.88021950153 25.094516097 0.0
332 1 7.61160950153 24.427016097 0.0
333 1 12.2711795015 24.878216097 0.0
334 1 17.0862795015 26.610916097 0.0
335 1 22.7580795015 26.578016097 0.0
336 1 28.3097795015 26.588316097 0.0
337 1 33.8264795015 27.547816097 0.0
338 1 39.1750795015 27.321016097 0.0
339 1 44.6042795015 27.121216097 0.0
340 1 47.6135795015 26.620016097 0.0
341 1 54.2985795015 24.414016097 0.0
342 1 59.1044795015 25.264816097 0.0
343 1 64.5589795015 25.428516097 0.0
344 1 69.6483795015 25.834516097 0.0
345 1 75.0083795015 25.656516097 0.0
346 1 0.520729501526 29.899516097 0.0
347 1 5.64688950153 29.491116097 0.0
348 1 10.8476795015 27.527616097 0.0
349 1 15.4354795015 29.123216097 0.0
350 1 20.5984795015 31.578316097 0.0
351 1 25.3275795015 31.365816097 0.0
352 1 30.1414795015 31.355716097 0.0
353 1 37.7461795015 32.779816097 0.0
354 1 44.3893795015 33.036216097 0.0
355 1 47.9699795015 30.800116097 0.0
356 1 52.6689795015 29.852916097 0.0
357 1 57.4263795015 27.746716097 0.0
358 1 61.8656795015 29.611816097 0.0
359 1 67.0910795015 30.129116097 0.0
360 1 72.4141795015 30.394516097 0.0
361 1 3.32007950153 34.209216097 0.0
362 1 8.37590950153 34.108616097 0.0
363 1 13.1710795015 34.615316097 0.0
364 1 18.0319795015 35.885116097 0.0
365 1 23.1944795015 36.312416097 0.0
366 1 27.9876795015 36.104016097 0.0
367 1 33.2351795015 35.397016097 0.0
368 1 39.6736795015 35.081416097 0.0
369 1 46.2802795015 35.381816097 0.0
370 1 51.3839795015 35.062816097 0.0
371 1 55.6746795015 34.795116097 0.0
372 1 60.8309795015 34.687316097 0.0
373 1 65.7697795015 32.820216097 0.0
374 1 70.4515795015 35.604216097 0.0
375 1 75.2759795015 34.682016097 0.0
376 1 0.933429501526 39.126816097 0.0
377 1 5.80658950153 38.835816097 0.0
378 1 10.5211795015 39.180916097 0.0
379 1 16.0220795015 38.098716097 0.0
380 1 20.2567795015 40.830416097 0.0
381 1 27.5370795015 41.672116097 0.0
382 1 31.8070795015 39.668716097 0.0
383 1 37.2682795015 39.171916097 0.0
384 1 42.7014795015 39.670916097 0.0
385 1 45.7040795015 40.205216097 0.0
386 1 53.3824795015 39.587016097 0.0
387 1 58.1230795015 39.820016097 0.0
388 1 61.1335795015 39.881016097 0.0
389 1 68.3231795015 39.930416097 0.0
390 1 73.5453795015 40.048116097 0.0
391 1 3.03373950153 43.582116097 0.0
392 1 7.90915950153 43.616816097 0.0
393 1 12.7571795015 44.258416097 0.0
394 1 17.8455795015 45.214716097 0.0
395 1 23.3899795015 44.559216097 0.0
396 1 29.1418795015 44.214716097 0.0
397 1 34.4605795015 43.853016097 0.0
398 1 39.3865795015 43.914916097 0.0
399 1 44.5776795015 44.301016097 0.0
400 1 49.7960795015 44.450516097 0.0
401 1 52.8056795015 44.923716097 0.0
402 1 59.9183795015 44.567216097 0.0
403 1 64.8462795015 44.216616097 0.0
404 1 69.9734795015 44.596116097 0.0
405 1 75.2360795015 44.017916097 0.0
406 1 0.243969501526 48.399816097 0.0
407 1 5.06180950153 48.305116097 0.0
408 1 10.0434795015 48.276216097 0.0
409 1 15.0662795015 49.359416097 0.0
410 1 20.8143795015 48.682616097 0.0
411 1 26.3205795015 48.876516097 0.0
412 1 31.5321795015 48.551516097 0.0
413 1 36.5022795015 48.417216097 0.0
414 1 41.4063795015 48.797716097 0.0
415 1 46.5101795015 48.821716097 0.0
416 1 51.6468795015 49.056916097 0.0
417 1 56.6209795015 49.556516097 0.0
418 1 59.6625795015 49.733216097 0.0
419 1 66.7945795015 49.112116097 0.0
420 1 72.2576795015 48.674316097 0.0
421 1 1.96448950153 53.131216097 0.0
422 1 6.84866950153 52.779716097 0.0
423 1 11.6185795015 53.216716097 0.0
424 1 19.0455795015 54.108216097 0.0
425 1 23.4782795015 52.971616097 0.0
426 1 28.3691795015 54.045616097 0.0
427 1 31.3656795015 53.920116097 0.0
428 1 38.1791795015 53.133516097 0.0
429 1 43.3776795015 53.375116097 0.0
430 1 48.4749795015 53.294916097 0.0
431 1 53.4123795015 54.034916097 0.0
432 1 58.5910795015 54.133316097 0.0
433 1 63.9411795015 53.537516097 0.0
434 1 69.1532795015 53.973616097 0.0
435 1 72.1982795015 53.936516097 0.0
436 1 76.8689795015 57.698816097 0.0
437 1 4.83933950153 57.794516097 0.0
438 1 10.0633795015 55.785316097 0.0
439 1 14.6633795015 57.475216097 0.0
440 1 21.7420795015 55.401116097 0.0
441 1 25.7185795015 58.840016097 0.0
442 1 30.6388795015 58.655716097 0.0
443 1 35.5697795015 57.698616097 0.0
444 1 40.7254795015 57.660816097 0.0
445 1 46.0541795015 57.885116097 0.0
446 1 51.6185795015 56.464816097 0.0
447 1 57.1426795015 59.887116097 0.0
448 1 61.2620795015 58.056916097 0.0
449 1 68.1371795015 59.728516097 0.0
450 1 72.0862795015 58.258116097 0.0
451 1 2.82150950153 62.350716097 0.0
452 1 7.90541950153 62.468916097 0.0
453 1 13.2305795015 62.315316097 0.0
454 1 18.1611795015 61.712016097 0.0
455 1 23.0213795015 62.584816097 0.0
456 1 28.5837795015 63.215816097 0.0
457 1 33.8704795015 62.833216097 0.0
458 1 38.4001795015 62.425816097 0.0
459 1 43.1343795015 62.547916097 0.0
460 1 47.5369795015 63.165216097 0.0
461 1 52.8558795015 63.605516097 0.0
462 1 58.6731795015 62.481316097 0.0
463 1 64.0859795015 62.141316097 0.0
464 1 69.6153795015 62.358316097 0.0
465 1 75.0854795015 62.577616097 0.0
466 1 0.346449501526 66.920716097 0.0
467 1 5.55979950153 66.926016097 0.0
468 1 10.9149795015 66.912516097 0.0
469 1 16.0329795015 66.851716097 0.0
470 1 21.1305795015 64.898416097 0.0
471 1 26.0728795015 67.445416097 0.0
472 1 31.0886795015 68.129816097 0.0
473 1 34.0976795015 68.050616097 0.0
474 1 40.7451795015 67.426516097 0.0
475 1 46.1234795015 65.821816097 0.0
476 1 50.6563795015 68.356316097 0.0
477 1 56.1034795015 67.029016097 0.0
478 1 61.5172795015 66.638816097 0.0
479 1 66.7367795015 66.749016097 0.0
480 1 72.0488795015 66.867016097 0.0
481 1 2.67327950153 71.353316097 0.0
482 1 7.74301950153 71.792116097 0.0
483 1 10.7570795015 71.907916097 0.0
484 1 17.6012795015 72.068316097 0.0
485 1 20.5997795015 72.424916097 0.0
486 1 28.6923795015 73.533816097 0.0
487 1 33.1358795015 72.142816097 0.0
488 1 38.2225795015 72.233816097 0.0
489 1 43.2283795015 72.118116097 0.0
490 1 48.5456795015 72.681216097 0.0
491 1 54.1637795015 71.970616097 0.0
492 1 59.1635795015 71.262416097 0.0
493 1 64.1653795015 71.395016097 0.0
494 1 69.2582795015 71.384116097 0.0
495 1 74.5016795015 71.371516097 0.0
496 1 76.7248795015 75.870016097 0.0
497 1 4.54379950153 76.178216097 0.0
498 1 9.64367950153 76.451516097 0.0
499 1 14.6698795015 76.106716097 0.0
500 1 19.9764795015 76.846116097 0.0
501 1 22.9713795015 77.349816097 0.0
502 1 29.8300795015 76.300616097 0.0
503 1 34.9824795015 76.819616097 0.0
504 1 40.1650795015 76.768116097 0.0
505 1 45.3431795015 76.631316097 0.0
506 1 50.9107795015 77.014916097 0.0
507 1 53.9268795015 76.911116097 0.0
508 1 61.2553795015 75.890916097 0.0
509 1 66.4558795015 76.008316097 0.0
510 1 71.5645795015 75.989316097 0.0
511 1 4.63644950153 79.183416097 0.0
512 1 9.65697950153 79.454416097 0.0
513 1 14.6347795015 79.118116097 0.0
514 1 19.7315795015 79.815516097 0.0
515 1 24.7024795015 79.874116097 0.0
516 1 29.7386795015 79.300216097 0.0
517 1 34.1755795015 81.511616097 0.0
518 1 39.6106795015 79.757616097 0.0
519 1 44.9851795015 79.622516097 0.0
520 1 50.4573795015 79.976016097 0.0
521 1 55.5303795015 79.457916097 0.0
522 1 61.0073795015 78.897316097 0.0
523 1 66.4297795015 79.032716097 0.0
524 1 71.2863795015 79.000316097 0.0
525 1 76.6615795015 78.883316097 0.0
526 1 1.99518950153 80.607116097 0.0
527 1 7.06276950153 80.960516097 0.0
528 1 12.2584795015 80.947316097 0.0
529 1 16.9887795015 80.984416097 0.0
530 1 22.1936795015 81.537416097 0.0
531 1 27.4203795015 81.293016097 0.0
532 1 32.7567795015 78.896616097 0.0
533 1 37.1830795015 81.602816097 0.0
534 1 42.3319795015 81.064316097 0.0
535 1 47.6465795015 81.037216097 0.0
536 1 53.1562795015 81.297016097 0.0
537 1 58.3920795015 80.415116097 0.0
538 1 63.6872795015 80.288516097 0.0
539 1 68.8694795015 80.825916097 0.0
540 1 74.0036795015 80.294516097 0.0
541 2 2.15766950153 82.103216097 0.0
542 2 3.47327950153 2.08732609704 0.0
543 2 0.924489501526 1.78734609704 0.0
544 2 7.14810950153 0.015808997037 0.0
545 2 8.61165950153 2.19729609704 0.0
546 2 5.98165950153 2.29362609704 0.0
547 2 12.4478795015 82.436316097 0.0
548 2 13.9621795015 2.13461609704 0.0
549 2 11.2777795015 2.20709609704 0.0
550 2 17.4136795015 82.420816097 0.0
551 2 19.4417795015 1.69233609704 0.0
552 2 16.6733795015 2.13617609704 0.0
553 2 21.8124795015 3.05319609704 0.0
554 2 24.2156795015 4.10107609704 0.0
555 2 21.9541795015 5.57060609704 0.0
556 2 27.6085795015 0.375306097037 0.0
557 2 29.1815795015 2.59416609704 0.0
558 2 26.7307795015 2.98193609704 0.0
559 2 33.4883795015 0.407726097037 0.0
560 2 34.6602795015 2.13801609704 0.0
561 2 31.8366795015 2.63800609704 0.0
562 2 36.9693795015 3.25237609704 0.0
563 2 39.2171795015 4.24761609704 0.0
564 2 36.7684795015 5.68351609704 0.0
565 2 42.4420795015 0.124843597037 0.0
566 2 43.9750795015 2.26060609704 0.0
567 2 41.5391795015 2.68107609704 0.0
568 2 47.7865795015 0.087655897037 0.0
569 2 49.2545795015 2.30881609704 0.0
570 2 46.6197795015 2.27981609704 0.0
571 2 53.2285795015 0.345409097037 0.0
572 2 54.6764795015 2.39003609704 0.0
573 2 51.9219795015 2.49027609704 0.0
574 2 58.4099795015 81.926016097 0.0
575 2 59.7982795015 1.63923609704 0.0
576 2 57.2605795015 1.92856609704 0.0
577 2 63.7438795015 81.794116097 0.0
578 2 65.0165795015 1.71661609704 0.0
579 2 62.4502795015 1.54794609704 0.0
580 2 68.8921795015 82.343516097 0.0
581 2 70.2805795015 2.10417609704 0.0
582 2 67.5722795015 2.13884609704 0.0
583 2 74.0704795015 81.797116097 0.0
584 2 75.4270795015 1.61514609704 0.0
585 2 72.8631795015 1.65897609704 0.0
586 2 76.6771795015 3.91404609704 0.0
587 2 0.555839501526 6.33681609704 0.0
588 2 74.9605795015 5.35393609704 0.0
589 2 3.25132950153 6.59719609704 0.0
590 2 6.00585950153 6.72319609704 0.0
591 2 4.65592950153 4.52349609704 0.0
592 2 9.98047950153 4.40154609704 0.0
593 2 11.4775795015 6.40412609704 0.0
594 2 8.71655950153 6.60759609704 0.0
595 2 15.5325795015 4.26366609704 0.0
596 2 17.0344795015 6.45666609704 0.0
597 2 14.2905795015 6.27444609704 0.0
598 2 22.2976795015 8.00714609704 0.0
599 2 19.7483795015 7.11588609704 0.0
600 2 25.9525795015 5.64315609704 0.0
601 2 27.2407795015 7.97271609704 0.0
602 2 24.7492795015 8.04566609704 0.0
603 2 30.4812795015 4.89936609704 0.0
604 2 31.8477795015 7.15328609704 0.0
605 2 29.5411795015 7.58111609704 0.0
606 2 36.8922795015 7.98932609704 0.0
607 2 34.4424795015 7.39359609704 0.0
608 2 41.6297795015 7.60676609704 0.0
609 2 41.5752795015 5.13477609704 0.0
610 2 43.9456795015 6.28679609704 0.0
611 2 45.4193795015 4.47606609704 0.0
612 2 46.6420795015 6.85271609704 0.0
613 2 50.4584795015 4.58563609704 0.0
614 2 51.9357795015 6.49674609704 0.0
615 2 49.2188795015 6.91559609704 0.0
616 2 56.1744795015 4.38715609704 0.0
617 2 57.6167795015 6.40750609704 0.0
618 2 54.7836795015 6.46611609704 0.0
619 2 61.3092795015 3.79064609704 0.0
620 2 63.1147795015 5.37801609704 0.0
621 2 60.3599795015 6.13090609704 0.0
622 2 65.2669795015 6.68768609704 0.0
623 2 67.4390795015 7.96538609704 0.0
624 2 65.2133795015 9.38774609704 0.0
625 2 72.6584795015 6.36196609704 0.0
626 2 72.5235795015 3.90880609704 0.0
627 2 1.97481950153 8.66833609704 0.0
628 2 2.90018950153 11.418916097 0.0
629 2 0.640709501526 10.745116097 0.0
630 2 9.63997950153 10.598516097 0.0
631 2 7.70484950153 8.81388609704 0.0
632 2 7.33349950153 11.491516097 0.0
633 2 13.2555795015 8.33440609704 0.0
634 2 15.2047795015 9.93867609704 0.0
635 2 12.4059795015 10.526816097 0.0
636 2 17.5577795015 11.188416097 0.0
637 2 19.7557795015 12.926116097 0.0
638 2 17.3157795015 13.603816097 0.0
639 2 23.5990795015 10.426816097 0.0
640 2 24.9059795015 12.841716097 0.0
641 2 22.3921795015 12.714416097 0.0
642 2 28.5606795015 10.264316097 0.0
643 2 29.7345795015 12.693816097 0.0
644 2 27.3249795015 12.745616097 0.0
645 2 32.8038795015 9.52770609704 0.0
646 2 34.2767795015 11.239116097 0.0
647 2 31.9526795015 12.308216097 0.0
648 2 36.4323795015 12.650916097 0.0
649 2 38.7383795015 13.489116097 0.0
650 2 36.8545795015 15.291816097 0.0
651 2 41.7357795015 10.060116097 0.0
652 2 43.9108795015 11.831016097 0.0
653 2 41.3321795015 12.313516097 0.0
654 2 47.7528795015 9.17231609704 0.0
655 2 49.0918795015 11.209316097 0.0
656 2 46.4890795015 11.613616097 0.0
657 2 53.1303795015 8.47727609704 0.0
658 2 51.7474795015 10.829716097 0.0
659 2 54.4563795015 10.315116097 0.0
660 2 59.0587795015 8.40610609704 0.0
661 2 59.6246795015 11.163516097 0.0
662 2 57.3318795015 10.168316097 0.0
663 2 63.8452795015 12.037916097 0.0
664 2 65.9584795015 11.757916097 0.0
665 2 69.2426795015 9.59656609704 0.0
666 2 70.8323795015 11.792816097 0.0
667 2 68.3581795015 11.939416097 0.0
668 2 72.8939795015 8.80251609704 0.0
669 2 75.1913795015 10.578816097 0.0
670 2 73.0504795015 11.301616097 0.0
671 2 75.7333795015 15.570016097 0.0
672 2 0.930169501526 14.998416097 0.0
673 2 76.4966795015 12.921216097 0.0
674 2 5.09499950153 12.761416097 0.0
675 2 3.05869950153 14.178816097 0.0
676 2 11.0094795015 12.650816097 0.0
677 2 12.2648795015 14.840816097 0.0
678 2 9.59757950153 14.815816097 0.0
679 2 17.3929795015 16.001116097 0.0
680 2 14.9825795015 15.117016097 0.0
681 2 21.2424795015 15.047416097 0.0
682 2 22.4437795015 17.450616097 0.0
683 2 19.7793795015 17.003416097 0.0
684 2 24.9934795015 17.591016097 0.0
685 2 27.5826795015 17.564116097 0.0
686 2 26.2215795015 15.239916097 0.0
687 2 31.2321795015 15.033316097 0.0
688 2 32.6669795015 17.420616097 0.0
689 2 30.1433795015 17.448416097 0.0
690 2 37.9003795015 17.494616097 0.0
691 2 35.2348795015 17.391116097 0.0
692 2 40.7672795015 14.695416097 0.0
693 2 42.8491795015 15.704916097 0.0
694 2 40.4263795015 17.192216097 0.0
695 2 44.6342795015 16.838616097 0.0
696 2 46.2583795015 18.588716097 0.0
697 2 44.0765795015 19.670716097 0.0
698 2 50.3612795015 16.139116097 0.0
699 2 52.2769795015 15.026816097 0.0
700 2 50.5833795015 13.213016097 0.0
701 2 55.9737795015 12.152216097 0.0
702 2 57.3268795015 14.369216097 0.0
703 2 54.8198795015 14.495416097 0.0
704 2 59.5374795015 13.858116097 0.0
705 2 61.6943795015 12.937816097 0.0
706 2 67.0531795015 14.203316097 0.0
707 2 68.2504795015 16.460616097 0.0
708 2 65.5243795015 16.060516097 0.0
709 2 72.1346795015 13.982616097 0.0
710 2 73.3940795015 16.137216097 0.0
711 2 70.8162795015 16.310316097 0.0
712 2 2.49998950153 17.020916097 0.0
713 2 3.92879950153 19.195816097 0.0
714 2 1.51915950153 19.627016097 0.0
715 2 7.91954950153 16.827316097 0.0
716 2 9.12207950153 19.051716097 0.0
717 2 6.51505950153 19.133616097 0.0
718 2 13.3197795015 17.075616097 0.0
719 2 14.6229795015 19.017216097 0.0
720 2 11.8195795015 19.208616097 0.0
721 2 16.6373795015 20.660816097 0.0
722 2 18.6987795015 22.212116097 0.0
723 2 16.1512795015 23.104216097 0.0
724 2 23.3285795015 19.828816097 0.0
725 2 23.6396795015 22.588816097 0.0
726 2 21.4546795015 21.815616097 0.0
727 2 29.0321795015 19.859016097 0.0
728 2 30.5622795015 22.092216097 0.0
729 2 28.1773795015 22.498816097 0.0
730 2 34.7704795015 19.527116097 0.0
731 2 35.2753795015 22.082416097 0.0
732 2 37.2860795015 20.917116097 0.0
733 2 39.1757795015 19.635216097 0.0
734 2 39.9627795015 22.066516097 0.0
735 2 45.1826795015 21.745816097 0.0
736 2 42.5176795015 21.988816097 0.0
737 2 48.9159795015 18.333216097 0.0
738 2 47.3156795015 20.576516097 0.0
739 2 54.1891795015 16.878716097 0.0
740 2 56.2667795015 18.147716097 0.0
741 2 53.6205795015 19.221316097 0.0
742 2 58.3584795015 19.290916097 0.0
743 2 60.3221795015 20.837716097 0.0
744 2 57.8298795015 21.841416097 0.0
745 2 63.9996795015 17.794516097 0.0
746 2 65.4606795015 20.163916097 0.0
747 2 62.9739795015 20.166416097 0.0
748 2 69.5866795015 18.641916097 0.0
749 2 70.8881795015 20.786016097 0.0
750 2 68.1038795015 20.591916097 0.0
751 2 74.7977795015 18.215116097 0.0
752 2 76.1923795015 20.233116097 0.0
753 2 73.5315795015 20.550616097 0.0
754 2 0.373079501526 22.232716097 0.0
755 2 76.1645795015 24.683916097 0.0
756 2 1.52594950153 24.446016097 0.0
757 2 5.09922950153 21.444516097 0.0
758 2 6.31762950153 23.676316097 0.0
759 2 3.92896950153 24.009016097 0.0
760 2 10.2909795015 21.295516097 0.0
761 2 11.2661795015 23.764516097 0.0
762 2 8.84680950153 23.570416097 0.0
763 2 16.1266795015 25.461216097 0.0
764 2 13.7362795015 24.543016097 0.0
765 2 20.0752795015 24.088216097 0.0
766 2 21.3015795015 26.178316097 0.0
767 2 18.5412795015 26.200616097 0.0
768 2 25.7916795015 23.814916097 0.0
769 2 23.6019795015 25.314116097 0.0
770 2 31.4195795015 24.512916097 0.0
771 2 32.5320795015 26.778216097 0.0
772 2 29.8058795015 26.400316097 0.0
773 2 35.6674795015 24.687416097 0.0
774 2 37.8105795015 26.627416097 0.0
775 2 35.1723795015 26.892016097 0.0
776 2 41.5449795015 24.341116097 0.0
777 2 43.2350795015 26.443016097 0.0
778 2 40.5084795015 26.595616097 0.0
779 2 48.2854795015 25.271116097 0.0
780 2 47.7723795015 22.958316097 0.0
781 2 50.3497795015 23.426616097 0.0
782 2 51.9813795015 21.352416097 0.0
783 2 53.0015795015 23.656016097 0.0
784 2 58.0640795015 24.187816097 0.0
785 2 55.6192795015 23.675816097 0.0
786 2 61.9055795015 22.601416097 0.0
787 2 63.2079795015 24.777516097 0.0
788 2 60.5266795015 24.778516097 0.0
789 2 66.9192795015 22.564316097 0.0
790 2 68.4358795015 24.930216097 0.0
791 2 65.8825795015 24.739716097 0.0
792 2 72.2885795015 22.879116097 0.0
793 2 73.6374795015 25.031616097 0.0
794 2 70.9762795015 25.119816097 0.0
795 2 2.94044950153 26.603616097 0.0
796 2 4.29920950153 28.815116097 0.0
797 2 1.73636950153 29.001416097 0.0
798 2 7.65047950153 25.930116097 0.0
799 2 9.34627950153 27.575016097 0.0
800 2 6.78874950153 28.497416097 0.0
801 2 11.6744795015 28.773316097 0.0
802 2 14.0001795015 29.589416097 0.0
803 2 11.7190795015 31.264916097 0.0
804 2 16.5633795015 30.113016097 0.0