ITEM: TIMESTEP
0
ITEM: NUMBER OF ATOMS
1350
ITEM: BOX BOUNDS xy xz yz pp pp pp
0.0 78.3950174205 0
0.0 80.9098405206 0
-10.0 10.0 0
ITEM: ATOMS id type x y z vx vy vz
1 1 3.57833648709 1.00066026031 0.0 0.0 0.0 0.0
2 1 9.21853648709 1.79921026031 0.0 0.0 0.0 0.0
3 1 14.4658464871 2.35570026031 0.0 0.0 0.0 0.0
4 1 19.5849464871 2.24104026031 0.0 0.0 0.0 0.0
5 1 24.9282464871 2.27365026031 0.0 0.0 0.0 0.0
6 1 29.9219464871 1.84602026031 0.0 0.0 0.0 0.0
7 1 35.6494464871 0.971050260315 0.0 0.0 0.0 0.0
8 1 41.2047464871 1.80043026031 0.0 0.0 0.0 0.0
9 1 46.2457464871 2.29644026031 0.0 0.0 0.0 0.0
10 1 51.1455464871 1.67955026031 0.0 0.0 0.0 0.0
11 1 56.2651464871 1.08381026031 0.0 0.0 0.0 0.0
12 1 61.2503464871 1.01771026031 0.0 0.0 0.0 0.0
13 1 66.2699464871 1.18088026031 0.0 0.0 0.0 0.0
14 1 71.1032464871 1.94588026031 0.0 0.0 0.0 0.0
15 1 76.4764464871 1.27141026031 0.0 0.0 0.0 0.0
16 1 0.883606487085 5.42518026031 0.0 0.0 0.0 0.0
17 1 6.23277648709 5.44759026031 0.0 0.0 0.0 0.0
18 1 11.8036464871 6.51608026031 0.0 0.0 0.0 0.0
19 1 17.1742464871 6.91289026031 0.0 0.0 0.0 0.0
20 1 22.2323464871 6.70352026031 0.0 0.0 0.0 0.0
21 1 27.7453464871 6.84699026031 0.0 0.0 0.0 0.0
22 1 33.1481464871 5.31306026031 0.0 0.0 0.0 0.0
23 1 38.2275464871 5.38575026031 0.0 0.0 0.0 0.0
24 1 43.0136464871 6.55112026031 0.0 0.0 0.0 0.0
25 1 49.5145464871 6.60587026031 0.0 0.0 0.0 0.0
26 1 54.4639464871 5.85171026031 0.0 0.0 0.0 0.0
27 1 58.5859464871 8.25894026031 0.0 0.0 0.0 0.0
28 1 63.6369464871 5.83657026031 0.0 0.0 0.0 0.0
29 1 68.5394464871 8.13345026031 0.0 0.0 0.0 0.0
30 1 73.9861464871 5.96322026031 0.0 0.0 0.0 0.0
31 1 3.51371648709 9.84502026031 0.0 0.0 0.0 0.0
32 1 8.71028648709 9.98162026031 0.0 0.0 0.0 0.0
33 1 14.1172464871 11.0758202603 0.0 0.0 0.0 0.0
34 1 20.1690464871 11.4662202603 0.0 0.0 0.0 0.0
35 1 25.2437464871 10.9821202603 0.0 0.0 0.0 0.0
36 1 29.4827464871 9.36822026031 0.0 0.0 0.0 0.0
37 1 34.7354464871 9.74362026031 0.0 0.0 0.0 0.0
38 1 39.3244464871 10.4380202603 0.0 0.0 0.0 0.0
39 1 44.5630464871 9.08560026031 0.0 0.0 0.0 0.0
40 1 51.3919464871 10.8027202603 0.0 0.0 0.0 0.0
41 1 56.5543464871 10.5332202603 0.0 0.0 0.0 0.0
42 1 61.5033464871 11.2112202603 0.0 0.0 0.0 0.0
43 1 67.4089464871 10.9268202603 0.0 0.0 0.0 0.0
44 1 72.3992464871 10.6065202603 0.0 0.0 0.0 0.0
45 1 77.2131464871 10.1023202603 0.0 0.0 0.0 0.0
46 1 1.27954648709 14.8625202603 0.0 0.0 0.0 0.0
47 1 6.29327648709 14.3825202603 0.0 0.0 0.0 0.0
48 1 11.1886464871 14.6558202603 0.0 0.0 0.0 0.0
49 1 15.3258464871 13.8400202603 0.0 0.0 0.0 0.0
50 1 24.1119464871 15.5592202603 0.0 0.0 0.0 0.0
51 1 27.0849464871 16.0229202603 0.0 0.0 0.0 0.0
52 1 31.7760464871 15.0202202603 0.0 0.0 0.0 0.0
53 1 37.2259464871 14.9426202603 0.0 0.0 0.0 0.0
54 1 42.9631464871 13.8976202603 0.0 0.0 0.0 0.0
55 1 46.4118464871 16.3379202603 0.0 0.0 0.0 0.0
56 1 53.4504464871 15.2246202603 0.0 0.0 0.0 0.0
57 1 58.4435464871 15.4941202603 0.0 0.0 0.0 0.0
58 1 62.6457464871 14.0126202603 0.0 0.0 0.0 0.0
59 1 69.9461464871 15.3899202603 0.0 0.0 0.0 0.0
60 1 75.1045464871 15.1084202603 0.0 0.0 0.0 0.0
61 1 5.46759648709 18.8108202603 0.0 0.0 0.0 0.0
62 1 8.43317648709 19.2074202603 0.0 0.0 0.0 0.0
63 1 12.7953464871 19.2568202603 0.0 0.0 0.0 0.0
64 1 17.7272464871 19.4368202603 0.0 0.0 0.0 0.0
65 1 22.5292464871 20.5660202603 0.0 0.0 0.0 0.0
66 1 30.4136464871 20.3233202603 0.0 0.0 0.0 0.0
67 1 34.7955464871 19.3921202603 0.0 0.0 0.0 0.0
68 1 41.4665464871 18.0504202603 0.0 0.0 0.0 0.0
69 1 44.4215464871 18.5668202603 0.0 0.0 0.0 0.0
70 1 48.6564464871 18.2881202603 0.0 0.0 0.0 0.0
71 1 55.1373464871 19.9369202603 0.0 0.0 0.0 0.0
72 1 60.6546464871 19.6843202603 0.0 0.0 0.0 0.0
73 1 66.6133464871 18.8917202603 0.0 0.0 0.0 0.0
74 1 72.0513464871 19.6829202603 0.0 0.0 0.0 0.0
75 1 77.3055464871 19.9335202603 0.0 0.0 0.0 0.0
76 1 0.817766487085 24.4809202603 0.0 0.0 0.0 0.0
77 1 5.58594648709 24.3123202603 0.0 0.0 0.0 0.0
78 1 10.3192464871 24.3463202603 0.0 0.0 0.0 0.0
79 1 14.9682464871 24.0449202603 0.0 0.0 0.0 0.0
80 1 19.3964464871 26.6915202603 0.0 0.0 0.0 0.0
81 1 24.8977464871 24.9026202603 0.0 0.0 0.0 0.0
82 1 28.1692464871 22.3286202603 0.0 0.0 0.0 0.0
83 1 36.9858464871 24.0809202603 0.0 0.0 0.0 0.0
84 1 41.7913464871 23.3583202603 0.0 0.0 0.0 0.0
85 1 46.9828464871 23.5323202603 0.0 0.0 0.0 0.0
86 1 51.7757464871 23.5253202603 0.0 0.0 0.0 0.0
87 1 55.9613464871 22.8156202603 0.0 0.0 0.0 0.0
88 1 62.3069464871 22.1927202603 0.0 0.0 0.0 0.0
89 1 69.1170464871 23.4378202603 0.0 0.0 0.0 0.0
90 1 73.0124464871 22.5105202603 0.0 0.0 0.0 0.0
91 1 3.24852648709 29.1575202603 0.0 0.0 0.0 0.0
92 1 7.39612648709 31.4651202603 0.0 0.0 0.0 0.0
93 1 12.5492464871 29.1340202603 0.0 0.0 0.0 0.0
94 1 17.9826464871 29.3301202603 0.0 0.0 0.0 0.0
95 1 23.4027464871 29.3430202603 0.0 0.0 0.0 0.0
96 1 28.8672464871 28.1632202603 0.0 0.0 0.0 0.0
97 1 34.0885464871 27.8051202603 0.0 0.0 0.0 0.0
98 1 41.2625464871 28.0052202603 0.0 0.0 0.0 0.0
99 1 44.2794464871 27.9547202603 0.0 0.0 0.0 0.0
100 1 49.4534464871 28.3638202603 0.0 0.0 0.0 0.0
101 1 54.6637464871 28.2615202603 0.0 0.0 0.0 0.0
102 1 60.0963464871 27.6038202603 0.0 0.0 0.0 0.0
103 1 65.6747464871 27.2232202603 0.0 0.0 0.0 0.0
104 1 71.2934464871 28.1086202603 0.0 0.0 0.0 0.0
105 1 76.2987464871 28.6344202603 0.0 0.0 0.0 0.0
106 1 78.2305464871 33.2422202603 0.0 0.0 0.0 0.0
107 1 5.56496648709 33.8697202603 0.0 0.0 0.0 0.0
108 1 10.5084464871 34.2866202603 0.0 0.0 0.0 0.0
109 1 15.4943464871 33.5325202603 0.0 0.0 0.0 0.0
110 1 20.8886464871 33.5964202603 0.0 0.0 0.0 0.0
111 1 26.3034464871 32.8384202603 0.0 0.0 0.0 0.0
112 1 31.5237464871 32.5307202603 0.0 0.0 0.0 0.0
113 1 36.0657464871 32.9278202603 0.0 0.0 0.0 0.0
114 1 40.9522464871 32.7964202603 0.0 0.0 0.0 0.0
115 1 46.8135464871 32.7481202603 0.0 0.0 0.0 0.0
116 1 51.8686464871 32.8959202603 0.0 0.0 0.0 0.0
117 1 57.2289464871 32.2822202603 0.0 0.0 0.0 0.0
118 1 64.6369464871 31.0595202603 0.0 0.0 0.0 0.0
119 1 67.6158464871 31.5531202603 0.0 0.0 0.0 0.0
120 1 72.7844464871 32.9222202603 0.0 0.0 0.0 0.0
121 1 1.95095648709 37.4377202603 0.0 0.0 0.0 0.0
122 1 7.40075648709 38.7509202603 0.0 0.0 0.0 0.0
123 1 13.8097464871 38.4679202603 0.0 0.0 0.0 0.0
124 1 19.0200464871 37.7549202603 0.0 0.0 0.0 0.0
125 1 23.7298464871 37.4272202603 0.0 0.0 0.0 0.0
126 1 28.5426464871 37.1220202603 0.0 0.0 0.0 0.0
127 1 33.4377464871 37.7179202603 0.0 0.0 0.0 0.0
128 1 38.5995464871 37.6229202603 0.0 0.0 0.0 0.0
129 1 43.8935464871 36.5482202603 0.0 0.0 0.0 0.0
130 1 49.0578464871 37.5927202603 0.0 0.0 0.0 0.0
131 1 54.6012464871 37.0327202603 0.0 0.0 0.0 0.0
132 1 60.1443464871 36.4808202603 0.0 0.0 0.0 0.0
133 1 65.1338464871 35.7302202603 0.0 0.0 0.0 0.0
134 1 69.4357464871 38.8554202603 0.0 0.0 0.0 0.0
135 1 74.9111464871 37.3985202603 0.0 0.0 0.0 0.0
136 1 77.7397464871 41.7362202603 0.0 0.0 0.0 0.0
137 1 3.97672648709 42.1073202603 0.0 0.0 0.0 0.0
138 1 8.55482648709 41.5328202603 0.0 0.0 0.0 0.0
139 1 16.1132464871 42.4363202603 0.0 0.0 0.0 0.0
140 1 22.4534464871 42.2616202603 0.0 0.0 0.0 0.0
141 1 25.4318464871 41.9245202603 0.0 0.0 0.0 0.0
142 1 30.1980464871 42.0510202603 0.0 0.0 0.0 0.0
143 1 34.5905464871 40.5049202603 0.0 0.0 0.0 0.0
144 1 41.8131464871 41.3289202603 0.0 0.0 0.0 0.0
145 1 46.1726464871 43.8085202603 0.0 0.0 0.0 0.0
146 1 50.3005464871 40.3798202603 0.0 0.0 0.0 0.0
147 1 57.8785464871 40.8087202603 0.0 0.0 0.0 0.0
148 1 62.7100464871 40.6922202603 0.0 0.0 0.0 0.0
149 1 67.9726464871 41.5070202603 0.0 0.0 0.0 0.0
150 1 72.7285464871 42.1580202603 0.0 0.0 0.0 0.0
151 1 1.82443648709 46.7944202603 0.0 0.0 0.0 0.0
152 1 6.47788648709 46.7052202603 0.0 0.0 0.0 0.0
153 1 11.5670464871 46.2370202603 0.0 0.0 0.0 0.0
154 1 16.8412464871 47.6649202603 0.0 0.0 0.0 0.0
155 1 21.9754464871 47.6052202603 0.0 0.0 0.0 0.0
156 1 27.5311464871 46.8062202603 0.0 0.0 0.0 0.0
157 1 33.1264464871 46.0926202603 0.0 0.0 0.0 0.0
158 1 38.8075464871 45.9209202603 0.0 0.0 0.0 0.0
159 1 44.4436464871 46.2895202603 0.0 0.0 0.0 0.0
160 1 49.5375464871 46.2350202603 0.0 0.0 0.0 0.0
161 1 56.5619464871 44.7770202603 0.0 0.0 0.0 0.0
162 1 59.5186464871 45.3984202603 0.0 0.0 0.0 0.0
163 1 64.2451464871 45.3144202603 0.0 0.0 0.0 0.0
164 1 68.4680464871 44.4791202603 0.0 0.0 0.0 0.0
165 1 75.1952464871 46.5579202603 0.0 0.0 0.0 0.0
166 1 77.3052464871 51.2680202603 0.0 0.0 0.0 0.0
167 1 4.45940648709 51.6483202603 0.0 0.0 0.0 0.0
168 1 9.35342648709 51.0159202603 0.0 0.0 0.0 0.0
169 1 13.8145464871 53.3437202603 0.0 0.0 0.0 0.0
170 1 19.3949464871 52.2188202603 0.0 0.0 0.0 0.0
171 1 24.7810464871 51.3453202603 0.0 0.0 0.0 0.0
172 1 30.2723464871 50.5815202603 0.0 0.0 0.0 0.0
173 1 35.7257464871 50.0888202603 0.0 0.0 0.0 0.0
174 1 41.1077464871 50.2397202603 0.0 0.0 0.0 0.0
175 1 46.1423464871 50.8090202603 0.0 0.0 0.0 0.0
176 1 53.1590464871 50.5695202603 0.0 0.0 0.0 0.0
177 1 56.1453464871 50.2343202603 0.0 0.0 0.0 0.0
178 1 63.3680464871 49.8768202603 0.0 0.0 0.0 0.0
179 1 66.4010464871 49.9407202603 0.0 0.0 0.0 0.0
180 1 71.5689464871 50.5811202603 0.0 0.0 0.0 0.0
181 1 1.13495648709 55.5928202603 0.0 0.0 0.0 0.0
182 1 7.82468648709 56.0077202603 0.0 0.0 0.0 0.0
183 1 12.7434464871 56.1504202603 0.0 0.0 0.0 0.0
184 1 17.2307464871 59.1206202603 0.0 0.0 0.0 0.0
185 1 22.2804464871 56.1015202603 0.0 0.0 0.0 0.0
186 1 27.6301464871 55.1763202603 0.0 0.0 0.0 0.0
187 1 32.9445464871 54.6128202603 0.0 0.0 0.0 0.0
188 1 37.9757464871 54.5197202603 0.0 0.0 0.0 0.0
189 1 42.8121464871 55.1360202603 0.0 0.0 0.0 0.0
190 1 47.7844464871 55.7960202603 0.0 0.0 0.0 0.0
191 1 52.7469464871 55.5787202603 0.0 0.0 0.0 0.0
192 1 57.7322464871 54.9811202603 0.0 0.0 0.0 0.0
193 1 62.7339464871 55.0870202603 0.0 0.0 0.0 0.0
194 1 69.0001464871 54.8457202603 0.0 0.0 0.0 0.0
195 1 74.2295464871 54.8074202603 0.0 0.0 0.0 0.0
196 1 76.5317464871 59.5106202603 0.0 0.0 0.0 0.0
197 1 2.71758648709 58.1369202603 0.0 0.0 0.0 0.0
198 1 9.55225648709 60.7978202603 0.0 0.0 0.0 0.0
199 1 15.8684464871 61.8146202603 0.0 0.0 0.0 0.0
200 1 20.9222464871 61.1154202603 0.0 0.0 0.0 0.0
201 1 25.5851464871 59.9196202603 0.0 0.0 0.0 0.0
202 1 30.7337464871 59.2550202603 0.0 0.0 0.0 0.0
203 1 35.7993464871 59.2071202603 0.0 0.0 0.0 0.0
204 1 40.3553464871 61.8729202603 0.0 0.0 0.0 0.0
205 1 45.5392464871 60.0700202603 0.0 0.0 0.0 0.0
206 1 50.8643464871 60.2993202603 0.0 0.0 0.0 0.0
207 1 55.7029464871 59.9170202603 0.0 0.0 0.0 0.0
208 1 60.6670464871 59.6416202603 0.0 0.0 0.0 0.0
209 1 64.5990464871 57.4671202603 0.0 0.0 0.0 0.0
210 1 71.9646464871 59.2879202603 0.0 0.0 0.0 0.0
211 1 1.30686648709 63.5440202603 0.0 0.0 0.0 0.0
212 1 5.83145648709 65.6292202603 0.0 0.0 0.0 0.0
213 1 10.9053464871 63.5131202603 0.0 0.0 0.0 0.0
214 1 18.4257464871 66.0006202603 0.0 0.0 0.0 0.0
215 1 23.7424464871 65.2538202603 0.0 0.0 0.0 0.0
216 1 28.7939464871 64.0516202603 0.0 0.0 0.0 0.0
217 1 33.1489464871 66.1394202603 0.0 0.0 0.0 0.0
218 1 38.7383464871 64.4130202603 0.0 0.0 0.0 0.0
219 1 45.4669464871 64.3005202603 0.0 0.0 0.0 0.0
220 1 48.4630464871 64.5591202603 0.0 0.0 0.0 0.0
221 1 53.5380464871 64.8821202603 0.0 0.0 0.0 0.0
222 1 58.9493464871 64.3864202603 0.0 0.0 0.0 0.0
223 1 64.1546464871 63.2878202603 0.0 0.0 0.0 0.0
224 1 69.4457464871 63.1573202603 0.0 0.0 0.0 0.0
225 1 74.6518464871 64.3281202603 0.0 0.0 0.0 0.0
226 1 77.8773464871 68.5990202603 0.0 0.0 0.0 0.0
227 1 5.05676648709 68.5282202603 0.0 0.0 0.0 0.0
228 1 10.0749464871 70.8820202603 0.0 0.0 0.0 0.0
229 1 15.5836464871 69.7046202603 0.0 0.0 0.0 0.0
230 1 21.0102464871 69.9778202603 0.0 0.0 0.0 0.0
231 1 26.2303464871 69.1590202603 0.0 0.0 0.0 0.0
232 1 31.4348464871 68.6254202603 0.0 0.0 0.0 0.0
233 1 36.5426464871 68.9414202603 0.0 0.0 0.0 0.0
234 1 41.1818464871 69.5310202603 0.0 0.0 0.0 0.0
235 1 46.1528464871 71.9363202603 0.0 0.0 0.0 0.0
236 1 51.4299464871 69.3431202603 0.0 0.0 0.0 0.0
237 1 56.9171464871 68.8963202603 0.0 0.0 0.0 0.0
238 1 62.4062464871 68.2111202603 0.0 0.0 0.0 0.0
239 1 67.6570464871 67.5670202603 0.0 0.0 0.0 0.0
240 1 72.3987464871 70.4512202603 0.0 0.0 0.0 0.0
241 1 2.70894648709 72.8206202603 0.0 0.0 0.0 0.0
242 1 8.27489648709 73.2906202603 0.0 0.0 0.0 0.0
243 1 13.3279464871 74.3783202603 0.0 0.0 0.0 0.0
244 1 18.5705464871 74.2044202603 0.0 0.0 0.0 0.0
245 1 23.7486464871 74.0377202603 0.0 0.0 0.0 0.0
246 1 28.6316464871 73.3838202603 0.0 0.0 0.0 0.0
247 1 33.7277464871 73.3097202603 0.0 0.0 0.0 0.0
248 1 39.0568464871 74.0325202603 0.0 0.0 0.0 0.0
249 1 44.5320464871 74.4945202603 0.0 0.0 0.0 0.0
250 1 49.8409464871 74.1850202603 0.0 0.0 0.0 0.0
251 1 55.1630464871 73.2735202603 0.0 0.0 0.0 0.0
252 1 60.3491464871 72.7398202603 0.0 0.0 0.0 0.0
253 1 65.6644464871 72.3281202603 0.0 0.0 0.0 0.0
254 1 71.0056464871 73.1534202603 0.0 0.0 0.0 0.0
255 1 75.9080464871 73.4436202603 0.0 0.0 0.0 0.0
256 1 0.890486487085 2.40774026031 0.0 0.0 0.0 0.0
257 1 6.25685648709 2.43269026031 0.0 0.0 0.0 0.0
258 1 11.6939464871 3.52035026031 0.0 0.0 0.0 0.0
259 1 17.0641464871 3.89678026031 0.0 0.0 0.0 0.0
260 1 22.2474464871 3.68114026031 0.0 0.0 0.0 0.0
261 1 27.5811464871 3.79067026031 0.0 0.0 0.0 0.0
262 1 32.9167464871 2.31180026031 0.0 0.0 0.0 0.0
263 1 38.2734464871 2.41222026031 0.0 0.0 0.0 0.0
264 1 43.5730464871 3.62675026031 0.0 0.0 0.0 0.0
265 1 48.9071464871 3.66983026031 0.0 0.0 0.0 0.0
266 1 53.8778464871 2.90612026031 0.0 0.0 0.0 0.0
267 1 58.7640464871 2.74417026031 0.0 0.0 0.0 0.0
268 1 63.6925464871 2.78843026031 0.0 0.0 0.0 0.0
269 1 68.3958464871 3.30182026031 0.0 0.0 0.0 0.0
270 1 73.9512464871 2.94897026031 0.0 0.0 0.0 0.0
271 1 3.55049648709 6.83307026031 0.0 0.0 0.0 0.0
272 1 8.82841648709 6.99148026031 0.0 0.0 0.0 0.0
273 1 14.3940464871 8.08040026031 0.0 0.0 0.0 0.0
274 1 19.7726464871 8.46337026031 0.0 0.0 0.0 0.0
275 1 24.9624464871 7.98715026031 0.0 0.0 0.0 0.0
276 1 32.1980464871 8.14958026031 0.0 0.0 0.0 0.0
277 1 35.6757464871 6.90681026031 0.0 0.0 0.0 0.0
278 1 40.2151464871 7.58812026031 0.0 0.0 0.0 0.0
279 1 47.5409464871 8.86229026031 0.0 0.0 0.0 0.0
280 1 52.2270464871 7.89174026031 0.0 0.0 0.0 0.0
281 1 57.4591464871 5.47512026031 0.0 0.0 0.0 0.0
282 1 61.6293464871 8.17708026031 0.0 0.0 0.0 0.0
283 1 66.6694464871 5.78621026031 0.0 0.0 0.0 0.0
284 1 71.5373464871 7.73318026031 0.0 0.0 0.0 0.0
285 1 76.7774464871 7.11847026031 0.0 0.0 0.0 0.0
286 1 1.26626648709 11.8408202603 0.0 0.0 0.0 0.0
287 1 6.07717648709 11.3954202603 0.0 0.0 0.0 0.0
288 1 11.1857464871 11.6657202603 0.0 0.0 0.0 0.0
289 1 18.3216464871 13.8435202603 0.0 0.0 0.0 0.0
290 1 22.8698464871 12.8068202603 0.0 0.0 0.0 0.0
291 1 27.4348464871 13.0429202603 0.0 0.0 0.0 0.0
292 1 30.3318464871 12.3097202603 0.0 0.0 0.0 0.0
293 1 36.7434464871 11.9732202603 0.0 0.0 0.0 0.0
294 1 42.2618464871 11.0075202603 0.0 0.0 0.0 0.0
295 1 48.4950464871 11.6982202603 0.0 0.0 0.0 0.0
296 1 54.0323464871 12.2427202603 0.0 0.0 0.0 0.0
297 1 58.7927464871 12.5113202603 0.0 0.0 0.0 0.0
298 1 65.5615464871 13.3021202603 0.0 0.0 0.0 0.0
299 1 70.0117464871 12.4038202603 0.0 0.0 0.0 0.0
300 1 74.9882464871 12.1080202603 0.0 0.0 0.0 0.0
301 1 3.94681648709 16.2284202603 0.0 0.0 0.0 0.0
302 1 8.65879648709 16.2240202603 0.0 0.0 0.0 0.0
303 1 13.6501464871 16.3505202603 0.0 0.0 0.0 0.0
304 1 19.0773464871 16.7546202603 0.0 0.0 0.0 0.0
305 1 21.9492464871 17.6263202603 0.0 0.0 0.0 0.0
306 1 29.8083464871 17.3407202603 0.0 0.0 0.0 0.0
307 1 34.5285464871 16.3582202603 0.0 0.0 0.0 0.0
308 1 40.2591464871 15.3046202603 0.0 0.0 0.0 0.0
309 1 45.9680464871 13.3950202603 0.0 0.0 0.0 0.0
310 1 51.5572464871 17.5868202603 0.0 0.0 0.0 0.0
311 1 55.8600464871 17.0182202603 0.0 0.0 0.0 0.0
312 1 61.1916464871 16.6899202603 0.0 0.0 0.0 0.0
313 1 67.0055464871 15.9310202603 0.0 0.0 0.0 0.0
314 1 72.6067464871 16.7526202603 0.0 0.0 0.0 0.0
315 1 77.4856464871 16.9246202603 0.0 0.0 0.0 0.0
316 1 1.40894648709 21.5497202603 0.0 0.0 0.0 0.0
317 1 4.38703648709 21.5805202603 0.0 0.0 0.0 0.0
318 1 10.5720464871 21.3148202603 0.0 0.0 0.0 0.0
319 1 15.1870464871 21.0434202603 0.0 0.0 0.0 0.0
320 1 19.7378464871 21.6587202603 0.0 0.0 0.0 0.0
321 1 25.1979464871 21.9297202603 0.0 0.0 0.0 0.0
322 1 33.0243464871 21.8570202603 0.0 0.0 0.0 0.0
323 1 37.2774464871 21.0885202603 0.0 0.0 0.0 0.0
324 1 40.2567464871 20.7809202603 0.0 0.0 0.0 0.0
325 1 46.6827464871 20.5434202603 0.0 0.0 0.0 0.0
326 1 52.2100464871 20.5306202603 0.0 0.0 0.0 0.0
327 1 58.8458464871 22.0932202603 0.0 0.0 0.0 0.0
328 1 65.1947464871 21.5165202603 0.0 0.0 0.0 0.0
329 1 69.1708464871 20.4382202603 0.0 0.0 0.0 0.0
330 1 75.9718464871 22.6422202603 0.0 0.0 0.0 0.0
331 1 3.25170648709 26.1769202603 0.0 0.0 0.0 0.0
332 1 7.91325648709 26.1758202603 0.0 0.0 0.0 0.0
333 1 12.7604464871 26.1077202603 0.0 0.0 0.0 0.0
334 1 17.9654464871 24.0799202603 0.0 0.0 0.0 0.0
335 1 22.3912464871 26.5351202603 0.0 0.0 0.0 0.0
336 1 27.8675464871 25.3237202603 0.0 0.0 0.0 0.0
337 1 34.0570464871 24.7454202603 0.0 0.0 0.0 0.0
338 1 39.6579464871 25.4612202603 0.0 0.0 0.0 0.0
339 1 44.3438464871 24.9436202603 0.0 0.0 0.0 0.0
340 1 49.3815464871 25.3427202603 0.0 0.0 0.0 0.0
341 1 54.2323464871 25.2684202603 0.0 0.0 0.0 0.0
342 1 60.5127464871 24.5960202603 0.0 0.0 0.0 0.0
343 1 66.2729464871 24.3015202603 0.0 0.0 0.0 0.0
344 1 71.5755464871 25.1286202603 0.0 0.0 0.0 0.0
345 1 76.4651464871 25.6192202603 0.0 0.0 0.0 0.0
346 1 0.437680487085 30.2853202603 0.0 0.0 0.0 0.0
347 1 6.24031648709 28.7085202603 0.0 0.0 0.0 0.0
348 1 10.4035464871 31.2797202603 0.0 0.0 0.0 0.0
349 1 15.2218464871 30.5315202603 0.0 0.0 0.0 0.0
350 1 20.6897464871 30.6260202603 0.0 0.0 0.0 0.0
351 1 26.3651464871 29.8440202603 0.0 0.0 0.0 0.0
352 1 31.5787464871 29.4984202603 0.0 0.0 0.0 0.0
353 1 36.2934464871 29.9153202603 0.0 0.0 0.0 0.0
354 1 39.2997464871 30.2683202603 0.0 0.0 0.0 0.0
355 1 46.7494464871 29.7199202603 0.0 0.0 0.0 0.0
356 1 52.0835464871 29.8689202603 0.0 0.0 0.0 0.0
357 1 57.5274464871 29.2592202603 0.0 0.0 0.0 0.0
358 1 62.9780464871 28.5469202603 0.0 0.0 0.0 0.0
359 1 68.3337464871 28.6486202603 0.0 0.0 0.0 0.0
360 1 73.6141464871 30.0210202603 0.0 0.0 0.0 0.0
361 1 2.59195648709 34.5004202603 0.0 0.0 0.0 0.0
362 1 7.89267648709 35.7849202603 0.0 0.0 0.0 0.0
363 1 13.2378464871 35.5218202603 0.0 0.0 0.0 0.0
364 1 18.1857464871 34.8788202603 0.0 0.0 0.0 0.0
365 1 23.7629464871 34.4372202603 0.0 0.0 0.0 0.0
366 1 28.9918464871 34.1535202603 0.0 0.0 0.0 0.0
367 1 33.6330464871 34.6906202603 0.0 0.0 0.0 0.0
368 1 38.5567464871 34.6173202603 0.0 0.0 0.0 0.0
369 1 43.8892464871 33.5474202603 0.0 0.0 0.0 0.0
370 1 49.2934464871 34.5368202603 0.0 0.0 0.0 0.0
371 1 54.6931464871 33.9976202603 0.0 0.0 0.0 0.0
372 1 60.0045464871 33.4948202603 0.0 0.0 0.0 0.0
373 1 63.0226464871 33.5658202603 0.0 0.0 0.0 0.0
374 1 69.8217464871 33.6191202603 0.0 0.0 0.0 0.0
375 1 75.4182464871 34.4185202603 0.0 0.0 0.0 0.0
376 1 77.6198464871 38.7285202603 0.0 0.0 0.0 0.0
377 1 4.42120648709 39.1476202603 0.0 0.0 0.0 0.0
378 1 13.3020464871 41.4141202603 0.0 0.0 0.0 0.0
379 1 16.6153464871 39.5004202603 0.0 0.0 0.0 0.0
380 1 21.5019464871 39.4201202603 0.0 0.0 0.0 0.0
381 1 26.2393464871 39.0356202603 0.0 0.0 0.0 0.0
382 1 30.7749464871 39.0978202603 0.0 0.0 0.0 0.0
383 1 37.5767464871 40.4531202603 0.0 0.0 0.0 0.0
384 1 41.4965464871 38.3464202603 0.0 0.0 0.0 0.0
385 1 46.1837464871 38.4792202603 0.0 0.0 0.0 0.0
386 1 53.2589464871 39.7607202603 0.0 0.0 0.0 0.0
387 1 57.4875464871 37.8497202603 0.0 0.0 0.0 0.0
388 1 62.8852464871 37.7086202603 0.0 0.0 0.0 0.0
389 1 68.1378464871 36.1279202603 0.0 0.0 0.0 0.0
390 1 72.4388464871 39.1558202603 0.0 0.0 0.0 0.0
391 1 1.52022648709 43.8014202603 0.0 0.0 0.0 0.0
392 1 6.49358648709 43.7075202603 0.0 0.0 0.0 0.0
393 1 10.9846464871 43.2886202603 0.0 0.0 0.0 0.0
394 1 17.8814464871 44.8531202603 0.0 0.0 0.0 0.0
395 1 20.8810464871 44.8121202603 0.0 0.0 0.0 0.0
396 1 27.7542464871 43.8082202603 0.0 0.0 0.0 0.0
397 1 33.0124464871 43.0789202603 0.0 0.0 0.0 0.0
398 1 39.2762464871 42.9375202603 0.0 0.0 0.0 0.0
399 1 44.8037464871 41.1537202603 0.0 0.0 0.0 0.0
400 1 49.1394464871 43.2251202603 0.0 0.0 0.0 0.0
401 1 55.1819464871 42.0954202603 0.0 0.0 0.0 0.0
402 1 60.3365464871 42.5143202603 0.0 0.0 0.0 0.0
403 1 65.1248464871 42.4346202603 0.0 0.0 0.0 0.0
404 1 71.4147464871 44.8622202603 0.0 0.0 0.0 0.0
405 1 75.3681464871 43.5562202603 0.0 0.0 0.0 0.0
406 1 77.6306464871 48.2920202603 0.0 0.0 0.0 0.0
407 1 4.19355648709 48.6446202603 0.0 0.0 0.0 0.0
408 1 9.15663648709 48.0255202603 0.0 0.0 0.0 0.0
409 1 13.8722464871 48.1558202603 0.0 0.0 0.0 0.0
410 1 19.4206464871 49.2140202603 0.0 0.0 0.0 0.0
411 1 24.9045464871 48.3324202603 0.0 0.0 0.0 0.0
412 1 30.4613464871 47.5737202603 0.0 0.0 0.0 0.0
413 1 35.9930464871 47.0855202603 0.0 0.0 0.0 0.0
414 1 41.5454464871 47.2454202603 0.0 0.0 0.0 0.0
415 1 46.9909464871 47.9072202603 0.0 0.0 0.0 0.0
416 1 52.1549464871 47.7442202603 0.0 0.0 0.0 0.0
417 1 55.1366464871 47.4031202603 0.0 0.0 0.0 0.0
418 1 61.9221464871 47.2168202603 0.0 0.0 0.0 0.0
419 1 66.7549464871 46.9487202603 0.0 0.0 0.0 0.0
420 1 72.4196464871 47.6900202603 0.0 0.0 0.0 0.0
421 1 1.60703648709 52.6336202603 0.0 0.0 0.0 0.0
422 1 7.13768648709 53.0610202603 0.0 0.0 0.0 0.0
423 1 12.3432464871 50.7458202603 0.0 0.0 0.0 0.0
424 1 16.7894464871 53.7538202603 0.0 0.0 0.0 0.0
425 1 22.2873464871 53.0837202603 0.0 0.0 0.0 0.0
426 1 27.6865464871 52.1670202603 0.0 0.0 0.0 0.0
427 1 33.1087464871 51.6080202603 0.0 0.0 0.0 0.0
428 1 38.3739464871 51.5311202603 0.0 0.0 0.0 0.0
429 1 43.4331464871 52.1667202603 0.0 0.0 0.0 0.0
430 1 48.3428464871 52.8530202603 0.0 0.0 0.0 0.0
431 1 51.3410464871 52.9350202603 0.0 0.0 0.0 0.0
432 1 58.5421464871 52.0840202603 0.0 0.0 0.0 0.0
433 1 61.5680464871 52.2954202603 0.0 0.0 0.0 0.0
434 1 68.7933464871 51.8163202603 0.0 0.0 0.0 0.0
435 1 74.3318464871 51.8184202603 0.0 0.0 0.0 0.0
436 1 76.6818464871 56.5201202603 0.0 0.0 0.0 0.0
437 1 5.71085648709 58.1397202603 0.0 0.0 0.0 0.0
438 1 10.2330464871 57.8332202603 0.0 0.0 0.0 0.0
439 1 15.7122464871 56.5547202603 0.0 0.0 0.0 0.0
440 1 20.1221464871 58.2299202603 0.0 0.0 0.0 0.0
441 1 25.1771464871 56.9380202603 0.0 0.0 0.0 0.0
442 1 30.4323464871 56.2660202603 0.0 0.0 0.0 0.0
443 1 35.4863464871 56.2095202603 0.0 0.0 0.0 0.0
444 1 40.1612464871 56.5768202603 0.0 0.0 0.0 0.0
445 1 45.0895464871 57.0995202603 0.0 0.0 0.0 0.0
446 1 50.3455464871 57.3548202603 0.0 0.0 0.0 0.0
447 1 55.4332464871 56.9117202603 0.0 0.0 0.0 0.0
448 1 60.1984464871 56.6812202603 0.0 0.0 0.0 0.0
449 1 67.5996464871 57.5223202603 0.0 0.0 0.0 0.0
450 1 71.6377464871 56.2952202603 0.0 0.0 0.0 0.0
451 1 0.936336487085 60.5608202603 0.0 0.0 0.0 0.0
452 1 6.53538648709 61.0267202603 0.0 0.0 0.0 0.0
453 1 13.8809464871 64.0970202603 0.0 0.0 0.0 0.0
454 1 18.6069464871 63.0194202603 0.0 0.0 0.0 0.0
455 1 23.6872464871 62.2484202603 0.0 0.0 0.0 0.0
456 1 28.3436464871 61.0818202603 0.0 0.0 0.0 0.0
457 1 33.2677464871 60.8657202603 0.0 0.0 0.0 0.0
458 1 38.8186464871 59.2835202603 0.0 0.0 0.0 0.0
459 1 43.3680464871 62.1319202603 0.0 0.0 0.0 0.0
460 1 48.1606464871 61.5688202603 0.0 0.0 0.0 0.0
461 1 53.4178464871 61.8717202603 0.0 0.0 0.0 0.0
462 1 58.2860464871 61.4543202603 0.0 0.0 0.0 0.0
463 1 63.5881464871 60.3162202603 0.0 0.0 0.0 0.0
464 1 69.1000464871 60.1545202603 0.0 0.0 0.0 0.0
465 1 74.1662464871 61.3462202603 0.0 0.0 0.0 0.0
466 1 77.4325464871 65.5800202603 0.0 0.0 0.0 0.0
467 1 4.29616648709 63.0684202603 0.0 0.0 0.0 0.0
468 1 8.83063648709 65.7188202603 0.0 0.0 0.0 0.0
469 1 15.4898464871 66.6775202603 0.0 0.0 0.0 0.0
470 1 21.2656464871 66.9858202603 0.0 0.0 0.0 0.0
471 1 26.6123464871 66.1639202603 0.0 0.0 0.0 0.0
472 1 31.7636464871 63.4894202603 0.0 0.0 0.0 0.0
473 1 36.1606464871 65.9673202603 0.0 0.0 0.0 0.0
474 1 40.8328464871 66.5620202603 0.0 0.0 0.0 0.0
475 1 43.8134464871 66.7641202603 0.0 0.0 0.0 0.0
476 1 50.9032464871 66.3622202603 0.0 0.0 0.0 0.0
477 1 56.3674464871 65.9418202603 0.0 0.0 0.0 0.0
478 1 61.8489464871 65.2429202603 0.0 0.0 0.0 0.0
479 1 66.8436464871 64.6631202603 0.0 0.0 0.0 0.0
480 1 71.7367464871 65.1477202603 0.0 0.0 0.0 0.0
481 1 2.29373648709 69.8123202603 0.0 0.0 0.0 0.0
482 1 8.08393648709 68.6338202603 0.0 0.0 0.0 0.0
483 1 13.0592464871 71.3727202603 0.0 0.0 0.0 0.0
484 1 18.2377464871 71.1941202603 0.0 0.0 0.0 0.0
485 1 23.8386464871 71.0211202603 0.0 0.0 0.0 0.0
486 1 28.9740464871 70.3829202603 0.0 0.0 0.0 0.0
487 1 33.8906464871 70.3289202603 0.0 0.0 0.0 0.0
488 1 38.6420464871 71.0742202603 0.0 0.0 0.0 0.0
489 1 44.1573464871 69.7201202603 0.0 0.0 0.0 0.0
490 1 49.1046464871 71.2806202603 0.0 0.0 0.0 0.0
491 1 54.2876464871 70.3846202603 0.0 0.0 0.0 0.0
492 1 59.8163464871 69.7762202603 0.0 0.0 0.0 0.0
493 1 65.2173464871 69.3446202603 0.0 0.0 0.0 0.0
494 1 70.6569464871 67.9702202603 0.0 0.0 0.0 0.0
495 1 75.4453464871 70.4522202603 0.0 0.0 0.0 0.0
496 1 0.291161487085 74.6487202603 0.0 0.0 0.0 0.0
497 1 5.40075648709 74.2271202603 0.0 0.0 0.0 0.0
498 1 10.4673464871 75.3464202603 0.0 0.0 0.0 0.0
499 1 16.0026464871 75.7921202603 0.0 0.0 0.0 0.0
500 1 21.2183464871 75.6842202603 0.0 0.0 0.0 0.0
501 1 26.4165464871 75.4314202603 0.0 0.0 0.0 0.0
502 1 31.2024464871 74.9248202603 0.0 0.0 0.0 0.0
503 1 36.2089464871 74.9745202603 0.0 0.0 0.0 0.0
504 1 41.6609464871 75.5246202603 0.0 0.0 0.0 0.0
505 1 47.2648464871 75.7484202603 0.0 0.0 0.0 0.0
506 1 52.7261464871 75.0346202603 0.0 0.0 0.0 0.0
507 1 57.9217464871 74.5196202603 0.0 0.0 0.0 0.0
508 1 63.1145464871 73.9414202603 0.0 0.0 0.0 0.0
509 1 68.1110464871 74.0987202603 0.0 0.0 0.0 0.0
510 1 73.3484464871 75.0626202603 0.0 0.0 0.0 0.0
511 1 5.80033648709 77.2259202603 0.0 0.0 0.0 0.0
512 1 10.7412464871 80.1124202603 0.0 0.0 0.0 0.0
513 1 16.3597464871 78.7908202603 0.0 0.0 0.0 0.0
514 1 21.6911464871 78.6796202603 0.0 0.0 0.0 0.0
515 1 26.7723464871 78.4341202603 0.0 0.0 0.0 0.0
516 1 31.8181464871 77.8627202603 0.0 0.0 0.0 0.0
517 1 37.2800464871 79.3299202603 0.0 0.0 0.0 0.0
518 1 42.4181464871 79.9815202603 0.0 0.0 0.0 0.0
519 1 47.8935464871 78.6703202603 0.0 0.0 0.0 0.0
520 1 53.2714464871 77.9837202603 0.0 0.0 0.0 0.0
521 1 58.6870464871 77.4430202603 0.0 0.0 0.0 0.0
522 1 63.6541464871 76.9067202603 0.0 0.0 0.0 0.0
523 1 67.8960464871 79.5325202603 0.0 0.0 0.0 0.0
524 1 73.3943464871 78.0908202603 0.0 0.0 0.0 0.0
525 1 0.490094487085 77.6724202603 0.0 0.0 0.0 0.0
526 1 3.27240648709 78.8998202603 0.0 0.0 0.0 0.0
527 1 8.77432648709 77.8289202603 0.0 0.0 0.0 0.0
528 1 13.7654464871 80.3394202603 0.0 0.0 0.0 0.0
529 1 19.0628464871 80.1726202603 0.0 0.0 0.0 0.0
530 1 24.3229464871 80.2034202603 0.0 0.0 0.0 0.0
531 1 29.4816464871 79.7698202603 0.0 0.0 0.0 0.0
532 1 34.8193464871 77.6251202603 0.0 0.0 0.0 0.0
533 1 40.0768464871 78.1101202603 0.0 0.0 0.0 0.0
534 1 45.4004464871 80.3305202603 0.0 0.0 0.0 0.0
535 1 50.7463464871 79.6170202603 0.0 0.0 0.0 0.0
536 1 56.1062464871 78.9959202603 0.0 0.0 0.0 0.0
537 1 61.3519464871 78.8878202603 0.0 0.0 0.0 0.0
538 1 66.6787464871 76.7745202603 0.0 0.0 0.0 0.0
539 1 70.9076464871 79.8435202603 0.0 0.0 0.0 0.0
540 1 76.2358464871 79.1667202603 0.0 0.0 0.0 0.0
541 2 2.23614648709 1.71113026031 0.0 0.0 0.0 0.0
542 2 4.93711648709 1.68649026031 0.0 0.0 0.0 0.0
543 2 3.44793648709 80.4036202603 0.0 0.0 0.0 0.0
544 2 9.93534648709 0.475290260315 0.0 0.0 0.0 0.0
545 2 10.4016464871 2.74707026031 0.0 0.0 0.0 0.0
546 2 7.72686648709 2.04227026031 0.0 0.0 0.0 0.0
547 2 14.1862464871 0.877690260315 0.0 0.0 0.0 0.0
548 2 15.7605464871 3.12843026031 0.0 0.0 0.0 0.0
549 2 13.0895464871 2.96387026031 0.0 0.0 0.0 0.0
550 2 19.3141464871 0.755250260315 0.0 0.0 0.0 0.0
551 2 20.9299464871 2.93328026031 0.0 0.0 0.0 0.0
552 2 18.3345464871 3.08860026031 0.0 0.0 0.0 0.0
553 2 24.6419464871 0.776810260315 0.0 0.0 0.0 0.0
554 2 26.2473464871 3.03534026031 0.0 0.0 0.0 0.0
555 2 23.5937464871 2.99880026031 0.0 0.0 0.0 0.0
556 2 29.6631464871 0.353660260315 0.0 0.0 0.0 0.0
557 2 31.4263464871 2.04897026031 0.0 0.0 0.0 0.0
558 2 28.7856464871 2.85036026031 0.0 0.0 0.0 0.0
559 2 36.4662464871 80.6070202603 0.0 0.0 0.0 0.0
560 2 36.9301464871 1.77626026031 0.0 0.0 0.0 0.0
561 2 34.2420464871 1.55326026031 0.0 0.0 0.0 0.0
562 2 41.7905464871 0.430720260315 0.0 0.0 0.0 0.0
563 2 42.3468464871 2.77178026031 0.0 0.0 0.0 0.0
564 2 39.7261464871 2.02837026031 0.0 0.0 0.0 0.0
565 2 45.8693464871 0.848090260315 0.0 0.0 0.0 0.0
566 2 47.5617464871 3.00508026031 0.0 0.0 0.0 0.0
567 2 44.9418464871 3.03689026031 0.0 0.0 0.0 0.0
568 2 50.9362464871 0.197586260315 0.0 0.0 0.0 0.0
569 2 52.5148464871 2.28410026031 0.0 0.0 0.0 0.0
570 2 50.0235464871 2.67190026031 0.0 0.0 0.0 0.0
571 2 56.1941464871 80.4971202603 0.0 0.0 0.0 0.0
572 2 57.5440464871 1.86081026031 0.0 0.0 0.0 0.0
573 2 55.0520464871 1.97008026031 0.0 0.0 0.0 0.0
574 2 61.3217464871 80.4084202603 0.0 0.0 0.0 0.0
575 2 62.4753464871 1.89558026031 0.0 0.0 0.0 0.0
576 2 60.0223464871 1.91050026031 0.0 0.0 0.0 0.0
577 2 66.9842464871 80.7487202603 0.0 0.0 0.0 0.0
578 2 67.3527464871 2.22240026031 0.0 0.0 0.0 0.0
579 2 64.9487464871 1.92805026031 0.0 0.0 0.0 0.0
580 2 71.0507464871 0.438250260315 0.0 0.0 0.0 0.0
581 2 72.5237464871 2.45459026031 0.0 0.0 0.0 0.0
582 2 69.8033464871 2.73251026031 0.0 0.0 0.0 0.0
583 2 75.2137464871 2.11509026031 0.0 0.0 0.0 0.0
584 2 77.8873464871 1.82403026031 0.0 0.0 0.0 0.0
585 2 76.3485464871 80.6769202603 0.0 0.0 0.0 0.0
586 2 0.887086487085 3.92003026031 0.0 0.0 0.0 0.0
587 2 2.22371648709 6.12115026031 0.0 0.0 0.0 0.0
588 2 78.0163464871 6.25440026031 0.0 0.0 0.0 0.0
589 2 6.22163648709 3.94348026031 0.0 0.0 0.0 0.0
590 2 7.55134648709 6.19041026031 0.0 0.0 0.0 0.0
591 2 4.89331648709 6.14578026031 0.0 0.0 0.0 0.0
592 2 11.7810464871 5.01433026031 0.0 0.0 0.0 0.0
593 2 13.0892464871 7.30889026031 0.0 0.0 0.0 0.0
594 2 10.3165464871 6.77332026031 0.0 0.0 0.0 0.0
595 2 17.1381464871 5.40271026031 0.0 0.0 0.0 0.0
596 2 18.4527464871 7.72066026031 0.0 0.0 0.0 0.0
597 2 15.7863464871 7.50623026031 0.0 0.0 0.0 0.0
598 2 22.2151464871 5.19416026031 0.0 0.0 0.0 0.0