ITEM: TIMESTEP
0
ITEM: NUMBER OF ATOMS
1350
ITEM: BOX BOUNDS xy xz yz pp pp pp
0.0 78.0816908611 0
0.0 81.2721632558 0
-10.0 10.0 0
ITEM: ATOMS id type x y z vx vy vz
1 1 1.89035320739 0.79343162791 0.0 0.0 0.0 0.0
2 1 7.23015320739 1.00857162791 0.0 0.0 0.0 0.0
3 1 14.4318832074 0.67330162791 0.0 0.0 0.0 0.0
4 1 17.4349832074 0.95138162791 0.0 0.0 0.0 0.0
5 1 22.7880832074 1.85327162791 0.0 0.0 0.0 0.0
6 1 27.8371832074 2.30072162791 0.0 0.0 0.0 0.0
7 1 33.1470832074 2.25089162791 0.0 0.0 0.0 0.0
8 1 38.5730832074 2.85089162791 0.0 0.0 0.0 0.0
9 1 43.5707832074 2.52920162791 0.0 0.0 0.0 0.0
10 1 48.9954832074 1.66506162791 0.0 0.0 0.0 0.0
11 1 54.7504832074 1.84221162791 0.0 0.0 0.0 0.0
12 1 59.8216832074 1.06106162791 0.0 0.0 0.0 0.0
13 1 64.3971832074 0.0469586279103 0.0 0.0 0.0 0.0
14 1 69.4874832074 81.2239816279 0.0 0.0 0.0 0.0
15 1 74.7027832074 0.84922162791 0.0 0.0 0.0 0.0
16 1 77.3208832074 5.27699162791 0.0 0.0 0.0 0.0
17 1 4.13445320739 5.30250162791 0.0 0.0 0.0 0.0
18 1 8.99533320739 5.67826162791 0.0 0.0 0.0 0.0
19 1 13.8170832074 5.89563162791 0.0 0.0 0.0 0.0
20 1 19.2305832074 5.64151162791 0.0 0.0 0.0 0.0
21 1 24.6614832074 6.74362162791 0.0 0.0 0.0 0.0
22 1 31.2761832074 6.65278162791 0.0 0.0 0.0 0.0
23 1 36.0287832074 8.96364162791 0.0 0.0 0.0 0.0
24 1 41.5708832074 7.40498162791 0.0 0.0 0.0 0.0
25 1 48.1103832074 5.77322162791 0.0 0.0 0.0 0.0
26 1 50.6251832074 4.17118162791 0.0 0.0 0.0 0.0
27 1 57.6249832074 5.97488162791 0.0 0.0 0.0 0.0
28 1 62.5095832074 5.39966162791 0.0 0.0 0.0 0.0
29 1 67.2335832074 4.55288162791 0.0 0.0 0.0 0.0
30 1 71.6410832074 6.91009162791 0.0 0.0 0.0 0.0
31 1 2.22978320739 10.0212816279 0.0 0.0 0.0 0.0
32 1 6.95110320739 10.1943816279 0.0 0.0 0.0 0.0
33 1 11.9465832074 12.4915816279 0.0 0.0 0.0 0.0
34 1 17.1403832074 10.0536816279 0.0 0.0 0.0 0.0
35 1 22.3841832074 12.0095816279 0.0 0.0 0.0 0.0
36 1 26.5317832074 9.14563162791 0.0 0.0 0.0 0.0
37 1 34.0515832074 11.2493816279 0.0 0.0 0.0 0.0
38 1 39.6265832074 12.0562816279 0.0 0.0 0.0 0.0
39 1 44.7464832074 11.9025816279 0.0 0.0 0.0 0.0
40 1 49.4610832074 10.6390816279 0.0 0.0 0.0 0.0
41 1 54.8748832074 10.3470816279 0.0 0.0 0.0 0.0
42 1 59.9430832074 10.3967816279 0.0 0.0 0.0 0.0
43 1 65.1076832074 9.76388162791 0.0 0.0 0.0 0.0
44 1 69.9686832074 9.40230162791 0.0 0.0 0.0 0.0
45 1 75.0986832074 9.53598162791 0.0 0.0 0.0 0.0
46 1 76.5618832074 16.3322816279 0.0 0.0 0.0 0.0
47 1 4.23456320739 15.0042816279 0.0 0.0 0.0 0.0
48 1 10.3830832074 15.0754816279 0.0 0.0 0.0 0.0
49 1 15.6123832074 15.1097816279 0.0 0.0 0.0 0.0
50 1 21.5318832074 14.8770816279 0.0 0.0 0.0 0.0
51 1 26.4245832074 14.8331816279 0.0 0.0 0.0 0.0
52 1 30.8234832074 14.8193816279 0.0 0.0 0.0 0.0
53 1 35.0023832074 14.0966816279 0.0 0.0 0.0 0.0
54 1 41.5827832074 16.4609816279 0.0 0.0 0.0 0.0
55 1 49.3710832074 15.3791816279 0.0 0.0 0.0 0.0
56 1 52.3602832074 14.8563816279 0.0 0.0 0.0 0.0
57 1 57.7237832074 15.0459816279 0.0 0.0 0.0 0.0
58 1 62.8694832074 14.5813816279 0.0 0.0 0.0 0.0
59 1 67.8394832074 14.3492816279 0.0 0.0 0.0 0.0
60 1 72.6803832074 13.9689816279 0.0 0.0 0.0 0.0
61 1 1.13914320739 19.0943816279 0.0 0.0 0.0 0.0
62 1 5.44526320739 17.7865816279 0.0 0.0 0.0 0.0
63 1 12.8717832074 19.5213816279 0.0 0.0 0.0 0.0
64 1 17.0608832074 17.7414816279 0.0 0.0 0.0 0.0
65 1 23.4610832074 21.9948816279 0.0 0.0 0.0 0.0
66 1 28.8508832074 19.9565816279 0.0 0.0 0.0 0.0
67 1 33.9739832074 19.5034816279 0.0 0.0 0.0 0.0
68 1 38.6427832074 22.4274816279 0.0 0.0 0.0 0.0
69 1 44.1413832074 20.9080816279 0.0 0.0 0.0 0.0
70 1 50.0095832074 21.1524816279 0.0 0.0 0.0 0.0
71 1 55.5279832074 19.3670816279 0.0 0.0 0.0 0.0
72 1 62.0953832074 18.9453816279 0.0 0.0 0.0 0.0
73 1 65.1229832074 19.1505816279 0.0 0.0 0.0 0.0
74 1 71.5138832074 18.7090816279 0.0 0.0 0.0 0.0
75 1 74.5092832074 18.5228816279 0.0 0.0 0.0 0.0
76 1 77.3481832074 23.5204816279 0.0 0.0 0.0 0.0
77 1 4.14114320739 25.2894816279 0.0 0.0 0.0 0.0
78 1 9.74448320739 22.9853816279 0.0 0.0 0.0 0.0
79 1 15.7688832074 23.4278816279 0.0 0.0 0.0 0.0
80 1 21.5374832074 24.3371816279 0.0 0.0 0.0 0.0
81 1 26.5948832074 24.9146816279 0.0 0.0 0.0 0.0
82 1 31.9481832074 24.3825816279 0.0 0.0 0.0 0.0
83 1 37.2568832074 25.1125816279 0.0 0.0 0.0 0.0
84 1 42.3498832074 25.5813816279 0.0 0.0 0.0 0.0
85 1 50.1612832074 24.1296816279 0.0 0.0 0.0 0.0
86 1 53.1304832074 23.9874816279 0.0 0.0 0.0 0.0
87 1 57.3758832074 24.5084816279 0.0 0.0 0.0 0.0
88 1 62.0093832074 24.3257816279 0.0 0.0 0.0 0.0
89 1 67.0931832074 24.2777816279 0.0 0.0 0.0 0.0
90 1 72.0388832074 23.9901816279 0.0 0.0 0.0 0.0
91 1 2.63179320739 27.9377816279 0.0 0.0 0.0 0.0
92 1 7.63300320739 27.3871816279 0.0 0.0 0.0 0.0
93 1 12.3490832074 26.6754816279 0.0 0.0 0.0 0.0
94 1 17.7545832074 27.6994816279 0.0 0.0 0.0 0.0
95 1 23.7234832074 29.2884816279 0.0 0.0 0.0 0.0
96 1 29.2426832074 29.0503816279 0.0 0.0 0.0 0.0
97 1 34.2474832074 29.2094816279 0.0 0.0 0.0 0.0
98 1 39.2230832074 29.9121816279 0.0 0.0 0.0 0.0
99 1 46.2953832074 29.4432816279 0.0 0.0 0.0 0.0
100 1 49.2600832074 29.0825816279 0.0 0.0 0.0 0.0
101 1 54.4425832074 29.2809816279 0.0 0.0 0.0 0.0
102 1 59.6089832074 29.3217816279 0.0 0.0 0.0 0.0
103 1 64.7985832074 28.9260816279 0.0 0.0 0.0 0.0
104 1 69.9962832074 28.8477816279 0.0 0.0 0.0 0.0
105 1 75.2216832074 28.2289816279 0.0 0.0 0.0 0.0
106 1 77.8781832074 32.4298816279 0.0 0.0 0.0 0.0
107 1 7.19655320739 31.6188816279 0.0 0.0 0.0 0.0
108 1 10.1972832074 31.8059816279 0.0 0.0 0.0 0.0
109 1 14.7488832074 31.3084816279 0.0 0.0 0.0 0.0
110 1 19.3211832074 33.1937816279 0.0 0.0 0.0 0.0
111 1 26.0576832074 33.3516816279 0.0 0.0 0.0 0.0
112 1 31.2121832074 33.8118816279 0.0 0.0 0.0 0.0
113 1 36.4658832074 34.2603816279 0.0 0.0 0.0 0.0
114 1 41.6686832074 34.5387816279 0.0 0.0 0.0 0.0
115 1 46.5979832074 34.2896816279 0.0 0.0 0.0 0.0
116 1 51.8566832074 33.7288816279 0.0 0.0 0.0 0.0
117 1 56.9051832074 33.8577816279 0.0 0.0 0.0 0.0
118 1 62.0982832074 33.6430816279 0.0 0.0 0.0 0.0
119 1 67.4420832074 33.4515816279 0.0 0.0 0.0 0.0
120 1 72.5715832074 33.0632816279 0.0 0.0 0.0 0.0
121 1 2.36273320739 36.7138816279 0.0 0.0 0.0 0.0
122 1 7.60941320739 36.3058816279 0.0 0.0 0.0 0.0
123 1 13.1885832074 36.4787816279 0.0 0.0 0.0 0.0
124 1 18.4301832074 36.0915816279 0.0 0.0 0.0 0.0
125 1 22.6036832074 39.5329816279 0.0 0.0 0.0 0.0
126 1 28.2248832074 38.0684816279 0.0 0.0 0.0 0.0
127 1 32.2679832074 36.6357816279 0.0 0.0 0.0 0.0
128 1 39.0795832074 38.8394816279 0.0 0.0 0.0 0.0
129 1 44.2133832074 39.0753816279 0.0 0.0 0.0 0.0
130 1 49.5310832074 38.4362816279 0.0 0.0 0.0 0.0
131 1 54.3369832074 38.4606816279 0.0 0.0 0.0 0.0
132 1 59.3755832074 38.2911816279 0.0 0.0 0.0 0.0
133 1 64.3598832074 37.9218816279 0.0 0.0 0.0 0.0
134 1 69.5855832074 37.8565816279 0.0 0.0 0.0 0.0
135 1 75.1039832074 37.2057816279 0.0 0.0 0.0 0.0
136 1 77.9857832074 41.2509816279 0.0 0.0 0.0 0.0
137 1 5.12383320739 40.9001816279 0.0 0.0 0.0 0.0
138 1 10.2463832074 40.6069816279 0.0 0.0 0.0 0.0
139 1 15.7620832074 40.8692816279 0.0 0.0 0.0 0.0
140 1 21.6241832074 42.3753816279 0.0 0.0 0.0 0.0
141 1 26.6831832074 42.3263816279 0.0 0.0 0.0 0.0
142 1 31.7451832074 42.2640816279 0.0 0.0 0.0 0.0
143 1 36.3016832074 42.8837816279 0.0 0.0 0.0 0.0
144 1 41.1870832074 43.4457816279 0.0 0.0 0.0 0.0
145 1 46.5390832074 43.0357816279 0.0 0.0 0.0 0.0
146 1 51.5871832074 43.2659816279 0.0 0.0 0.0 0.0
147 1 56.8393832074 43.0411816279 0.0 0.0 0.0 0.0
148 1 62.0355832074 42.7955816279 0.0 0.0 0.0 0.0
149 1 66.9622832074 42.3810816279 0.0 0.0 0.0 0.0
150 1 71.0070832074 40.5183816279 0.0 0.0 0.0 0.0
151 1 3.07608320739 45.4495816279 0.0 0.0 0.0 0.0
152 1 7.85406320739 47.1115816279 0.0 0.0 0.0 0.0
153 1 13.1107832074 44.9435816279 0.0 0.0 0.0 0.0
154 1 17.0716832074 43.6186816279 0.0 0.0 0.0 0.0
155 1 23.7194832074 46.8796816279 0.0 0.0 0.0 0.0
156 1 28.8753832074 46.8603816279 0.0 0.0 0.0 0.0
157 1 33.7607832074 47.5389816279 0.0 0.0 0.0 0.0
158 1 38.8269832074 47.8899816279 0.0 0.0 0.0 0.0
159 1 44.1828832074 47.5565816279 0.0 0.0 0.0 0.0
160 1 48.7648832074 49.7459816279 0.0 0.0 0.0 0.0
161 1 54.2297832074 47.6418816279 0.0 0.0 0.0 0.0
162 1 59.7952832074 47.4423816279 0.0 0.0 0.0 0.0
163 1 65.1239832074 47.2787816279 0.0 0.0 0.0 0.0
164 1 70.3548832074 46.2810816279 0.0 0.0 0.0 0.0
165 1 75.8378832074 45.6706816279 0.0 0.0 0.0 0.0
166 1 1.17725320739 49.9549816279 0.0 0.0 0.0 0.0
167 1 6.48324320739 49.7609816279 0.0 0.0 0.0 0.0
168 1 11.4629832074 49.7839816279 0.0 0.0 0.0 0.0
169 1 16.3367832074 49.3306816279 0.0 0.0 0.0 0.0
170 1 21.0863832074 50.7043816279 0.0 0.0 0.0 0.0
171 1 26.2560832074 51.3846816279 0.0 0.0 0.0 0.0
172 1 30.8340832074 53.8795816279 0.0 0.0 0.0 0.0
173 1 36.2075832074 52.3734816279 0.0 0.0 0.0 0.0
174 1 41.4405832074 52.1394816279 0.0 0.0 0.0 0.0
175 1 46.9996832074 52.1938816279 0.0 0.0 0.0 0.0
176 1 52.1146832074 52.3667816279 0.0 0.0 0.0 0.0
177 1 57.1429832074 51.7203816279 0.0 0.0 0.0 0.0
178 1 62.4596832074 51.8070816279 0.0 0.0 0.0 0.0
179 1 68.5352832074 51.1832816279 0.0 0.0 0.0 0.0
180 1 73.8975832074 50.1505816279 0.0 0.0 0.0 0.0
181 1 5.70240320739 53.7139816279 0.0 0.0 0.0 0.0
182 1 8.65559320739 54.3945816279 0.0 0.0 0.0 0.0
183 1 13.9246832074 54.2801816279 0.0 0.0 0.0 0.0
184 1 18.1594832074 57.1670816279 0.0 0.0 0.0 0.0
185 1 23.5330832074 55.6213816279 0.0 0.0 0.0 0.0
186 1 28.9650832074 56.2331816279 0.0 0.0 0.0 0.0
187 1 33.8234832074 57.2472816279 0.0 0.0 0.0 0.0
188 1 38.7896832074 56.8009816279 0.0 0.0 0.0 0.0
189 1 43.8460832074 56.3497816279 0.0 0.0 0.0 0.0
190 1 49.4647832074 56.8358816279 0.0 0.0 0.0 0.0
191 1 54.6569832074 56.6225816279 0.0 0.0 0.0 0.0
192 1 59.8356832074 56.1565816279 0.0 0.0 0.0 0.0
193 1 64.2244832074 54.2450816279 0.0 0.0 0.0 0.0
194 1 71.5347832074 54.9146816279 0.0 0.0 0.0 0.0
195 1 76.7719832074 54.4358816279 0.0 0.0 0.0 0.0
196 1 0.963333207389 59.2483816279 0.0 0.0 0.0 0.0
197 1 5.83927320739 58.6416816279 0.0 0.0 0.0 0.0
198 1 11.2557832074 58.8533816279 0.0 0.0 0.0 0.0
199 1 16.5590832074 59.7348816279 0.0 0.0 0.0 0.0
200 1 21.5418832074 60.4881816279 0.0 0.0 0.0 0.0
201 1 26.4189832074 60.2160816279 0.0 0.0 0.0 0.0
202 1 30.8128832074 63.5115816279 0.0 0.0 0.0 0.0
203 1 36.3002832074 61.7346816279 0.0 0.0 0.0 0.0
204 1 41.4339832074 61.2284816279 0.0 0.0 0.0 0.0
205 1 46.4759832074 60.6076816279 0.0 0.0 0.0 0.0
206 1 51.9448832074 61.2279816279 0.0 0.0 0.0 0.0
207 1 57.4173832074 60.8832816279 0.0 0.0 0.0 0.0
208 1 62.9237832074 59.8808816279 0.0 0.0 0.0 0.0
209 1 68.9702832074 59.4152816279 0.0 0.0 0.0 0.0
210 1 74.2079832074 59.1255816279 0.0 0.0 0.0 0.0
211 1 4.48658320739 63.5102816279 0.0 0.0 0.0 0.0
212 1 10.0151832074 64.5265816279 0.0 0.0 0.0 0.0
213 1 12.9128832074 63.5913816279 0.0 0.0 0.0 0.0
214 1 18.4964832074 64.7428816279 0.0 0.0 0.0 0.0
215 1 23.9188832074 65.1439816279 0.0 0.0 0.0 0.0
216 1 29.1833832074 66.0570816279 0.0 0.0 0.0 0.0
217 1 34.2641832074 66.4724816279 0.0 0.0 0.0 0.0
218 1 39.3121832074 66.0523816279 0.0 0.0 0.0 0.0
219 1 45.8998832074 64.9569816279 0.0 0.0 0.0 0.0
220 1 48.8979832074 65.0650816279 0.0 0.0 0.0 0.0
221 1 53.1429832074 63.9802816279 0.0 0.0 0.0 0.0
222 1 60.2926832074 64.4328816279 0.0 0.0 0.0 0.0
223 1 64.6429832074 62.3443816279 0.0 0.0 0.0 0.0
224 1 71.8743832074 63.7270816279 0.0 0.0 0.0 0.0
225 1 77.0212832074 63.9186816279 0.0 0.0 0.0 0.0
226 1 0.986403207389 67.8084816279 0.0 0.0 0.0 0.0
227 1 6.06531320739 68.6165816279 0.0 0.0 0.0 0.0
228 1 9.93488320739 70.0166816279 0.0 0.0 0.0 0.0
229 1 15.2491832074 68.1722816279 0.0 0.0 0.0 0.0
230 1 20.8533832074 69.3075816279 0.0 0.0 0.0 0.0
231 1 25.9521832074 70.0339816279 0.0 0.0 0.0 0.0
232 1 31.3697832074 70.8485816279 0.0 0.0 0.0 0.0
233 1 36.8039832074 70.9042816279 0.0 0.0 0.0 0.0
234 1 41.9086832074 70.6276816279 0.0 0.0 0.0 0.0
235 1 46.8072832074 70.0755816279 0.0 0.0 0.0 0.0
236 1 52.1901832074 69.4658816279 0.0 0.0 0.0 0.0
237 1 57.6753832074 69.0908816279 0.0 0.0 0.0 0.0
238 1 63.1732832074 67.9890816279 0.0 0.0 0.0 0.0
239 1 68.6816832074 67.7683816279 0.0 0.0 0.0 0.0
240 1 73.8586832074 68.3546816279 0.0 0.0 0.0 0.0
241 1 2.59772320739 72.6567816279 0.0 0.0 0.0 0.0
242 1 7.30267320739 74.3326816279 0.0 0.0 0.0 0.0
243 1 11.5516832074 72.5379816279 0.0 0.0 0.0 0.0
244 1 17.4080832074 75.2164816279 0.0 0.0 0.0 0.0
245 1 21.5514832074 72.2535816279 0.0 0.0 0.0 0.0
246 1 28.3492832074 74.6173816279 0.0 0.0 0.0 0.0
247 1 32.4882832074 73.6348816279 0.0 0.0 0.0 0.0
248 1 39.4204832074 75.2972816279 0.0 0.0 0.0 0.0
249 1 44.4635832074 75.0384816279 0.0 0.0 0.0 0.0
250 1 49.5855832074 74.1350816279 0.0 0.0 0.0 0.0
251 1 54.8029832074 73.5809816279 0.0 0.0 0.0 0.0
252 1 62.1722832074 72.2690816279 0.0 0.0 0.0 0.0
253 1 65.1888832074 71.9971816279 0.0 0.0 0.0 0.0
254 1 70.5568832074 72.5558816279 0.0 0.0 0.0 0.0
255 1 77.6893832074 72.3596816279 0.0 0.0 0.0 0.0
256 1 77.3514832074 2.27231162791 0.0 0.0 0.0 0.0
257 1 4.50223320739 2.30814162791 0.0 0.0 0.0 0.0
258 1 9.68018320739 2.76188162791 0.0 0.0 0.0 0.0
259 1 12.6728832074 3.10415162791 0.0 0.0 0.0 0.0
260 1 19.8830832074 2.70837162791 0.0 0.0 0.0 0.0
261 1 25.1657832074 3.74345162791 0.0 0.0 0.0 0.0
262 1 30.5090832074 3.73041162791 0.0 0.0 0.0 0.0
263 1 35.7089832074 3.83842162791 0.0 0.0 0.0 0.0
264 1 41.1840832074 4.39222162791 0.0 0.0 0.0 0.0
265 1 46.4682832074 3.28071162791 0.0 0.0 0.0 0.0
266 1 53.5759832074 4.62530162791 0.0 0.0 0.0 0.0
267 1 57.5227832074 2.97351162791 0.0 0.0 0.0 0.0
268 1 62.5022832074 2.38413162791 0.0 0.0 0.0 0.0
269 1 66.9664832074 1.57049162791 0.0 0.0 0.0 0.0
270 1 71.8513832074 1.78530162791 0.0 0.0 0.0 0.0
271 1 1.68447320739 7.04292162791 0.0 0.0 0.0 0.0
272 1 6.43393320739 7.23100162791 0.0 0.0 0.0 0.0
273 1 11.3220832074 7.56364162791 0.0 0.0 0.0 0.0
274 1 16.5846832074 7.09125162791 0.0 0.0 0.0 0.0
275 1 21.6928832074 7.37200162791 0.0 0.0 0.0 0.0
276 1 29.5616832074 9.15793162791 0.0 0.0 0.0 0.0
277 1 34.3001832074 6.50269162791 0.0 0.0 0.0 0.0
278 1 39.0532832074 9.10164162791 0.0 0.0 0.0 0.0
279 1 44.2091832074 8.93450162791 0.0 0.0 0.0 0.0
280 1 47.2174832074 8.61980162791 0.0 0.0 0.0 0.0
281 1 54.9431832074 7.31872162791 0.0 0.0 0.0 0.0
282 1 60.2577832074 7.40114162791 0.0 0.0 0.0 0.0
283 1 65.1873832074 6.75387162791 0.0 0.0 0.0 0.0
284 1 70.2177832074 4.29769162791 0.0 0.0 0.0 0.0
285 1 74.6262832074 6.59267162791 0.0 0.0 0.0 0.0
286 1 77.5609832074 11.2203816279 0.0 0.0 0.0 0.0
287 1 4.53008320739 11.9869816279 0.0 0.0 0.0 0.0
288 1 9.96398320739 10.2412816279 0.0 0.0 0.0 0.0
289 1 14.9691832074 12.1745816279 0.0 0.0 0.0 0.0
290 1 20.1699832074 9.97448162791 0.0 0.0 0.0 0.0
291 1 25.4089832074 11.9655816279 0.0 0.0 0.0 0.0
292 1 31.0823832074 11.7824816279 0.0 0.0 0.0 0.0
293 1 37.9492832074 14.5490816279 0.0 0.0 0.0 0.0
294 1 42.2303832074 13.5276816279 0.0 0.0 0.0 0.0
295 1 47.5722832074 12.9623816279 0.0 0.0 0.0 0.0
296 1 52.2433832074 11.8281816279 0.0 0.0 0.0 0.0
297 1 57.4005832074 12.0285816279 0.0 0.0 0.0 0.0
298 1 62.7072832074 11.5773816279 0.0 0.0 0.0 0.0
299 1 67.6666832074 11.3340816279 0.0 0.0 0.0 0.0
300 1 72.4825832074 11.0018816279 0.0 0.0 0.0 0.0
301 1 1.45906320739 16.1283816279 0.0 0.0 0.0 0.0
302 1 8.42813320739 17.3748816279 0.0 0.0 0.0 0.0
303 1 12.9854832074 16.5398816279 0.0 0.0 0.0 0.0
304 1 20.0302832074 17.4555816279 0.0 0.0 0.0 0.0
305 1 23.9923832074 16.5776816279 0.0 0.0 0.0 0.0
306 1 28.6364832074 16.8992816279 0.0 0.0 0.0 0.0
307 1 33.2858832074 16.5548816279 0.0 0.0 0.0 0.0
308 1 38.7457832074 17.4466816279 0.0 0.0 0.0 0.0
309 1 44.1970832074 17.9071816279 0.0 0.0 0.0 0.0
310 1 47.1506832074 17.4142816279 0.0 0.0 0.0 0.0
311 1 55.0047832074 16.3825816279 0.0 0.0 0.0 0.0
312 1 60.4605832074 16.3850816279 0.0 0.0 0.0 0.0
313 1 65.4362832074 16.1545816279 0.0 0.0 0.0 0.0
314 1 70.4041832074 15.9202816279 0.0 0.0 0.0 0.0
315 1 75.6403832074 13.5165816279 0.0 0.0 0.0 0.0
316 1 76.6339832074 20.6168816279 0.0 0.0 0.0 0.0
317 1 3.83165320739 20.3658816279 0.0 0.0 0.0 0.0
318 1 9.91438320739 19.9940816279 0.0 0.0 0.0 0.0
319 1 15.7213832074 20.4326816279 0.0 0.0 0.0 0.0
320 1 22.4871832074 19.1616816279 0.0 0.0 0.0 0.0
321 1 26.4912832074 21.8980816279 0.0 0.0 0.0 0.0
322 1 31.5668832074 21.3576816279 0.0 0.0 0.0 0.0
323 1 36.9824832074 19.9025816279 0.0 0.0 0.0 0.0
324 1 41.6670832074 22.6514816279 0.0 0.0 0.0 0.0
325 1 47.1076832074 20.4109816279 0.0 0.0 0.0 0.0
326 1 53.0020832074 20.9913816279 0.0 0.0 0.0 0.0
327 1 57.6780832074 21.5069816279 0.0 0.0 0.0 0.0
328 1 60.6931832074 21.6054816279 0.0 0.0 0.0 0.0
329 1 67.3095832074 21.2738816279 0.0 0.0 0.0 0.0
330 1 70.3351832074 21.4729816279 0.0 0.0 0.0 0.0
331 1 2.25746320739 22.9601816279 0.0 0.0 0.0 0.0
332 1 7.07343320739 24.4547816279 0.0 0.0 0.0 0.0
333 1 12.7146832074 23.7139816279 0.0 0.0 0.0 0.0
334 1 18.5135832074 24.7812816279 0.0 0.0 0.0 0.0
335 1 23.8696832074 26.2674816279 0.0 0.0 0.0 0.0
336 1 29.4040832074 26.0333816279 0.0 0.0 0.0 0.0
337 1 34.4135832074 26.1692816279 0.0 0.0 0.0 0.0
338 1 39.6572832074 26.9357816279 0.0 0.0 0.0 0.0
339 1 45.1605832074 26.6739816279 0.0 0.0 0.0 0.0
340 1 48.1311832074 26.3030816279 0.0 0.0 0.0 0.0
341 1 54.9900832074 26.3238816279 0.0 0.0 0.0 0.0
342 1 59.7675832074 26.3174816279 0.0 0.0 0.0 0.0
343 1 64.5712832074 25.9102816279 0.0 0.0 0.0 0.0
344 1 69.6691832074 25.8497816279 0.0 0.0 0.0 0.0
345 1 74.8311832074 25.2166816279 0.0 0.0 0.0 0.0
346 1 78.0287832074 29.3931816279 0.0 0.0 0.0 0.0
347 1 5.31688320739 29.2801816279 0.0 0.0 0.0 0.0
348 1 10.2636832074 28.8101816279 0.0 0.0 0.0 0.0
349 1 14.8255832074 28.3216816279 0.0 0.0 0.0 0.0
350 1 21.9825832074 31.7711816279 0.0 0.0 0.0 0.0
351 1 26.5303832074 30.3802816279 0.0 0.0 0.0 0.0
352 1 31.6872832074 30.8202816279 0.0 0.0 0.0 0.0
353 1 36.5049832074 31.2273816279 0.0 0.0 0.0 0.0
354 1 41.7409832074 31.5556816279 0.0 0.0 0.0 0.0
355 1 44.7133832074 31.9529816279 0.0 0.0 0.0 0.0
356 1 51.7929832074 30.7138816279 0.0 0.0 0.0 0.0
357 1 57.0103832074 30.8479816279 0.0 0.0 0.0 0.0
358 1 62.3124832074 30.6389816279 0.0 0.0 0.0 0.0
359 1 67.4220832074 30.4286816279 0.0 0.0 0.0 0.0
360 1 72.7756832074 30.0380816279 0.0 0.0 0.0 0.0
361 1 2.53371320739 33.7337816279 0.0 0.0 0.0 0.0
362 1 5.54268320739 34.0937816279 0.0 0.0 0.0 0.0
363 1 12.6897832074 33.4996816279 0.0 0.0 0.0 0.0
364 1 17.6811832074 30.7003816279 0.0 0.0 0.0 0.0
365 1 23.2814832074 34.4744816279 0.0 0.0 0.0 0.0
366 1 28.4942832074 35.0779816279 0.0 0.0 0.0 0.0
367 1 35.2249832074 37.0176816279 0.0 0.0 0.0 0.0
368 1 38.9990832074 35.8479816279 0.0 0.0 0.0 0.0
369 1 44.2226832074 36.0944816279 0.0 0.0 0.0 0.0
370 1 49.3781832074 35.4287816279 0.0 0.0 0.0 0.0
371 1 54.3387832074 35.4386816279 0.0 0.0 0.0 0.0
372 1 59.5589832074 35.2799816279 0.0 0.0 0.0 0.0
373 1 64.8115832074 34.9448816279 0.0 0.0 0.0 0.0
374 1 70.1174832074 34.8649816279 0.0 0.0 0.0 0.0
375 1 75.3763832074 34.1856816279 0.0 0.0 0.0 0.0
376 1 77.8968832074 38.2661816279 0.0 0.0 0.0 0.0
377 1 5.10052320739 37.9286816279 0.0 0.0 0.0 0.0
378 1 10.3628832074 37.5858816279 0.0 0.0 0.0 0.0
379 1 15.9208832074 37.8259816279 0.0 0.0 0.0 0.0
380 1 21.3579832074 36.8028816279 0.0 0.0 0.0 0.0
381 1 25.6121832074 39.5326816279 0.0 0.0 0.0 0.0
382 1 30.9454832074 39.3447816279 0.0 0.0 0.0 0.0
383 1 36.2718832074 39.8582816279 0.0 0.0 0.0 0.0
384 1 41.5741832074 40.4818816279 0.0 0.0 0.0 0.0
385 1 47.0249832074 40.0849816279 0.0 0.0 0.0 0.0
386 1 51.9197832074 40.2608816279 0.0 0.0 0.0 0.0
387 1 56.9091832074 40.0224816279 0.0 0.0 0.0 0.0
388 1 61.9883832074 39.7783816279 0.0 0.0 0.0 0.0
389 1 66.9835832074 39.3675816279 0.0 0.0 0.0 0.0
390 1 73.9555832074 40.0108816279 0.0 0.0 0.0 0.0
391 1 2.60284320739 42.5056816279 0.0 0.0 0.0 0.0
392 1 7.75201320739 42.3112816279 0.0 0.0 0.0 0.0
393 1 12.9472832074 41.9406816279 0.0 0.0 0.0 0.0
394 1 19.8345832074 44.8014816279 0.0 0.0 0.0 0.0
395 1 24.1727832074 43.9303816279 0.0 0.0 0.0 0.0
396 1 29.2296832074 43.8853816279 0.0 0.0 0.0 0.0
397 1 33.7724832074 44.5026816279 0.0 0.0 0.0 0.0
398 1 38.5576832074 44.8848816279 0.0 0.0 0.0 0.0
399 1 43.9556832074 44.5702816279 0.0 0.0 0.0 0.0
400 1 48.9684832074 44.7798816279 0.0 0.0 0.0 0.0
401 1 54.2716832074 44.6302816279 0.0 0.0 0.0 0.0
402 1 59.5116832074 44.4400816279 0.0 0.0 0.0 0.0
403 1 64.6454832074 44.3008816279 0.0 0.0 0.0 0.0
404 1 69.8205832074 43.2992816279 0.0 0.0 0.0 0.0
405 1 75.3689832074 42.6833816279 0.0 0.0 0.0 0.0
406 1 0.491433207389 47.0096816279 0.0 0.0 0.0 0.0
407 1 6.01640320739 44.7766816279 0.0 0.0 0.0 0.0
408 1 10.8292832074 46.8667816279 0.0 0.0 0.0 0.0
409 1 15.7643832074 46.3449816279 0.0 0.0 0.0 0.0
410 1 20.8366832074 47.6748816279 0.0 0.0 0.0 0.0
411 1 26.2933832074 48.3892816279 0.0 0.0 0.0 0.0
412 1 31.0665832074 48.8971816279 0.0 0.0 0.0 0.0
413 1 36.1833832074 49.3493816279 0.0 0.0 0.0 0.0
414 1 41.5892832074 49.1253816279 0.0 0.0 0.0 0.0
415 1 47.1846832074 47.2159816279 0.0 0.0 0.0 0.0
416 1 51.7628832074 49.3933816279 0.0 0.0 0.0 0.0
417 1 57.0533832074 48.7166816279 0.0 0.0 0.0 0.0
418 1 62.5077832074 48.7923816279 0.0 0.0 0.0 0.0
419 1 68.0046832074 48.2064816279 0.0 0.0 0.0 0.0
420 1 73.2389832074 47.2102816279 0.0 0.0 0.0 0.0
421 1 3.90764320739 51.2726816279 0.0 0.0 0.0 0.0
422 1 8.97076320739 51.4278816279 0.0 0.0 0.0 0.0
423 1 14.0447832074 51.2751816279 0.0 0.0 0.0 0.0
424 1 18.2374832074 51.6758816279 0.0 0.0 0.0 0.0
425 1 23.4773832074 52.5903816279 0.0 0.0 0.0 0.0
426 1 29.2761832074 51.3270816279 0.0 0.0 0.0 0.0
427 1 33.8240832074 54.2346816279 0.0 0.0 0.0 0.0
428 1 38.8868832074 53.7738816279 0.0 0.0 0.0 0.0
429 1 44.2006832074 53.3551816279 0.0 0.0 0.0 0.0
430 1 49.5028832074 53.8455816279 0.0 0.0 0.0 0.0
431 1 54.8264832074 53.6295816279 0.0 0.0 0.0 0.0
432 1 59.7759832074 53.1517816279 0.0 0.0 0.0 0.0
433 1 67.2071832074 53.8987816279 0.0 0.0 0.0 0.0
434 1 71.4523832074 51.9087816279 0.0 0.0 0.0 0.0
435 1 76.6325832074 51.4294816279 0.0 0.0 0.0 0.0
436 1 1.08380320739 56.2544816279 0.0 0.0 0.0 0.0
437 1 4.08189320739 56.2130816279 0.0 0.0 0.0 0.0
438 1 11.3208832074 55.8355816279 0.0 0.0 0.0 0.0
439 1 16.9366832074 54.4138816279 0.0 0.0 0.0 0.0
440 1 21.1619832074 57.4969816279 0.0 0.0 0.0 0.0
441 1 26.1102832074 57.2091816279 0.0 0.0 0.0 0.0
442 1 31.0400832074 58.4012816279 0.0 0.0 0.0 0.0
443 1 36.4480832074 58.7151816279 0.0 0.0 0.0 0.0
444 1 41.4574832074 58.2036816279 0.0 0.0 0.0 0.0
445 1 46.5668832074 57.6215816279 0.0 0.0 0.0 0.0
446 1 52.1246832074 58.2361816279 0.0 0.0 0.0 0.0
447 1 57.3715832074 57.8861816279 0.0 0.0 0.0 0.0
448 1 62.7538832074 56.8768816279 0.0 0.0 0.0 0.0
449 1 68.9110832074 56.3891816279 0.0 0.0 0.0 0.0
450 1 74.2825832074 56.1227816279 0.0 0.0 0.0 0.0
451 1 3.61594320739 60.6440816279 0.0 0.0 0.0 0.0
452 1 8.48397320739 60.0555816279 0.0 0.0 0.0 0.0
453 1 13.6721832074 60.6628816279 0.0 0.0 0.0 0.0
454 1 18.8048832074 61.7467816279 0.0 0.0 0.0 0.0
455 1 24.0789832074 62.1224816279 0.0 0.0 0.0 0.0
456 1 29.3574832074 60.8866816279 0.0 0.0 0.0 0.0
457 1 33.8376832074 63.4974816279 0.0 0.0 0.0 0.0
458 1 39.0215832074 63.0443816279 0.0 0.0 0.0 0.0
459 1 44.1613832074 62.5034816279 0.0 0.0 0.0 0.0
460 1 49.0849832074 62.0765816279 0.0 0.0 0.0 0.0
461 1 56.1053832074 63.5919816279 0.0 0.0 0.0 0.0
462 1 60.3545832074 61.4348816279 0.0 0.0 0.0 0.0
463 1 67.6264832074 62.1154816279 0.0 0.0 0.0 0.0
464 1 71.6744832074 60.7240816279 0.0 0.0 0.0 0.0
465 1 76.5864832074 60.9487816279 0.0 0.0 0.0 0.0
466 1 1.79310320739 64.9110816279 0.0 0.0 0.0 0.0
467 1 7.46771320739 62.9025816279 0.0 0.0 0.0 0.0
468 1 8.75594320739 67.2643816279 0.0 0.0 0.0 0.0
469 1 15.4906832074 65.1851816279 0.0 0.0 0.0 0.0
470 1 21.1164832074 66.2973816279 0.0 0.0 0.0 0.0
471 1 26.3020832074 67.0182816279 0.0 0.0 0.0 0.0
472 1 31.5970832074 67.8585816279 0.0 0.0 0.0 0.0
473 1 36.9144832074 67.8894816279 0.0 0.0 0.0 0.0
474 1 41.8751832074 67.6387816279 0.0 0.0 0.0 0.0
475 1 44.8800832074 67.7575816279 0.0 0.0 0.0 0.0
476 1 51.5284832074 66.5202816279 0.0 0.0 0.0 0.0
477 1 57.7853832074 66.0792816279 0.0 0.0 0.0 0.0
478 1 63.2247832074 64.9955816279 0.0 0.0 0.0 0.0
479 1 69.0592832074 64.7717816279 0.0 0.0 0.0 0.0
480 1 74.3841832074 65.3880816279 0.0 0.0 0.0 0.0
481 1 3.28749320739 69.7243816279 0.0 0.0 0.0 0.0
482 1 7.26880320739 71.3472816279 0.0 0.0 0.0 0.0
483 1 14.0512832074 70.9134816279 0.0 0.0 0.0 0.0
484 1 17.8819832074 69.5995816279 0.0 0.0 0.0 0.0
485 1 24.5107832074 72.7020816279 0.0 0.0 0.0 0.0
486 1 28.4877832074 71.6202816279 0.0 0.0 0.0 0.0
487 1 35.4678832074 73.6020816279 0.0 0.0 0.0 0.0
488 1 39.4442832074 72.3046816279 0.0 0.0 0.0 0.0
489 1 44.5482832074 72.0452816279 0.0 0.0 0.0 0.0
490 1 49.6445832074 71.1099816279 0.0 0.0 0.0 0.0
491 1 55.0153832074 70.5641816279 0.0 0.0 0.0 0.0
492 1 60.6571832074 69.6658816279 0.0 0.0 0.0 0.0
493 1 65.9692832074 69.0955816279 0.0 0.0 0.0 0.0
494 1 71.0983832074 69.5823816279 0.0 0.0 0.0 0.0
495 1 76.6180832074 69.5493816279 0.0 0.0 0.0 0.0
496 1 75.9490832074 74.7981816279 0.0 0.0 0.0 0.0
497 1 4.40319320739 75.0752816279 0.0 0.0 0.0 0.0
498 1 10.1713832074 75.2126816279 0.0 0.0 0.0 0.0
499 1 16.6739832074 72.3258816279 0.0 0.0 0.0 0.0
500 1 20.4078832074 75.0570816279 0.0 0.0 0.0 0.0
501 1 25.5175832074 75.5668816279 0.0 0.0 0.0 0.0
502 1 30.8974832074 76.1820816279 0.0 0.0 0.0 0.0
503 1 36.6326832074 76.3792816279 0.0 0.0 0.0 0.0
504 1 42.0146832074 76.7793816279 0.0 0.0 0.0 0.0
505 1 47.2687832074 76.0883816279 0.0 0.0 0.0 0.0
506 1 52.3439832074 75.3520816279 0.0 0.0 0.0 0.0
507 1 57.3419832074 75.2016816279 0.0 0.0 0.0 0.0
508 1 60.3086832074 74.6346816279 0.0 0.0 0.0 0.0
509 1 67.7207832074 73.6361816279 0.0 0.0 0.0 0.0
510 1 72.9585832074 74.3948816279 0.0 0.0 0.0 0.0
511 1 4.65545320739 78.0672816279 0.0 0.0 0.0 0.0
512 1 10.2806832074 78.2171816279 0.0 0.0 0.0 0.0
513 1 15.7276832074 77.6943816279 0.0 0.0 0.0 0.0
514 1 20.9443832074 78.0233816279 0.0 0.0 0.0 0.0
515 1 25.7141832074 78.5960816279 0.0 0.0 0.0 0.0
516 1 30.7482832074 79.1884816279 0.0 0.0 0.0 0.0
517 1 36.2284832074 79.3680816279 0.0 0.0 0.0 0.0
518 1 41.4032832074 79.7179816279 0.0 0.0 0.0 0.0
519 1 46.6378832074 79.0413816279 0.0 0.0 0.0 0.0
520 1 52.0293832074 78.3591816279 0.0 0.0 0.0 0.0
521 1 56.7978832074 78.1656816279 0.0 0.0 0.0 0.0
522 1 61.7232832074 77.2814816279 0.0 0.0 0.0 0.0
523 1 66.9994832074 76.5619816279 0.0 0.0 0.0 0.0
524 1 72.3441832074 77.3290816279 0.0 0.0 0.0 0.0
525 1 77.2893832074 77.5048816279 0.0 0.0 0.0 0.0
526 1 1.80670320739 79.0557816279 0.0 0.0 0.0 0.0
527 1 7.43827320739 79.2764816279 0.0 0.0 0.0 0.0
528 1 13.1341832074 79.2220816279 0.0 0.0 0.0 0.0
529 1 18.2391832074 79.3393816279 0.0 0.0 0.0 0.0
530 1 23.1157832074 80.1146816279 0.0 0.0 0.0 0.0
531 1 28.0421832074 80.5414816279 0.0 0.0 0.0 0.0
532 1 33.4438832074 80.5306816279 0.0 0.0 0.0 0.0
533 1 38.7125832074 81.0985816279 0.0 0.0 0.0 0.0
534 1 44.1891832074 80.8446816279 0.0 0.0 0.0 0.0
535 1 49.4898832074 79.9836816279 0.0 0.0 0.0 0.0
536 1 54.4842832074 80.1006816279 0.0 0.0 0.0 0.0
537 1 59.5530832074 79.3497816279 0.0 0.0 0.0 0.0
538 1 64.5422832074 78.3074816279 0.0 0.0 0.0 0.0
539 1 69.4888832074 78.2325816279 0.0 0.0 0.0 0.0
540 1 74.7572832074 79.1204816279 0.0 0.0 0.0 0.0
541 2 1.81084320739 80.5641816279 0.0 0.0 0.0 0.0
542 2 3.20732320739 1.52943162791 0.0 0.0 0.0 0.0
543 2 0.579153207389 1.53681162791 0.0 0.0 0.0 0.0
544 2 7.34506320739 80.7823816279 0.0 0.0 0.0 0.0
545 2 8.50296320739 1.82414162791 0.0 0.0 0.0 0.0
546 2 5.86451320739 1.65752162791 0.0 0.0 0.0 0.0
547 2 13.5599832074 1.89467162791 0.0 0.0 0.0 0.0
548 2 13.7217832074 80.6130816279 0.0 0.0 0.0 0.0
549 2 15.9243832074 0.90367162791 0.0 0.0 0.0 0.0
550 2 17.9109832074 80.7983816279 0.0 0.0 0.0 0.0
551 2 18.6290832074 1.86659162791 0.0 0.0 0.0 0.0
552 2 22.9666832074 0.34457762791 0.0 0.0 0.0 0.0
553 2 21.3339832074 2.28404162791 0.0 0.0 0.0 0.0
554 2 23.9645832074 2.80861162791 0.0 0.0 0.0 0.0
555 2 27.9174832074 0.78285162791 0.0 0.0 0.0 0.0
556 2 29.1604832074 3.04532162791 0.0 0.0 0.0 0.0
557 2 26.5164832074 3.04657162791 0.0 0.0 0.0 0.0
558 2 33.2911832074 0.75352162791 0.0 0.0 0.0 0.0
559 2 34.4665832074 2.97815162791 0.0 0.0 0.0 0.0
560 2 31.8098832074 2.95143162791 0.0 0.0 0.0 0.0
561 2 38.6522832074 1.33695162791 0.0 0.0 0.0 0.0
562 2 39.8510832074 3.66539162791 0.0 0.0 0.0 0.0
563 2 37.1553832074 3.39585162791 0.0 0.0 0.0 0.0
564 2 43.8727832074 1.04952162791 0.0 0.0 0.0 0.0
565 2 42.3795832074 3.45328162791 0.0 0.0 0.0 0.0
566 2 45.0028832074 3.00882162791 0.0 0.0 0.0 0.0
567 2 49.3378832074 0.21132462791 0.0 0.0 0.0 0.0
568 2 49.9616832074 2.81914162791 0.0 0.0 0.0 0.0
569 2 47.6332832074 2.31766162791 0.0 0.0 0.0 0.0
570 2 54.0961832074 3.20542162791 0.0 0.0 0.0 0.0
571 2 56.1719832074 2.33583162791 0.0 0.0 0.0 0.0
572 2 54.5478832074 0.34159662791 0.0 0.0 0.0 0.0
573 2 59.7038832074 80.8409816279 0.0 0.0 0.0 0.0
574 2 61.1479832074 1.74128162791 0.0 0.0 0.0 0.0
575 2 58.6723832074 2.01781162791 0.0 0.0 0.0 0.0
576 2 64.4647832074 79.8164816279 0.0 0.0 0.0 0.0
577 2 65.7064832074 0.77842162791 0.0 0.0 0.0 0.0
578 2 63.4382832074 1.20761162791 0.0 0.0 0.0 0.0
579 2 69.4581832074 79.7312816279 0.0 0.0 0.0 0.0
580 2 70.7343832074 0.77975162791 0.0 0.0 0.0 0.0
581 2 68.2252832074 0.75875162791 0.0 0.0 0.0 0.0
582 2 76.0129832074 1.57861162791 0.0 0.0 0.0 0.0
583 2 74.7318832074 80.6190816279 0.0 0.0 0.0 0.0
584 2 73.2998832074 1.40029162791 0.0 0.0 0.0 0.0
585 2 77.3604832074 3.77448162791 0.0 0.0 0.0 0.0
586 2 0.430663207389 6.19827162791 0.0 0.0 0.0 0.0
587 2 75.9247832074 5.84519162791 0.0 0.0 0.0 0.0
588 2 4.32286320739 3.80977162791 0.0 0.0 0.0 0.0
589 2 5.27427320739 6.28455162791 0.0 0.0 0.0 0.0
590 2 2.88162320739 6.12974162791 0.0 0.0 0.0 0.0
591 2 9.25988320739 4.20804162791 0.0 0.0 0.0 0.0
592 2 10.1803832074 6.59036162791 0.0 0.0 0.0 0.0
593 2 7.70114320739 6.42574162791 0.0 0.0 0.0 0.0
594 2 13.3042832074 4.47551162791 0.0 0.0 0.0 0.0
595 2 15.2147832074 6.45830162791 0.0 0.0 0.0 0.0
596 2 12.6410832074 6.84426162791 0.0 0.0 0.0 0.0
597 2 19.5253832074 4.16973162791 0.0 0.0 0.0 0.0
598 2 20.5039832074 6.44128162791 0.0 0.0 0.0 0.0