# input file

1350 atoms
2 atom types

0.0 78.1043130974 xlo xhi
0.0 81.3493849733 ylo yhi
-10.0 10.0 zlo zhi
0.0 0.0 0.0 xy xz yz

Masses

1 28.0855 #Si
2 15.9994 #O

Atoms

1 1 2.65077432556 1.84693248667 0.0
2 1 7.52884432556 4.42105248667 0.0
3 1 12.9555943256 2.21907248667 0.0
4 1 18.1816943256 1.47720248667 0.0
5 1 23.6751943256 1.56627248667 0.0
6 1 28.8806943256 1.38370248667 0.0
7 1 33.1181943256 3.89928248667 0.0
8 1 38.4273943256 1.65420248667 0.0
9 1 43.8324943256 1.56797248667 0.0
10 1 48.5933943256 2.26681248667 0.0
11 1 53.2163943256 0.819682486669 0.0
12 1 58.5356943256 0.149554486669 0.0
13 1 64.0695943256 1.19423248667 0.0
14 1 69.7954943256 1.88192248667 0.0
15 1 75.4310943256 1.66285248667 0.0
16 1 0.534484325555 6.16157248667 0.0
17 1 5.80533432556 6.90565248667 0.0
18 1 10.8293943256 7.08989248667 0.0
19 1 17.5246943256 5.81578248667 0.0
20 1 20.5457943256 5.75242248667 0.0
21 1 25.5815943256 5.98315248667 0.0
22 1 31.1430943256 6.18454248667 0.0
23 1 36.3735943256 6.63107248667 0.0
24 1 41.3547943256 6.12357248667 0.0
25 1 46.0786943256 6.72346248667 0.0
26 1 53.2267943256 5.61039248667 0.0
27 1 56.1245943256 4.84441248667 0.0
28 1 61.0073943256 4.62337248667 0.0
29 1 65.6433943256 3.73193248667 0.0
30 1 73.0827943256 5.85333248667 0.0
31 1 2.42758432556 10.9686924867 0.0
32 1 7.79371432556 11.6298924867 0.0
33 1 13.0892943256 11.3940924867 0.0
34 1 17.7379943256 11.4177924867 0.0
35 1 22.4760943256 10.5846924867 0.0
36 1 27.7990943256 10.2579924867 0.0
37 1 33.0329943256 10.7962924867 0.0
38 1 38.3672943256 11.0011924867 0.0
39 1 43.8993943256 11.3150924867 0.0
40 1 48.7524943256 11.3841924867 0.0
41 1 52.9847943256 10.7343924867 0.0
42 1 60.6464943256 8.71229248667 0.0
43 1 63.6385943256 8.95452248667 0.0
44 1 68.2808943256 7.63494248667 0.0
45 1 75.3014943256 10.1038924867 0.0
46 1 77.0899943256 14.8577924867 0.0
47 1 3.33226432556 13.8587924867 0.0
48 1 10.9032943256 15.8385924867 0.0
49 1 15.3488943256 18.5291924867 0.0
50 1 20.2665943256 15.8952924867 0.0
51 1 25.2622943256 14.8334924867 0.0
52 1 30.4222943256 14.9615924867 0.0
53 1 35.3030943256 15.2441924867 0.0
54 1 39.5330943256 13.7730924867 0.0
55 1 46.6763943256 16.1133924867 0.0
56 1 51.6504943256 16.1015924867 0.0
57 1 56.5143943256 14.2862924867 0.0
58 1 61.6125943256 16.0618924867 0.0
59 1 66.5328943256 13.0653924867 0.0
60 1 71.7184943256 13.8801924867 0.0
61 1 1.40892432556 19.3624924867 0.0
62 1 7.78709432556 19.6970924867 0.0
63 1 13.3803943256 20.8201924867 0.0
64 1 18.4603943256 21.3154924867 0.0
65 1 24.8064943256 19.4257924867 0.0
66 1 27.8166943256 19.4231924867 0.0
67 1 32.8837943256 19.8387924867 0.0
68 1 38.2419943256 19.3911924867 0.0
69 1 43.7522943256 19.7531924867 0.0
70 1 47.8906943256 18.8791924867 0.0
71 1 55.5830943256 19.3660924867 0.0
72 1 60.8132943256 18.9544924867 0.0
73 1 65.1391943256 18.2320924867 0.0
74 1 68.9515943256 20.7033924867 0.0
75 1 74.1544943256 18.6030924867 0.0
76 1 77.2485943256 25.6933924867 0.0
77 1 2.76107432556 22.0671924867 0.0
78 1 9.79569432556 24.1224924867 0.0
79 1 13.9622943256 23.7715924867 0.0
80 1 20.4511943256 25.7643924867 0.0
81 1 25.2462943256 25.0182924867 0.0
82 1 30.6319943256 24.2471924867 0.0
83 1 35.7928943256 23.9840924867 0.0
84 1 40.9182943256 23.7365924867 0.0
85 1 47.2622943256 24.3010924867 0.0
86 1 54.6125943256 23.6285924867 0.0
87 1 57.6249943256 23.5111924867 0.0
88 1 62.7778943256 23.5917924867 0.0
89 1 68.0317943256 23.5705924867 0.0
90 1 72.7573943256 23.4866924867 0.0
91 1 3.09232432556 27.8691924867 0.0
92 1 8.65635432556 29.2529924867 0.0
93 1 11.7019943256 29.0927924867 0.0
94 1 17.0831943256 29.8444924867 0.0
95 1 22.5479943256 30.0708924867 0.0
96 1 28.1082943256 28.8918924867 0.0
97 1 33.9951943256 28.6023924867 0.0
98 1 40.2221943256 27.8211924867 0.0
99 1 42.6941943256 26.1393924867 0.0
100 1 49.2169943256 28.7865924867 0.0
101 1 54.4408943256 28.6205924867 0.0
102 1 59.8899943256 28.1221924867 0.0
103 1 65.3826943256 28.0546924867 0.0
104 1 70.7082943256 28.3690924867 0.0
105 1 76.1478943256 28.4856924867 0.0
106 1 77.9361943256 32.6990924867 0.0
107 1 4.78611432556 33.6648924867 0.0
108 1 8.77278432556 34.4068924867 0.0
109 1 14.0099943256 33.8716924867 0.0
110 1 19.8183943256 34.3145924867 0.0
111 1 25.8752943256 33.4815924867 0.0
112 1 31.1187943256 32.4279924867 0.0
113 1 36.6442943256 33.2107924867 0.0
114 1 41.0311943256 33.4209924867 0.0
115 1 45.6440943256 32.7071924867 0.0
116 1 51.3011943256 33.1055924867 0.0
117 1 57.6712943256 32.6435924867 0.0
118 1 62.9722943256 32.3304924867 0.0
119 1 68.0196943256 32.6326924867 0.0
120 1 72.9893943256 32.7282924867 0.0
121 1 1.51948432556 37.7312924867 0.0
122 1 6.21206432556 39.1782924867 0.0
123 1 11.3820943256 38.5486924867 0.0
124 1 15.2118943256 36.6429924867 0.0
125 1 21.7521943256 36.6017924867 0.0
126 1 28.6712943256 37.2280924867 0.0
127 1 34.0420943256 36.7929924867 0.0
128 1 38.6127943256 38.3830924867 0.0
129 1 44.0281943256 38.0482924867 0.0
130 1 48.8640943256 36.8435924867 0.0
131 1 53.2778943256 35.3549924867 0.0
132 1 60.3282943256 36.8794924867 0.0
133 1 65.2985943256 37.1154924867 0.0
134 1 70.2747943256 37.3968924867 0.0
135 1 74.8625943256 37.3999924867 0.0
136 1 77.0397943256 42.3903924867 0.0
137 1 3.52341432556 45.2340924867 0.0
138 1 9.04013432556 43.3267924867 0.0
139 1 14.6152943256 42.4932924867 0.0
140 1 20.7243943256 42.0858924867 0.0
141 1 26.3243943256 41.8226924867 0.0
142 1 33.1280943256 40.6870924867 0.0
143 1 34.7092943256 43.9725924867 0.0
144 1 39.8971943256 41.0958924867 0.0
145 1 48.8165943256 41.3699924867 0.0
146 1 51.7840943256 40.8659924867 0.0
147 1 57.1014943256 41.0083924867 0.0
148 1 62.1795943256 41.6250924867 0.0
149 1 67.5312943256 41.9412924867 0.0
150 1 72.5665943256 42.3859924867 0.0
151 1 2.09324432556 47.8828924867 0.0
152 1 7.22550432556 47.8902924867 0.0
153 1 12.4045943256 46.9259924867 0.0
154 1 16.5661943256 44.8019924867 0.0
155 1 23.8328943256 46.0212924867 0.0
156 1 28.7522943256 48.2449924867 0.0
157 1 34.1370943256 46.8991924867 0.0
158 1 38.4893943256 45.9724924867 0.0
159 1 44.0862943256 46.4401924867 0.0
160 1 48.9559943256 46.7327924867 0.0
161 1 54.2617943256 45.3506924867 0.0
162 1 59.2988943256 45.9260924867 0.0
163 1 64.4355943256 46.1242924867 0.0
164 1 69.6670943256 46.8091924867 0.0
165 1 74.7801943256 47.4694924867 0.0
166 1 0.00569532555509 51.9774924867 0.0
167 1 5.31587432556 52.3740924867 0.0
168 1 10.6023943256 51.7613924867 0.0
169 1 15.8135943256 50.5208924867 0.0
170 1 20.7891943256 50.4707924867 0.0
171 1 28.5652943256 51.2177924867 0.0
172 1 31.5155943256 51.6188924867 0.0
173 1 36.0501943256 51.3157924867 0.0
174 1 40.8775943256 50.1804924867 0.0
175 1 45.3372943256 49.1978924867 0.0
176 1 52.5155943256 50.1738924867 0.0
177 1 57.1111943256 52.6100924867 0.0
178 1 62.4907943256 50.5212924867 0.0
179 1 67.8188943256 52.5760924867 0.0
180 1 72.7380943256 53.6439924867 0.0
181 1 3.56548432556 56.4627924867 0.0
182 1 9.05237432556 56.3344924867 0.0
183 1 14.3309943256 55.3664924867 0.0
184 1 19.1043943256 57.5306924867 0.0
185 1 23.5268943256 55.4655924867 0.0
186 1 28.8646943256 57.5731924867 0.0
187 1 34.3321943256 56.3790924867 0.0
188 1 39.6654943256 55.2307924867 0.0
189 1 44.6104943256 56.6162924867 0.0
190 1 50.0923943256 55.1280924867 0.0
191 1 55.4812943256 55.1738924867 0.0
192 1 61.0740943256 55.3042924867 0.0
193 1 66.6470943256 55.3797924867 0.0
194 1 71.6829943256 56.4620924867 0.0
195 1 76.5322943256 56.7465924867 0.0
196 1 1.27931432556 61.1558924867 0.0
197 1 6.82066432556 60.6450924867 0.0
198 1 12.3848943256 60.2338924867 0.0
199 1 17.7763943256 60.2203924867 0.0
200 1 24.4966943256 59.9112924867 0.0
201 1 27.5095943256 60.2557924867 0.0
202 1 32.6249943256 61.0000924867 0.0
203 1 37.9895943256 59.9791924867 0.0
204 1 43.5394943256 59.4268924867 0.0
205 1 47.6675943256 62.5141924867 0.0
206 1 52.4249943256 59.6536924867 0.0
207 1 58.0657943256 59.3602924867 0.0
208 1 63.5213943256 59.5587924867 0.0
209 1 68.7039943256 60.4712924867 0.0
210 1 74.0155943256 61.3714924867 0.0
211 1 4.30589432556 65.0696924867 0.0
212 1 9.74509432556 64.6149924867 0.0
213 1 16.0353943256 64.4754924867 0.0
214 1 19.0071943256 64.9069924867 0.0
215 1 24.0659943256 65.3708924867 0.0
216 1 29.5989943256 65.1952924867 0.0
217 1 37.1360943256 64.3629924867 0.0
218 1 40.1316943256 63.8261924867 0.0
219 1 45.5926943256 64.7350924867 0.0
220 1 51.3912943256 65.1502924867 0.0
221 1 56.3006943256 63.3719924867 0.0
222 1 60.4064943256 66.1457924867 0.0
223 1 65.5957943256 64.4733924867 0.0
224 1 70.8344943256 65.2654924867 0.0
225 1 77.1786943256 65.6190924867 0.0
226 1 1.56207432556 69.7731924867 0.0
227 1 7.69063432556 69.0255924867 0.0
228 1 10.6554943256 69.3985924867 0.0
229 1 15.7802943256 70.1274924867 0.0
230 1 21.1467943256 69.7329924867 0.0
231 1 26.3584943256 69.4738924867 0.0
232 1 31.3424943256 69.6437924867 0.0
233 1 36.1020943256 69.5976924867 0.0
234 1 42.3562943256 68.5087924867 0.0
235 1 46.9921943256 67.4003924867 0.0
236 1 55.6314943256 68.3676924867 0.0
237 1 58.6309943256 68.5685924867 0.0
238 1 63.3202943256 69.5028924867 0.0
239 1 68.0167943256 69.2657924867 0.0
240 1 72.4015943256 67.8314924867 0.0
241 1 3.01957432556 74.8028924867 0.0
242 1 8.97465432556 73.7795924867 0.0
243 1 11.5448943256 72.2547924867 0.0
244 1 18.3669943256 74.2636924867 0.0
245 1 23.6150943256 74.0992924867 0.0
246 1 28.9819943256 74.2266924867 0.0
247 1 34.3632943256 74.3731924867 0.0
248 1 37.9480943256 71.9820924867 0.0
249 1 45.0526943256 72.7348924867 0.0
250 1 49.5466943256 73.6875924867 0.0
251 1 54.7433943256 73.3209924867 0.0
252 1 60.3901943256 73.8017924867 0.0
253 1 65.7823943256 74.2464924867 0.0
254 1 70.8647943256 73.3812924867 0.0
255 1 76.0364943256 73.5903924867 0.0
256 1 78.0623943256 3.19642248667 0.0
257 1 5.66468432556 2.07517248667 0.0
258 1 10.5459943256 4.09108248667 0.0
259 1 15.7958943256 3.32358248667 0.0
260 1 20.9117943256 2.77003248667 0.0
261 1 26.3156943256 3.03431248667 0.0
262 1 31.9085943256 1.17422248667 0.0
263 1 36.1328943256 3.64086248667 0.0
264 1 41.1578943256 3.05172248667 0.0
265 1 45.9593943256 3.70965248667 0.0
266 1 51.4301943256 3.21990248667 0.0
267 1 56.0470943256 1.83052248667 0.0
268 1 61.1182943256 1.64630248667 0.0
269 1 68.4913943256 4.61168248667 0.0
270 1 72.6592943256 2.86643248667 0.0
271 1 2.96703432556 7.97819248667 0.0
272 1 8.24171432556 8.65887248667 0.0
273 1 13.5160943256 8.44039248667 0.0
274 1 16.5169943256 8.64652248667 0.0
275 1 22.9664943256 7.57323248667 0.0
276 1 28.3107943256 7.28385248667 0.0
277 1 33.6266943256 7.86778248667 0.0
278 1 39.0190943256 8.04903248667 0.0
279 1 43.5041943256 8.28478248667 0.0
280 1 48.5890943256 8.38530248667 0.0
281 1 51.5696943256 8.09459248667 0.0
282 1 58.6598943256 6.45553248667 0.0
283 1 63.6775943256 5.97089248667 0.0
284 1 71.2164943256 8.21842248667 0.0
285 1 75.7976943256 7.14662248667 0.0
286 1 77.6835943256 11.9136924867 0.0
287 1 6.30407432556 14.2367924867 0.0
288 1 10.5047943256 12.8759924867 0.0
289 1 15.3965943256 13.2965924867 0.0
290 1 20.4054943256 12.8293924867 0.0
291 1 25.2191943256 11.8216924867 0.0
292 1 30.2736943256 11.9650924867 0.0
293 1 35.6389943256 12.2614924867 0.0
294 1 42.5072943256 13.9890924867 0.0
295 1 46.3254943256 13.1142924867 0.0
296 1 51.1864943256 13.1306924867 0.0
297 1 55.8971943256 11.3658924867 0.0
298 1 58.8601943256 11.0819924867 0.0
299 1 66.4358943256 10.0418924867 0.0
300 1 72.4291943256 10.9616924867 0.0
301 1 1.60096432556 16.3411924867 0.0
302 1 8.02952432556 16.7067924867 0.0
303 1 13.9074943256 15.9071924867 0.0
304 1 18.3548943256 18.2855924867 0.0
305 1 23.1068943256 16.9280924867 0.0
306 1 27.8139943256 16.4213924867 0.0
307 1 32.7652943256 16.8356924867 0.0
308 1 38.0619943256 16.3926924867 0.0
309 1 43.7521943256 16.7387924867 0.0
310 1 50.8787943256 19.0074924867 0.0
311 1 54.5995943256 16.5566924867 0.0
312 1 59.4731943256 13.9940924867 0.0
313 1 64.4975943256 15.2911924867 0.0
314 1 68.9002943256 14.9245924867 0.0
315 1 74.1787943256 15.6076924867 0.0
316 1 76.6488943256 20.2680924867 0.0
317 1 5.75160432556 21.9080924867 0.0
318 1 10.4012943256 21.1738924867 0.0
319 1 16.9419943256 23.9441924867 0.0
320 1 21.0318943256 22.8255924867 0.0
321 1 23.9743943256 22.3019924867 0.0
322 1 30.2243943256 21.2555924867 0.0
323 1 35.6763943256 20.9767924867 0.0
324 1 40.9245943256 20.7447924867 0.0
325 1 46.2730943256 21.4223924867 0.0
326 1 53.1015943256 21.0343924867 0.0
327 1 58.3054943256 20.5909924867 0.0
328 1 63.3007943256 20.6201924867 0.0
329 1 68.0997943256 17.8298924867 0.0
330 1 71.9361943256 20.6119924867 0.0
331 1 2.06858432556 25.0217924867 0.0
332 1 6.85840432556 24.6997924867 0.0
333 1 12.0549943256 26.0950924867 0.0
334 1 17.6768943256 26.8764924867 0.0
335 1 23.1034943256 27.1241924867 0.0
336 1 28.1114943256 25.8883924867 0.0
337 1 33.3046943256 25.6622924867 0.0
338 1 38.4355943256 25.4120924867 0.0
339 1 45.6057943256 26.8325924867 0.0
340 1 49.8518943256 25.8451924867 0.0
341 1 52.8625943256 26.0559924867 0.0
342 1 60.1663943256 25.1200924867 0.0
343 1 65.4099943256 25.0452924867 0.0
344 1 70.4365943256 25.3786924867 0.0
345 1 75.7229943256 23.1263924867 0.0
346 1 0.748124325555 29.8151924867 0.0
347 1 6.10842432556 27.6100924867 0.0
348 1 7.19137432556 31.8745924867 0.0
349 1 14.2060943256 30.8424924867 0.0
350 1 19.7623943256 31.2907924867 0.0
351 1 25.5352943256 30.5092924867 0.0
352 1 31.0841943256 29.4456924867 0.0
353 1 36.5993943256 30.2117924867 0.0
354 1 39.5849943256 30.7391924867 0.0
355 1 46.3672943256 29.7581924867 0.0
356 1 51.8795943256 30.1780924867 0.0
357 1 57.2797943256 29.6520924867 0.0
358 1 62.6534943256 29.3406924867 0.0
359 1 67.9667943256 29.6207924867 0.0
360 1 73.3949943256 29.7395924867 0.0
361 1 2.00154432556 34.7595924867 0.0
362 1 6.38735432556 36.1932924867 0.0
363 1 11.5233943256 35.5420924867 0.0
364 1 18.1816943256 36.8293924867 0.0
365 1 24.6996943256 36.2354924867 0.0
366 1 28.7535943256 34.2447924867 0.0
367 1 33.7417943256 33.8387924867 0.0
368 1 38.7466943256 35.3668924867 0.0
369 1 43.6290943256 34.9924924867 0.0
370 1 48.4066943256 33.8865924867 0.0
371 1 56.2632943256 35.3030924867 0.0
372 1 60.4054943256 33.8768924867 0.0
373 1 65.4007943256 34.1042924867 0.0
374 1 70.4703943256 34.3811924867 0.0
375 1 75.4599943256 34.4329924867 0.0
376 1 77.1109943256 39.3762924867 0.0
377 1 3.36790432556 40.0882924867 0.0
378 1 8.96896432556 40.3342924867 0.0
379 1 14.2225943256 39.4974924867 0.0
380 1 20.1218943256 39.1206924867 0.0
381 1 26.1685943256 38.8372924867 0.0
382 1 31.4530943256 38.2438924867 0.0
383 1 35.7444943256 39.2398924867 0.0
384 1 42.9141943256 40.8893924867 0.0
385 1 46.8683943256 39.0663924867 0.0
386 1 51.6781943256 37.8752924867 0.0
387 1 57.5567943256 38.0225924867 0.0
388 1 62.7283943256 38.6695924867 0.0
389 1 67.6929943256 38.9314924867 0.0
390 1 72.5647943256 39.3496924867 0.0
391 1 1.91507432556 42.7119924867 0.0
392 1 6.52469432556 44.9819924867 0.0
393 1 11.9807943256 43.9578924867 0.0
394 1 19.5718943256 44.8824924867 0.0
395 1 23.5727943256 43.0297924867 0.0
396 1 28.7357943256 43.6187924867 0.0
397 1 31.7550943256 43.3276924867 0.0
398 1 37.6150943256 43.1019924867 0.0
399 1 44.5664943256 43.4570924867 0.0
400 1 47.5185943256 44.0703924867 0.0
401 1 54.4017943256 42.3463924867 0.0
402 1 59.4504943256 42.9086924867 0.0
403 1 64.7725943256 43.1436924867 0.0
404 1 69.9046943256 43.7987924867 0.0
405 1 74.8076943256 44.4212924867 0.0
406 1 77.4011943256 49.0266924867 0.0
407 1 4.66238432556 49.4486924867 0.0
408 1 10.0765943256 48.8140924867 0.0
409 1 15.3354943256 47.5502924867 0.0
410 1 21.1828943256 47.4549924867 0.0
411 1 26.8387943256 45.9596924867 0.0
412 1 31.7076943256 48.6297924867 0.0
413 1 36.7086943256 48.3903924867 0.0
414 1 41.1990943256 47.2069924867 0.0
415 1 48.2968943256 49.6825924867 0.0
416 1 51.9106943256 47.2193924867 0.0
417 1 56.5939943256 47.2443924867 0.0
418 1 61.8104943256 47.5881924867 0.0
419 1 66.8524943256 47.9049924867 0.0
420 1 72.0014943256 48.7245924867 0.0
421 1 2.57469432556 53.6075924867 0.0
422 1 8.13092432556 53.4690924867 0.0
423 1 13.5213943256 52.4706924867 0.0
424 1 18.3059943256 52.1991924867 0.0
425 1 23.0170943256 52.5043924867 0.0
426 1 26.0001943256 52.7179924867 0.0
427 1 33.9035943256 53.4086924867 0.0
428 1 38.8346943256 52.3618924867 0.0
429 1 43.5120943256 51.5856924867 0.0
430 1 50.1641943256 52.0748924867 0.0
431 1 55.5231943256 50.0602924867 0.0
432 1 60.1507943256 52.4450924867 0.0
433 1 65.5251943256 50.6102924867 0.0
434 1 70.6617943256 51.4568924867 0.0
435 1 75.7464943256 53.8427924867 0.0
436 1 1.08439432556 58.1572924867 0.0
437 1 6.34654432556 57.6718924867 0.0
438 1 11.9509943256 57.2432924867 0.0
439 1 17.3464943256 55.0736924867 0.0
440 1 22.0810943256 58.0755924867 0.0
441 1 26.5255943256 55.6641924867 0.0
442 1 31.8456943256 58.0851924867 0.0
443 1 37.2733943256 57.0651924867 0.0
444 1 42.5692943256 54.4393924867 0.0
445 1 47.6058943256 56.9004924867 0.0
446 1 52.7564943256 56.6069924867 0.0
447 1 58.2500943256 56.3827924867 0.0
448 1 63.8396943256 56.5491924867 0.0
449 1 68.8414943256 57.4548924867 0.0
450 1 74.0067943256 58.3681924867 0.0
451 1 4.15693432556 62.0731924867 0.0
452 1 9.69219432556 61.6086924867 0.0
453 1 15.0932943256 61.5993924867 0.0
454 1 20.1029943256 62.1257924867 0.0
455 1 23.0762943256 62.5385924867 0.0
456 1 29.8401943256 62.1912924867 0.0
457 1 35.5653943256 61.7842924867 0.0
458 1 40.8704943256 60.8955924867 0.0
459 1 46.5398943256 59.7327924867 0.0
460 1 50.6833943256 62.1885924867 0.0
461 1 55.3037943256 60.5496924867 0.0
462 1 60.7389943256 60.7334924867 0.0
463 1 65.8566943256 61.4725924867 0.0
464 1 71.1391943256 62.2710924867 0.0
465 1 76.7535943256 62.6417924867 0.0
466 1 1.84195432556 66.7838924867 0.0
467 1 7.12421432556 66.0877924867 0.0
468 1 11.9182943256 66.6894924867 0.0
469 1 14.8623943256 67.2441924867 0.0
470 1 21.3851943256 66.7442924867 0.0
471 1 26.8640943256 66.5005924867 0.0
472 1 32.1904943256 66.7567924867 0.0
473 1 35.2242943256 66.7088924867 0.0
474 1 42.6510943256 65.5005924867 0.0
475 1 49.9616943256 67.8360924867 0.0
476 1 54.3556943256 65.6536924867 0.0
477 1 59.3070943256 63.3672924867 0.0
478 1 63.3792943256 66.5012924867 0.0
479 1 68.0060943256 66.2621924867 0.0
480 1 75.3871943256 68.0283924867 0.0
481 1 3.68385432556 71.8888924867 0.0
482 1 6.67734432556 71.8365924867 0.0
483 1 14.4715943256 72.8511924867 0.0
484 1 18.5582943256 71.2561924867 0.0
485 1 23.8198943256 71.0961924867 0.0
486 1 28.7959943256 71.2247924867 0.0
487 1 33.7398943256 71.4335924867 0.0
488 1 40.8076943256 71.0936924867 0.0
489 1 45.1012943256 69.7287924867 0.0
490 1 50.5816943256 70.8108924867 0.0
491 1 53.5882943256 70.5671924867 0.0
492 1 60.6192943256 70.8108924867 0.0
493 1 65.7611943256 71.2396924867 0.0
494 1 70.8001943256 70.3731924867 0.0
495 1 76.8008943256 70.6778924867 0.0
496 1 0.132607325555 75.6388924867 0.0
497 1 5.58779432556 76.3644924867 0.0
498 1 8.57568432556 76.7425924867 0.0
499 1 15.6740943256 75.6172924867 0.0
500 1 21.0303943256 75.6502924867 0.0
501 1 26.2638943256 75.5222924867 0.0
502 1 31.6420943256 75.6460924867 0.0
503 1 37.3195943256 74.9539924867 0.0
504 1 42.2264943256 73.7465924867 0.0
505 1 46.8534943256 75.1355924867 0.0
506 1 52.2625943256 75.0160924867 0.0
507 1 57.4751943256 74.5615924867 0.0
508 1 62.9767943256 75.3536924867 0.0
509 1 68.5880943256 75.3533924867 0.0
510 1 73.3867943256 75.0123924867 0.0
511 1 4.85302432556 79.2488924867 0.0
512 1 9.95479432556 79.4310924867 0.0
513 1 15.1559943256 78.6086924867 0.0
514 1 20.7099943256 78.6413924867 0.0
515 1 26.1202943256 78.5198924867 0.0
516 1 31.7045943256 78.6436924867 0.0
517 1 38.8320943256 77.6006924867 0.0
518 1 41.7701943256 76.7322924867 0.0
519 1 45.4842943256 80.3334924867 0.0
520 1 53.6502943256 77.6875924867 0.0
521 1 56.6967943256 77.4596924867 0.0
522 1 62.5368943256 78.3259924867 0.0
523 1 69.7836943256 78.1232924867 0.0
524 1 72.7919943256 77.9683924867 0.0
525 1 77.6520943256 78.5865924867 0.0
526 1 2.03808432556 80.2636924867 0.0
527 1 7.33665432556 80.9280924867 0.0
528 1 12.7859943256 80.5246924867 0.0
529 1 17.9272943256 79.8260924867 0.0
530 1 23.4466943256 79.9171924867 0.0
531 1 28.8785943256 79.7308924867 0.0
532 1 34.1269943256 80.4429924867 0.0
533 1 37.1933943256 80.2056924867 0.0
534 1 44.7580943256 77.3819924867 0.0
535 1 48.5130943256 80.6108924867 0.0
536 1 51.4325943256 79.7500924867 0.0
537 1 59.4924943256 78.6593924867 0.0
538 1 65.2164943256 79.7917924867 0.0
539 1 68.1451943256 80.6505924867 0.0
540 1 75.0105943256 80.0170924867 0.0
541 2 2.27791432556 0.390492486669 0.0
542 2 4.15059432556 2.05501248667 0.0
543 2 1.32862432556 2.56057248667 0.0
544 2 6.57340432556 3.26283248667 0.0
545 2 9.02176432556 4.15369248667 0.0
546 2 6.62197432556 5.63322248667 0.0
547 2 12.8730943256 0.696242486669 0.0
548 2 14.3584943256 2.82744248667 0.0
549 2 11.7156943256 3.11626248667 0.0
550 2 18.0326943256 81.3301924867 0.0
551 2 16.9488943256 2.34072248667 0.0
552 2 19.5664943256 2.08224248667 0.0
553 2 25.0037943256 2.27195248667 0.0
554 2 23.5752943256 0.0653564866689 0.0
555 2 22.2971943256 2.18287248667 0.0
556 2 28.7705943256 81.2277924867 0.0
557 2 30.4010943256 1.34991248667 0.0
558 2 27.6441943256 2.27677248667 0.0
559 2 32.4991943256 2.54455248667 0.0
560 2 34.6192943256 3.71944248667 0.0
561 2 32.0506943256 4.96930248667 0.0
562 2 37.8908943256 0.220586486669 0.0
563 2 39.8122943256 2.31033248667 0.0
564 2 37.2588943256 2.63633248667 0.0
565 2 44.5681943256 0.218800486669 0.0
566 2 44.8564943256 2.68877248667 0.0
567 2 42.4511943256 2.22828248667 0.0
568 2 48.5757943256 0.768752486669 0.0
569 2 47.3069943256 3.03364248667 0.0
570 2 49.9753943256 2.86172248667 0.0
571 2 52.3536943256 80.9492924867 0.0
572 2 54.6699943256 1.21939248667 0.0
573 2 52.3312943256 2.02654248667 0.0
574 2 58.9903943256 80.0810924867 0.0
575 2 59.8304943256 0.908882486669 0.0
576 2 57.2603943256 0.939352486669 0.0
577 2 64.6504943256 81.1831924867 0.0
578 2 64.9241943256 2.42279248667 0.0
579 2 62.5779943256 1.32261248667 0.0
580 2 68.9597943256 0.603312486669 0.0
581 2 69.1992943256 3.27785248667 0.0
582 2 71.2811943256 2.24453248667 0.0
583 2 76.7416943256 2.43643248667 0.0
584 2 75.2192943256 0.160030486669 0.0
585 2 74.0416943256 2.26154248667 0.0
586 2 0.270196325555 4.67405248667 0.0
587 2 1.76720432556 7.04271248667 0.0
588 2 77.2233943256 6.68808248667 0.0
589 2 6.97218432556 7.85992248667 0.0
590 2 4.37155432556 7.39678248667 0.0
591 2 10.7741943256 5.58805248667 0.0
592 2 12.2136943256 7.69158248667 0.0
593 2 9.55529432556 7.90887248667 0.0
594 2 17.0604943256 7.24733248667 0.0
595 2 16.5689943256 4.63758248667 0.0
596 2 19.0368943256 5.83458248667 0.0
597 2 21.7224943256 6.69843248667 0.0
598 2 20.8073943256 4.26869248667 0.0
599 2 25.9396943256 4.50313248667 0.0
600 2 26.9522943256 6.63220248667 0.0
601 2 24.2845943256 6.78942248667 0.0
602 2 32.3399943256 7.10333248667 0.0
603 2 29.7053943256 6.66968248667 0.0
604 2 36.3695943256 5.13229248667 0.0
605 2 37.6823943256 7.35567248667 0.0
606 2 35.0076943256 7.27339248667 0.0
607 2 41.2695943256 4.59386248667 0.0
608 2 42.4455943256 7.19680248667 0.0
609 2 40.1669943256 7.07903248667 0.0
610 2 45.9954943256 5.21769248667 0.0
611 2 47.3676943256 7.51535248667 0.0
612 2 44.8155943256 7.53343248667 0.0
613 2 52.4406943256 6.88108248667 0.0
614 2 52.2689943256 4.45602248667 0.0
615 2 54.6980943256 5.32941248667 0.0
616 2 56.1498943256 3.33520248667 0.0
617 2 57.3287943256 5.75168248667 0.0
618 2 61.0140943256 3.13750248667 0.0
619 2 62.3200943256 5.33783248667 0.0
620 2 59.7732943256 5.44739248667 0.0
621 2 67.0666943256 4.13279248667 0.0
622 2 64.7143943256 4.90490248667 0.0
623 2 72.1038943256 7.00036248667 0.0
624 2 74.4873943256 6.40651248667 0.0
625 2 72.8129943256 4.37629248667 0.0
626 2 2.76376432556 9.48952248667 0.0
627 2 2.98131432556 12.3844924867 0.0
628 2 0.969674325555 11.3643924867 0.0
629 2 9.17274432556 12.2218924867 0.0
630 2 7.95101432556 10.1383924867 0.0
631 2 6.95020432556 12.8731924867 0.0
632 2 13.2412943256 9.91729248667 0.0
633 2 11.7675943256 12.0835924867 0.0
634 2 14.2552943256 12.3215924867 0.0
635 2 17.2116943256 9.99299248667 0.0
636 2 19.0811943256 12.0901924867 0.0
637 2 16.6389943256 12.4570924867 0.0
638 2 22.6684943256 9.06848248667 0.0
639 2 21.4430943256 11.7052924867 0.0
640 2 23.8581943256 11.1944924867 0.0
641 2 28.0676943256 8.77805248667 0.0
642 2 29.0336943256 11.1256924867 0.0
643 2 26.4913943256 11.0114924867 0.0
644 2 33.3343943256 9.33334248667 0.0
645 2 34.3221943256 11.5526924867 0.0
646 2 31.6492943256 11.3600924867 0.0
647 2 38.7924943256 9.55419248667 0.0
648 2 39.0372943256 12.3542924867 0.0
649 2 36.9521943256 11.5397924867 0.0
650 2 43.6312943256 9.81439248667 0.0
651 2 45.1605943256 12.1612924867 0.0
652 2 43.0925943256 12.6022924867 0.0
653 2 48.6135943256 9.89369248667 0.0
654 2 49.9429943256 12.2928924867 0.0
655 2 47.5417943256 12.2505924867 0.0
656 2 52.2999943256 9.40562248667 0.0
657 2 54.4749943256 10.9202924867 0.0
658 2 52.1796943256 11.9974924867 0.0
659 2 59.7903943256 9.93609248667 0.0
660 2 59.5914943256 7.63577248667 0.0
661 2 62.1292943256 8.95621248667 0.0
662 2 63.7650943256 7.45242248667 0.0
663 2 64.9872943256 9.60119248667 0.0
664 2 68.3840943256 6.12071248667 0.0
665 2 69.7409943256 7.99454248667 0.0
666 2 67.3611943256 8.84150248667 0.0
667 2 75.5696943256 8.63104248667 0.0
668 2 73.8907943256 10.6035924867 0.0
669 2 76.4894943256 11.0117924867 0.0
670 2 77.3878943256 13.3834924867 0.0
671 2 0.234806325555 15.6906924867 0.0
672 2 75.6311943256 15.2180924867 0.0
673 2 4.81432432556 14.1114924867 0.0
674 2 2.52635432556 15.1411924867 0.0
675 2 10.6817943256 14.3528924867 0.0
676 2 12.4009943256 15.9834924867 0.0
677 2 9.50759432556 16.3950924867 0.0
678 2 14.6250943256 17.2170924867 0.0
679 2 16.8384943256 18.3476924867 0.0
680 2 14.3960943256 19.7062924867 0.0
681 2 20.3130943256 14.3620924867 0.0
682 2 19.2617943256 17.0606924867 0.0
683 2 21.6723943256 16.4732924867 0.0
684 2 25.2369943256 13.3317924867 0.0
685 2 26.5547943256 15.6064924867 0.0
686 2 24.1232943256 15.8126924867 0.0
687 2 30.3480943256 13.4653924867 0.0
688 2 31.5932943256 15.8985924867 0.0
689 2 29.1108943256 15.6791924867 0.0
690 2 35.4553943256 13.7518924867 0.0
691 2 36.6441943256 15.9016924867 0.0
692 2 34.0448943256 16.0491924867 0.0
693 2 41.0180943256 13.9036924867 0.0
694 2 38.8546943256 15.1156924867 0.0
695 2 47.3790943256 17.4527924867 0.0
696 2 46.5995943256 14.6020924867 0.0
697 2 45.2166943256 16.4422924867 0.0
698 2 51.3222943256 14.6290924867 0.0
699 2 53.1416943256 16.2774924867 0.0
700 2 51.1951943256 17.5299924867 0.0
701 2 56.0742943256 12.8597924867 0.0
702 2 58.0098943256 14.3286924867 0.0
703 2 55.5728943256 15.4314924867 0.0
704 2 60.5557943256 15.0049924867 0.0
705 2 63.0095943256 15.5327924867 0.0
706 2 61.1645943256 17.4950924867 0.0
707 2 66.5310943256 11.5556924867 0.0
708 2 67.7681943256 13.9328924867 0.0
709 2 65.4179943256 14.1002924867 0.0
710 2 72.9434943256 14.7561924867 0.0
711 2 72.0069943256 12.4011924867 0.0
712 2 70.3161943256 14.4162924867 0.0
713 2 1.63153432556 17.8602924867 0.0
714 2 2.11931432556 20.6982924867 0.0
715 2 78.0607943256 19.7780924867 0.0
716 2 7.79136432556 18.1943924867 0.0
717 2 9.14168432556 20.3588924867 0.0
718 2 6.69496432556 20.7337924867 0.0
719 2 13.6749943256 22.2947924867 0.0
720 2 11.8656943256 20.8286924867 0.0
721 2 18.4786943256 19.8091924867 0.0
722 2 19.8224943256 21.9560924867 0.0
723 2 17.6295943256 22.5931924867 0.0
724 2 24.3716943256 20.8638924867 0.0
725 2 23.8851943256 18.2305924867 0.0
726 2 26.3110943256 19.4984924867 0.0
727 2 28.9789943256 20.3891924867 0.0
728 2 27.9039943256 17.9167924867 0.0
729 2 32.8043943256 18.3331924867 0.0
730 2 34.2770943256 20.4126924867 0.0
731 2 31.5631943256 20.5578924867 0.0
732 2 38.2189943256 17.8847924867 0.0
733 2 39.5982943256 20.0429924867 0.0
734 2 36.9556943256 20.1772924867 0.0
735 2 43.6813943256 18.2433924867 0.0
736 2 42.3311943256 20.2393924867 0.0
737 2 44.9414943256 20.6846924867 0.0
738 2 49.3827943256 19.0323924867 0.0
739 2 47.1503943256 20.1881924867 0.0
740 2 55.1581943256 17.9358924867 0.0
741 2 56.9678943256 19.9115924867 0.0
742 2 54.3473943256 20.1978924867 0.0
743 2 62.0243943256 19.8289924867 0.0
744 2 59.5381943256 19.7437924867 0.0
745 2 64.8120943256 16.7640924867 0.0
746 2 66.6248943256 18.0862924867 0.0
747 2 64.3239943256 19.5009924867 0.0
748 2 68.5573943256 19.2587924867 0.0
749 2 70.4474943256 20.6082924867 0.0
750 2 68.3787943256 22.0996924867 0.0
751 2 74.1022943256 17.1100924867 0.0
752 2 75.4442943256 19.3721924867 0.0
753 2 72.9756943256 19.5338924867 0.0
754 2 76.4838943256 24.4080924867 0.0
755 2 0.600304325555 25.3501924867 0.0
756 2 76.6000943256 27.0453924867 0.0
757 2 4.25724432556 21.9107924867 0.0
758 2 2.40459432556 23.5435924867 0.0
759 2 10.1224943256 22.6556924867 0.0
760 2 10.8525943256 25.1829924867 0.0
761 2 8.34317432556 24.4717924867 0.0
762 2 15.4486943256 23.8766924867 0.0
763 2 13.1018943256 25.0047924867 0.0
764 2 20.6837943256 24.2842924867 0.0
765 2 21.7637943256 26.4620924867 0.0
766 2 19.1242943256 26.4414924867 0.0
767 2 24.7068943256 23.6145924867 0.0
768 2 26.7001943256 25.3717924867 0.0
769 2 24.2369943256 26.1387924867 0.0
770 2 30.3989943256 22.7550924867 0.0
771 2 29.3700943256 25.0715924867 0.0
772 2 31.9569943256 24.9737924867 0.0
773 2 35.7500943256 22.4822924867 0.0
774 2 34.5298943256 24.7906924867 0.0
775 2 37.0874943256 24.7558924867 0.0
776 2 40.9362943256 22.2458924867 0.0
777 2 41.9738943256 24.8126924867 0.0
778 2 39.6063943256 24.4657924867 0.0
779 2 46.7609943256 22.8634924867 0.0
780 2 46.4090943256 25.5532924867 0.0
781 2 48.6573943256 24.9169924867 0.0
782 2 53.7476943256 24.8470924867 0.0
783 2 53.7482943256 22.3916924867 0.0
784 2 56.1227943256 23.6568924867 0.0
785 2 58.0391943256 22.0629924867 0.0
786 2 58.8563943256 24.3720924867 0.0
787 2 63.0649943256 22.1056924867 0.0