# input file

1350 atoms
2 atom types

0.0 79.0994985214 xlo xhi
0.0 80.4251761501 ylo yhi
-10.0 10.0 zlo zhi
0.0 0.0 0.0 xy xz yz

Masses

1 28.0855 #Si
2 15.9994 #O

Atoms

1 1 3.08760703755 1.25611807507 0.0
2 1 8.44819703755 0.911308075066 0.0
3 1 13.5179870376 0.879388075066 0.0
4 1 18.6996870376 1.76501807507 0.0
5 1 24.7136870376 1.45590807507 0.0
6 1 27.7739870376 1.51579807507 0.0
7 1 33.3258870376 2.13228807507 0.0
8 1 38.5639870376 2.03940807507 0.0
9 1 43.9868870376 1.22867807507 0.0
10 1 49.4774870376 1.46874807507 0.0
11 1 56.1557870376 1.36773807507 0.0
12 1 61.7332870376 1.02954807507 0.0
13 1 67.1923870376 1.32890807507 0.0
14 1 72.1461870376 1.58322807507 0.0
15 1 77.1696870376 1.59725807507 0.0
16 1 0.92176603755 6.11516807507 0.0
17 1 7.45743703755 4.90927807507 0.0
18 1 10.4023870376 5.39134807507 0.0
19 1 15.1566870376 5.67741807507 0.0
20 1 19.8541870376 6.91530807507 0.0
21 1 24.5603870376 7.19968807507 0.0
22 1 30.1958870376 6.12776807507 0.0
23 1 37.2694870376 6.26246807507 0.0
24 1 41.9851870376 7.95525807507 0.0
25 1 47.0004870376 5.54959807507 0.0
26 1 51.3156870376 3.85297807507 0.0
27 1 58.8670870376 5.29856807507 0.0
28 1 64.0087870376 5.43637807507 0.0
29 1 69.1592870376 6.24279807507 0.0
30 1 74.7858870376 6.34285807507 0.0
31 1 4.52223703755 10.6541880751 0.0
32 1 7.51319703755 10.4143880751 0.0
33 1 12.6770870376 10.3435880751 0.0
34 1 17.6461870376 12.9272880751 0.0
35 1 22.2986870376 13.6988880751 0.0
36 1 28.5436870376 10.5278880751 0.0
37 1 32.5948870376 8.00685807507 0.0
38 1 40.4646870376 10.5335880751 0.0
39 1 45.4480870376 10.6995880751 0.0
40 1 50.2229870376 9.47268807507 0.0
41 1 55.6994870376 9.20478807507 0.0
42 1 61.1004870376 9.90138807507 0.0
43 1 66.1873870376 10.3206880751 0.0
44 1 70.1790870376 9.11448807507 0.0
45 1 77.0782870376 10.7132880751 0.0
46 1 78.5714870376 15.7411880751 0.0
47 1 4.89071703755 15.6443880751 0.0
48 1 10.4619870376 14.9419880751 0.0
49 1 16.1253870376 15.5756880751 0.0
50 1 21.6150870376 16.6028880751 0.0
51 1 25.2062870376 14.4032880751 0.0
52 1 32.5628870376 13.6344880751 0.0
53 1 37.6702870376 14.0411880751 0.0
54 1 42.7422870376 15.2730880751 0.0
55 1 47.8149870376 14.7409880751 0.0
56 1 52.8312870376 13.5479880751 0.0
57 1 58.1932870376 13.8204880751 0.0
58 1 63.5660870376 14.7022880751 0.0
59 1 68.6836870376 14.9166880751 0.0
60 1 73.3534870376 14.6674880751 0.0
61 1 1.94594703755 19.9565880751 0.0
62 1 8.03671703755 19.4082880751 0.0
63 1 13.1100870376 19.3136880751 0.0
64 1 17.0376870376 18.4692880751 0.0
65 1 24.6133870376 20.2871880751 0.0
66 1 31.4808870376 18.3047880751 0.0
67 1 34.4968870376 18.3577880751 0.0
68 1 39.5713870376 19.1187880751 0.0
69 1 44.9690870376 19.5771880751 0.0
70 1 51.7676870376 18.4179880751 0.0
71 1 54.7256870376 17.9310880751 0.0
72 1 59.9057870376 18.4248880751 0.0
73 1 64.9805870376 19.2953880751 0.0
74 1 71.6570870376 19.7828880751 0.0
75 1 75.5668870376 19.5704880751 0.0
76 1 77.9125870376 23.8693880751 0.0
77 1 3.43464703755 22.5357880751 0.0
78 1 10.3381870376 23.9440880751 0.0
79 1 15.9366870376 24.1035880751 0.0
80 1 21.1428870376 24.3741880751 0.0
81 1 26.3067870376 24.5055880751 0.0
82 1 31.6579870376 23.6585880751 0.0
83 1 36.7729870376 23.3390880751 0.0
84 1 41.8526870376 23.6778880751 0.0
85 1 46.7737870376 24.5590880751 0.0
86 1 51.8061870376 23.4545880751 0.0
87 1 57.2440870376 22.6569880751 0.0
88 1 60.8925870376 25.6828880751 0.0
89 1 66.9440870376 24.7614880751 0.0
90 1 69.6768870376 22.0298880751 0.0
91 1 1.74095703755 27.8909880751 0.0
92 1 6.88227703755 27.6033880751 0.0
93 1 11.3968870376 26.7441880751 0.0
94 1 17.9191870376 28.7312880751 0.0
95 1 23.4951870376 28.9982880751 0.0
96 1 29.1379870376 28.3264880751 0.0
97 1 34.6479870376 28.0856880751 0.0
98 1 39.6139870376 28.1067880751 0.0
99 1 44.3050870376 30.9458880751 0.0
100 1 51.3052870376 27.9981880751 0.0
101 1 54.2164870376 27.2684880751 0.0
102 1 58.9401870376 27.9446880751 0.0
103 1 63.0949870376 27.7087880751 0.0
104 1 70.8068870376 27.9339880751 0.0
105 1 75.8207870376 27.8056880751 0.0
106 1 1.09730703755 32.0366880751 0.0
107 1 4.16994703755 32.2595880751 0.0
108 1 9.76363703755 32.0779880751 0.0
109 1 14.2914870376 34.5179880751 0.0
110 1 19.8787870376 32.9883880751 0.0
111 1 28.1463870376 32.1861880751 0.0
112 1 31.1689870376 32.3179880751 0.0
113 1 36.5917870376 32.8128880751 0.0
114 1 42.9733870376 33.6594880751 0.0
115 1 47.9155870376 34.0903880751 0.0
116 1 52.3586870376 33.0784880751 0.0
117 1 57.1974870376 32.2877880751 0.0
118 1 62.4263870376 34.7706880751 0.0
119 1 67.8478870376 32.6051880751 0.0
120 1 73.4154870376 32.5899880751 0.0
121 1 1.08693703755 37.3319880751 0.0
122 1 6.60992703755 36.5344880751 0.0
123 1 12.3451870376 36.8559880751 0.0
124 1 18.3557870376 37.5132880751 0.0
125 1 23.2111870376 37.0172880751 0.0
126 1 28.2550870376 38.9848880751 0.0
127 1 33.7508870376 36.8661880751 0.0
128 1 38.1636870376 35.3976880751 0.0
129 1 45.3698870376 38.5019880751 0.0
130 1 50.7306870376 38.4586880751 0.0
131 1 55.5876870376 37.3897880751 0.0
132 1 60.8268870376 37.3267880751 0.0
133 1 67.0974870376 36.9889880751 0.0
134 1 70.0961870376 36.7432880751 0.0
135 1 74.9421870376 37.5375880751 0.0
136 1 76.8559870376 41.8519880751 0.0
137 1 3.96004703755 41.2490880751 0.0
138 1 9.76193703755 40.7211880751 0.0
139 1 14.0614870376 39.3388880751 0.0
140 1 21.4537870376 41.9301880751 0.0
141 1 26.7475870376 41.5923880751 0.0
142 1 31.9623870376 41.3922880751 0.0
143 1 37.3581870376 40.8702880751 0.0
144 1 42.4124870376 41.7950880751 0.0
145 1 47.8631870376 42.8128880751 0.0
146 1 53.3550870376 42.5899880751 0.0
147 1 58.2183870376 41.8895880751 0.0
148 1 63.8086870376 43.6181880751 0.0
149 1 66.6351870376 42.5859880751 0.0
150 1 71.5513870376 41.8271880751 0.0
151 1 78.5190870376 44.3459880751 0.0
152 1 5.86973703755 43.5689880751 0.0
153 1 12.8203870376 44.8807880751 0.0
154 1 18.1013870376 45.6763880751 0.0
155 1 24.1152870376 46.1949880751 0.0
156 1 29.3337870376 45.9445880751 0.0
157 1 34.5922870376 45.4000880751 0.0
158 1 39.6355870376 45.9140880751 0.0
159 1 44.9746870376 46.5104880751 0.0
160 1 50.4486870376 46.9567880751 0.0
161 1 55.6875870376 47.0069880751 0.0
162 1 60.7103870376 48.3574880751 0.0
163 1 65.1687870376 48.6018880751 0.0
164 1 69.7368870376 46.9117880751 0.0
165 1 74.5713870376 46.2331880751 0.0
166 1 78.4324870376 49.9718880751 0.0
167 1 4.72191703755 49.1181880751 0.0
168 1 9.70365703755 49.2682880751 0.0
169 1 14.8677870376 49.5820880751 0.0
170 1 19.5509870376 48.3049880751 0.0
171 1 26.8908870376 50.5099880751 0.0
172 1 32.2149870376 50.0558880751 0.0
173 1 36.5477870376 52.3773880751 0.0
174 1 42.1210870376 50.5860880751 0.0
175 1 47.6261870376 51.0062880751 0.0
176 1 52.7717870376 51.4997880751 0.0
177 1 57.9331870376 52.1657880751 0.0
178 1 63.1788870376 53.4217880751 0.0
179 1 68.2680870376 52.4257880751 0.0
180 1 73.1213870376 51.2321880751 0.0
181 1 2.59497703755 53.8066880751 0.0
182 1 7.60599703755 53.9299880751 0.0
183 1 12.5424870376 53.9504880751 0.0
184 1 18.0273870376 53.6181880751 0.0
185 1 23.4555870376 54.3100880751 0.0
186 1 29.0713870376 54.6145880751 0.0
187 1 34.6903870376 54.7482880751 0.0
188 1 39.7027870376 55.1289880751 0.0
189 1 44.9025870376 55.0025880751 0.0
190 1 49.8608870376 55.8294880751 0.0
191 1 55.0641870376 56.3586880751 0.0
192 1 60.5253870376 57.1036880751 0.0
193 1 65.7684870376 57.4338880751 0.0
194 1 71.8473870376 56.3872880751 0.0
195 1 76.7292870376 54.7810880751 0.0
196 1 1.07356703755 58.8180880751 0.0
197 1 5.61250703755 60.9463880751 0.0
198 1 10.8156870376 58.6284880751 0.0
199 1 15.9693870376 57.9646880751 0.0
200 1 20.6622870376 60.2795880751 0.0
201 1 26.1783870376 58.5981880751 0.0
202 1 31.6755870376 58.7795880751 0.0
203 1 37.1530870376 59.5537880751 0.0
204 1 42.3832870376 59.5308880751 0.0
205 1 46.0128870376 62.4402880751 0.0
206 1 52.3761870376 60.5970880751 0.0
207 1 57.9185870376 60.9190880751 0.0
208 1 63.8102870376 61.6859880751 0.0
209 1 67.9007870376 59.5530880751 0.0
210 1 75.4071870376 59.9882880751 0.0
211 1 4.37024703755 63.7001880751 0.0
212 1 9.21500703755 63.6433880751 0.0
213 1 14.1339870376 62.8270880751 0.0
214 1 19.3255870376 62.9729880751 0.0
215 1 24.1899870376 63.2229880751 0.0
216 1 29.1742870376 62.9146880751 0.0
217 1 34.3202870376 63.3317880751 0.0
218 1 39.2034870376 63.9955880751 0.0
219 1 44.5302870376 65.0292880751 0.0
220 1 48.4179870376 64.1945880751 0.0
221 1 55.3529870376 64.8399880751 0.0
222 1 59.5106870376 63.4627880751 0.0
223 1 67.6970870376 65.1713880751 0.0
224 1 72.9670870376 64.5530880751 0.0
225 1 78.0697870376 64.1322880751 0.0
226 1 1.80692703755 68.2642880751 0.0
227 1 6.92331703755 68.4618880751 0.0
228 1 11.8423870376 67.9136880751 0.0
229 1 16.9146870376 67.4385880751 0.0
230 1 21.7927870376 67.8285880751 0.0
231 1 27.0624870376 67.7011880751 0.0
232 1 32.2585870376 67.5644880751 0.0
233 1 36.5838870376 70.7403880751 0.0
234 1 42.0023870376 68.7020880751 0.0
235 1 47.9366870376 69.6266880751 0.0
236 1 53.1147870376 69.0406880751 0.0
237 1 58.2860870376 69.0745880751 0.0
238 1 62.7274870376 67.3236880751 0.0
239 1 69.9945870376 69.2497880751 0.0
240 1 75.6501870376 68.9927880751 0.0
241 1 4.23921703755 72.9556880751 0.0
242 1 9.70157703755 72.9258880751 0.0
243 1 14.8737870376 72.2525880751 0.0
244 1 19.6842870376 72.3555880751 0.0
245 1 24.4377870376 72.1892880751 0.0
246 1 29.4552870376 72.1016880751 0.0
247 1 37.0712870376 73.7109880751 0.0
248 1 41.1684870376 72.8752880751 0.0
249 1 43.6341870376 71.2083880751 0.0
250 1 50.5399870376 73.7859880751 0.0
251 1 55.8545870376 73.5941880751 0.0
252 1 61.2719870376 72.9397880751 0.0
253 1 66.6590870376 73.0603880751 0.0
254 1 71.2314870376 71.9882880751 0.0
255 1 78.2159870376 73.0369880751 0.0
256 1 0.69506503755 3.09625807507 0.0
257 1 5.85515703755 2.39295807507 0.0
258 1 11.0010870376 2.47709807507 0.0
259 1 15.8630870376 2.75106807507 0.0
260 1 20.6839870376 4.03149807507 0.0
261 1 23.6809870376 4.29542807507 0.0
262 1 30.4069870376 3.08952807507 0.0
263 1 35.9644870376 3.57492807507 0.0
264 1 41.4484870376 2.85675807507 0.0
265 1 46.6793870376 2.56757807507 0.0
266 1 54.3146870376 3.74403807507 0.0
267 1 59.0108870376 2.30510807507 0.0
268 1 64.3902870376 2.45246807507 0.0
269 1 69.5785870376 3.21385807507 0.0
270 1 74.6526870376 3.29623807507 0.0
271 1 3.36285703755 7.89203807507 0.0
272 1 6.34741703755 7.65629807507 0.0
273 1 12.6572870376 7.34205807507 0.0
274 1 17.0561870376 7.99319807507 0.0
275 1 22.0603870376 8.94576807507 0.0
276 1 27.5678870376 7.67279807507 0.0
277 1 35.5426870376 8.71632807507 0.0
278 1 40.1979870376 5.57668807507 0.0
279 1 44.9665870376 7.74794807507 0.0
280 1 49.8519870376 6.48167807507 0.0
281 1 56.0130870376 6.21935807507 0.0
282 1 61.3941870376 6.91242807507 0.0
283 1 66.3526870376 7.31074807507 0.0
284 1 73.1769870376 8.92038807507 0.0
285 1 77.4673870376 7.71833807507 0.0
286 1 0.11681003755 12.8211880751 0.0
287 1 3.08611703755 13.2493880751 0.0
288 1 10.1218870376 11.9422880751 0.0
289 1 15.6677870376 10.6649880751 0.0
290 1 20.3241870376 11.4536880751 0.0
291 1 28.0505870376 13.4928880751 0.0
292 1 31.5293870376 10.8105880751 0.0
293 1 37.4964870376 11.0297880751 0.0
294 1 42.8980870376 12.2837880751 0.0
295 1 48.2460870376 11.7557880751 0.0
296 1 53.0167870376 10.5549880751 0.0
297 1 58.2384870376 10.8198880751 0.0
298 1 63.5180870376 11.6944880751 0.0
299 1 68.7871870376 11.8400880751 0.0
300 1 74.2466870376 11.7528880751 0.0
301 1 2.21240703755 16.9941880751 0.0
302 1 7.81432703755 16.4068880751 0.0
303 1 13.1800870376 16.2906880751 0.0
304 1 19.9634870376 19.0926880751 0.0
305 1 24.5212870376 17.3049880751 0.0
306 1 30.2542870376 15.5490880751 0.0
307 1 34.9958870376 15.3915880751 0.0
308 1 39.8581870376 16.1188880751 0.0
309 1 45.4377870376 16.6016880751 0.0
310 1 50.6704870376 15.6329880751 0.0
311 1 55.4411870376 15.0192880751 0.0
312 1 60.6694870376 15.5248880751 0.0
313 1 66.0383870376 16.4391880751 0.0
314 1 71.1300870376 16.7403880751 0.0
315 1 75.6828870376 16.5712880751 0.0
316 1 78.2245870376 20.9000880751 0.0
317 1 6.33783703755 21.8768880751 0.0
318 1 10.6074870376 20.9535880751 0.0
319 1 15.5368870376 21.0881880751 0.0
320 1 21.8329870376 21.4435880751 0.0
321 1 27.2657870376 21.6645880751 0.0
322 1 30.2092870376 21.0256880751 0.0
323 1 36.8009870376 20.3188880751 0.0
324 1 42.1583870376 20.6798880751 0.0
325 1 47.2168870376 21.5789880751 0.0
326 1 50.1607870376 20.9485880751 0.0
327 1 57.1661870376 19.6621880751 0.0
328 1 62.1593870376 20.4038880751 0.0
329 1 66.6876870376 21.7786880751 0.0
330 1 73.7840870376 21.9904880751 0.0
331 1 1.61724703755 24.9093880751 0.0
332 1 7.43603703755 24.6581880751 0.0
333 1 14.3825870376 26.6985880751 0.0
334 1 18.4572870376 25.7462880751 0.0
335 1 23.6803870376 25.9886880751 0.0
336 1 29.1794870376 25.3497880751 0.0
337 1 34.3184870376 25.0785880751 0.0
338 1 39.2092870376 25.1140880751 0.0
339 1 44.0133870376 25.7694880751 0.0
340 1 49.6215870376 25.5235880751 0.0
341 1 54.7016870376 24.2966880751 0.0
342 1 60.2645870376 22.7579880751 0.0
343 1 66.0763870376 27.6225880751 0.0
344 1 69.9349870376 25.0307880751 0.0
345 1 75.0683870376 24.8098880751 0.0
346 1 78.3561870376 29.5662880751 0.0
347 1 4.39775703755 29.2703880751 0.0
348 1 9.49373703755 29.0750880751 0.0
349 1 15.0128870376 29.6532880751 0.0
350 1 20.6368870376 30.0660880751 0.0
351 1 26.4574870376 29.6918880751 0.0
352 1 31.9409870376 29.4205880751 0.0
353 1 37.1256870376 29.8285880751 0.0
354 1 42.6186870376 28.4444880751 0.0
355 1 47.3282870376 31.1577880751 0.0
356 1 50.3293870376 30.8284880751 0.0
357 1 56.3285870376 29.4008880751 0.0
358 1 61.1509870376 29.9607880751 0.0
359 1 68.3074870376 29.6271880751 0.0
360 1 73.3605870376 29.5573880751 0.0
361 1 78.7213870376 34.6737880751 0.0
362 1 6.99169703755 33.5019880751 0.0
363 1 12.8493870376 31.8569880751 0.0
364 1 17.3390870376 34.6691880751 0.0
365 1 22.6947870376 34.0707880751 0.0
366 1 25.6975870376 33.9046880751 0.0
367 1 33.7586870376 33.8588880751 0.0
368 1 41.1067870376 36.0270880751 0.0
369 1 45.3117870376 35.5213880751 0.0
370 1 50.5643870376 35.4699880751 0.0
371 1 55.0677870376 34.4063880751 0.0
372 1 60.1712870376 32.7795880751 0.0
373 1 65.4522870376 34.4625880751 0.0
374 1 70.6329870376 33.7846880751 0.0
375 1 75.6845870376 34.6112880751 0.0
376 1 77.6187870376 38.9398880751 0.0
377 1 4.01927703755 38.1994880751 0.0
378 1 9.41908703755 37.7177880751 0.0
379 1 16.9439870376 40.1597880751 0.0
380 1 20.9729870376 38.9744880751 0.0
381 1 26.1794870376 36.8491880751 0.0
382 1 31.2225870376 38.4947880751 0.0
383 1 36.5631870376 37.9519880751 0.0
384 1 42.3855870376 38.7812880751 0.0
385 1 48.0603870376 39.8270880751 0.0
386 1 53.5124870376 39.5793880751 0.0
387 1 58.2191870376 38.8563880751 0.0
388 1 62.8079870376 39.5644880751 0.0
389 1 65.8098870376 39.7002880751 0.0
390 1 72.2228870376 38.8758880751 0.0
391 1 2.35026703755 43.8020880751 0.0
392 1 8.84017703755 43.5803880751 0.0
393 1 12.5176870376 41.8925880751 0.0
394 1 18.5602870376 42.7082880751 0.0
395 1 24.1824870376 43.1853880751 0.0
396 1 29.4076870376 42.9641880751 0.0
397 1 34.7792870376 42.4109880751 0.0
398 1 39.6108870376 42.8914880751 0.0
399 1 44.9232870376 43.4988880751 0.0
400 1 50.6554870376 43.9568880751 0.0
401 1 56.0271870376 43.9911880751 0.0
402 1 61.2200870376 42.1048880751 0.0
403 1 63.0511870376 46.4994880751 0.0
404 1 69.3478870376 43.9028880751 0.0
405 1 74.1975870376 43.2461880751 0.0
406 1 77.4297870376 47.1374880751 0.0
407 1 4.28086703755 46.1127880751 0.0
408 1 10.1686870376 46.2815880751 0.0
409 1 15.2578870376 46.6100880751 0.0
410 1 22.5133870376 48.7366880751 0.0
411 1 26.7974870376 47.5185880751 0.0
412 1 32.0954870376 47.0659880751 0.0
413 1 36.9383870376 47.2562880751 0.0
414 1 42.1559870376 47.5773880751 0.0
415 1 47.6140870376 47.9946880751 0.0
416 1 53.0490870376 48.4880880751 0.0
417 1 57.8201870376 49.1439880751 0.0
418 1 62.8369870376 50.4599880751 0.0
419 1 68.0477870376 49.4103880751 0.0
420 1 72.4018870376 48.3027880751 0.0
421 1 2.22826703755 50.8153880751 0.0
422 1 7.17234703755 50.9141880751 0.0
423 1 12.1980870376 50.9602880751 0.0
424 1 17.6721870376 50.6436880751 0.0
425 1 24.0062870376 51.3515880751 0.0
426 1 29.6627870376 51.6694880751 0.0
427 1 35.2055870376 49.7191880751 0.0
428 1 39.5456870376 52.1463880751 0.0
429 1 44.7857870376 52.0027880751 0.0
430 1 50.0502870376 52.8120880751 0.0
431 1 55.1616870376 53.3442880751 0.0
432 1 60.2579870376 54.1093880751 0.0
433 1 66.0101870376 54.4337880751 0.0
434 1 71.0924870376 53.4667880751 0.0
435 1 76.0733870376 51.8488880751 0.0
436 1 0.41661803755 55.8802880751 0.0
437 1 5.05297703755 55.5330880751 0.0
438 1 10.0809870376 55.6852880751 0.0
439 1 15.3597870376 55.0227880751 0.0
440 1 20.5677870376 55.2294880751 0.0
441 1 26.2006870376 55.5903880751 0.0
442 1 31.8527870376 55.7813880751 0.0
443 1 37.0729870376 56.5653880751 0.0
444 1 42.3307870376 56.5399880751 0.0
445 1 47.1024870376 57.0415880751 0.0
446 1 52.3085870376 57.5879880751 0.0
447 1 57.6425870376 57.9353880751 0.0
448 1 63.0598870376 58.7584880751 0.0
449 1 70.8783870376 59.2365880751 0.0
450 1 74.7717870376 57.0499880751 0.0
451 1 4.05271703755 58.3815880751 0.0
452 1 8.61584703755 60.6999880751 0.0
453 1 13.5995870376 59.8441880751 0.0
454 1 18.9848870376 57.7973880751 0.0
455 1 23.6717870376 60.2689880751 0.0
456 1 28.8883870376 59.9237880751 0.0
457 1 34.2529870376 60.3387880751 0.0
458 1 39.7701870376 61.0410880751 0.0
459 1 45.3926870376 59.5212880751 0.0
460 1 51.2825870376 63.3957880751 0.0
461 1 55.0874870376 61.8596880751 0.0
462 1 62.3679870376 64.3250880751 0.0
463 1 66.7453870376 62.3172880751 0.0
464 1 72.8302870376 61.5363880751 0.0
465 1 78.1966870376 61.1093880751 0.0
466 1 1.77299703755 65.2459880751 0.0
467 1 6.81379703755 65.4525880751 0.0
468 1 11.9408870376 64.8955880751 0.0
469 1 16.6929870376 64.4222880751 0.0
470 1 21.6680870376 64.8374880751 0.0
471 1 26.7844870376 64.7159880751 0.0
472 1 31.6306870376 64.6341880751 0.0
473 1 36.5276870376 65.3637880751 0.0
474 1 41.6358870376 65.7378880751 0.0
475 1 46.9477870376 66.7952880751 0.0
476 1 52.6454870376 66.0761880751 0.0
477 1 58.0615870376 66.0846880751 0.0
478 1 65.7211870376 67.4402880751 0.0
479 1 70.4950870376 66.2783880751 0.0
480 1 75.6408870376 65.9573880751 0.0
481 1 4.30430703755 69.9430880751 0.0
482 1 9.56919703755 69.9001880751 0.0
483 1 14.5279870376 69.2616880751 0.0
484 1 19.2273870376 69.3744880751 0.0
485 1 24.4600870376 69.1932880751 0.0
486 1 29.7037870376 69.1229880751 0.0
487 1 35.2144870376 68.0717880751 0.0
488 1 39.5361870376 70.3690880751 0.0
489 1 46.4393870376 72.2218880751 0.0
490 1 50.6879870376 70.7885880751 0.0
491 1 55.6916870376 70.5899880751 0.0
492 1 61.1650870376 69.9163880751 0.0
493 1 67.1136870376 70.0890880751 0.0
494 1 74.2152870376 71.6667880751 0.0
495 1 78.4669870376 70.0343880751 0.0
496 1 1.68942703755 74.5771880751 0.0
497 1 6.96678703755 74.2361880751 0.0
498 1 12.5036870376 74.0878880751 0.0
499 1 17.2573870376 74.1040880751 0.0
500 1 22.1311870376 74.1021880751 0.0
501 1 26.9736870376 73.7727880751 0.0
502 1 31.4204870376 74.3377880751 0.0
503 1 34.3423870376 74.9130880751 0.0
504 1 39.5776870376 75.3909880751 0.0
505 1 47.7533870376 74.9190880751 0.0
506 1 53.2381870376 75.1005880751 0.0
507 1 58.7110870376 74.5675880751 0.0
508 1 63.9417870376 74.3581880751 0.0
509 1 69.3760870376 74.3712880751 0.0
510 1 75.5246870376 74.3916880751 0.0
511 1 6.34562703755 77.1849880751 0.0
512 1 14.2357870376 76.5753880751 0.0
513 1 17.2283870376 77.1222880751 0.0
514 1 23.2544870376 76.8968880751 0.0
515 1 26.2441870376 76.6814880751 0.0
516 1 30.6264870376 77.2256880751 0.0
517 1 35.2774870376 80.2139880751 0.0
518 1 40.9360870376 78.0792880751 0.0
519 1 46.9316870376 77.8186880751 0.0
520 1 52.7559870376 78.0686880751 0.0
521 1 58.5010870376 77.5777880751 0.0
522 1 64.2333870376 77.3613880751 0.0
523 1 69.6745870376 77.3839880751 0.0
524 1 74.8707870376 77.3635880751 0.0
525 1 0.97730703755 77.5073880751 0.0
526 1 3.73019703755 78.7332880751 0.0
527 1 9.09037703755 78.4228880751 0.0
528 1 12.0937870376 78.6615880751 0.0
529 1 19.4285870376 79.2703880751 0.0
530 1 22.4433870376 79.7953880751 0.0
531 1 28.1904870376 78.9630880751 0.0
532 1 33.5523870376 77.7872880751 0.0
533 1 38.2374870376 79.5046880751 0.0
534 1 43.9624870376 78.6400880751 0.0
535 1 49.8050870376 78.9006880751 0.0
536 1 55.7095870376 78.8213880751 0.0
537 1 61.4088870376 78.4699880751 0.0
538 1 66.9571870376 78.7307880751 0.0
539 1 72.2749870376 78.9580880751 0.0
540 1 77.4257870376 78.9938880751 0.0
541 2 3.41337703755 80.2115880751 0.0
542 2 1.88943703755 2.16513807507 0.0
543 2 4.45034703755 1.90938807507 0.0
544 2 8.72815703755 79.8785880751 0.0
545 2 9.71244703755 1.71270807507 0.0
546 2 7.09872703755 1.54660807507 0.0
547 2 12.8693870376 79.9546880751 0.0
548 2 14.7510870376 1.73404807507 0.0
549 2 12.2929870376 1.74777807507 0.0
550 2 18.9858870376 0.294768075066 0.0
551 2 19.7383870376 2.86152807507 0.0
552 2 17.2770870376 2.25404807507 0.0
553 2 24.2574870376 2.90199807507 0.0
554 2 23.5738870376 0.413438075066 0.0
555 2 26.2446870376 1.51997807507 0.0
556 2 28.0355870376 0.0205930750658 0.0
557 2 29.0699870376 2.33318807507 0.0
558 2 34.2539870376 0.917088075066 0.0
559 2 34.5721870376 3.02149807507 0.0
560 2 31.8559870376 2.55411807507 0.0
561 2 38.4659870376 0.557578075066 0.0
562 2 37.2488870376 2.76683807507 0.0
563 2 40.0196870376 2.38311807507 0.0
564 2 43.9688870376 80.1544880751 0.0
565 2 45.3380870376 1.89490807507 0.0
566 2 42.7264870376 2.06647807507 0.0
567 2 49.6978870376 80.4125880751 0.0
568 2 50.4563870376 2.61606807507 0.0
569 2 48.0471870376 1.95007807507 0.0
570 2 55.8930870376 80.3211880751 0.0
571 2 57.6077870376 1.76820807507 0.0
572 2 55.1687870376 2.50582807507 0.0
573 2 61.5845870376 79.9656880751 0.0
574 2 63.0731870376 1.71406807507 0.0
575 2 60.3713870376 1.67524807507 0.0
576 2 67.1024870376 80.2410880751 0.0
577 2 65.7864870376 1.89684807507 0.0
578 2 68.3784870376 2.27224807507 0.0
579 2 72.2140870376 0.0576280750658 0.0
580 2 73.3958870376 2.44728807507 0.0
581 2 70.8688870376 2.40938807507 0.0
582 2 77.2907870376 0.0822180750658 0.0
583 2 78.4747870376 2.36699807507 0.0
584 2 75.9144870376 2.44724807507 0.0
585 2 0.83723203755 4.60528807507 0.0
586 2 2.16154703755 6.98911807507 0.0
587 2 78.7508870376 6.92930807507 0.0
588 2 6.88919703755 6.28155807507 0.0
589 2 6.56607703755 3.71608807507 0.0
590 2 8.92507703755 5.18895807507 0.0
591 2 10.8262870376 3.95374807507 0.0
592 2 11.4463870376 6.45218807507 0.0
593 2 15.5035870376 4.21553807507 0.0
594 2 16.1579870376 6.79420807507 0.0
595 2 13.8732870376 6.46180807507 0.0
596 2 20.1844870376 5.45325807507 0.0
597 2 20.9723870376 7.90580807507 0.0
598 2 18.4750870376 7.50903807507 0.0
599 2 24.1809870376 5.72392807507 0.0
600 2 26.0678870376 7.42393807507 0.0
601 2 23.3992870376 8.19835807507 0.0
602 2 30.2949870376 4.61069807507 0.0
603 2 31.4601870376 6.99329807507 0.0
604 2 28.8355870376 6.82533807507 0.0
605 2 36.4989870376 4.97283807507 0.0
606 2 38.7389870376 5.93996807507 0.0
607 2 36.4457870376 7.50835807507 0.0
608 2 41.1069870376 6.75495807507 0.0
609 2 43.4671870376 7.76774807507 0.0
610 2 41.1932870376 9.22148807507 0.0
611 2 46.7690870376 4.07053807507 0.0
612 2 48.4119870376 6.04899807507 0.0
613 2 45.9404870376 6.61517807507 0.0
614 2 52.8158870376 3.76972807507 0.0
615 2 50.6740870376 5.21782807507 0.0
616 2 58.9836870376 3.80582807507 0.0
617 2 60.1171870376 6.12295807507 0.0
618 2 57.4590870376 5.80861807507 0.0
619 2 64.2028870376 3.94948807507 0.0
620 2 65.1798870376 6.37600807507 0.0
621 2 62.6900870376 6.15801807507 0.0
622 2 69.4426870376 4.73960807507 0.0
623 2 69.7288870376 7.65588807507 0.0
624 2 67.7146870376 6.68789807507 0.0
625 2 74.6669870376 4.82488807507 0.0
626 2 76.1649870376 6.96529807507 0.0
627 2 73.8982870376 7.58258807507 0.0
628 2 3.80161703755 11.9453880751 0.0
629 2 3.74955703755 9.36118807507 0.0
630 2 6.02984703755 10.7208880751 0.0
631 2 8.80309703755 11.1904880751 0.0
632 2 7.12265703755 8.94518807507 0.0
633 2 12.6025870376 8.83629807507 0.0
634 2 14.1597870376 10.6341880751 0.0
635 2 11.4157870376 11.1594880751 0.0
636 2 16.5965870376 11.8383880751 0.0
637 2 18.9792870376 12.1826880751 0.0
638 2 16.9482870376 14.2924880751 0.0
639 2 21.3486870376 12.5605880751 0.0
640 2 23.8034870376 13.8487880751 0.0
641 2 21.7501870376 15.1065880751 0.0
642 2 27.9593870376 9.14228807507 0.0
643 2 30.0404870376 10.6572880751 0.0
644 2 28.1890870376 11.9949880751 0.0
645 2 34.0897870376 8.29998807507 0.0
646 2 32.1048870376 9.43338807507 0.0
647 2 41.6195870376 11.4998880751 0.0
648 2 38.9814870376 10.7222880751 0.0
649 2 45.2934870376 9.21078807507 0.0
650 2 46.8419870376 11.2220880751 0.0
651 2 44.1969870376 11.5285880751 0.0
652 2 50.0629870376 7.97275807507 0.0
653 2 51.6486870376 9.94758807507 0.0
654 2 49.2533870376 10.6316880751 0.0
655 2 55.7928870376 7.70427807507 0.0
656 2 56.9744870376 10.0058880751 0.0
657 2 54.3484870376 9.86348807507 0.0
658 2 61.2823870376 8.40851807507 0.0
659 2 62.2871870376 10.8257880751 0.0
660 2 59.6629870376 10.3401880751 0.0
661 2 66.2525870376 8.81464807507 0.0
662 2 67.4356870376 11.1530880751 0.0
663 2 64.8492870376 10.9996880751 0.0
664 2 71.6800870376 9.00972807507 0.0
665 2 69.5833870376 10.5222880751 0.0
666 2 77.3219870376 9.22368807507 0.0
667 2 78.2080870376 11.7133880751 0.0
668 2 75.7007870376 11.3197880751 0.0
669 2 0.83410203755 16.3899880751 0.0
670 2 78.7887870376 14.2584880751 0.0
671 2 77.1370870376 16.1783880751 0.0
672 2 4.06278703755 14.3828880751 0.0
673 2 6.36072703755 15.9670880751 0.0
674 2 3.60229703755 16.4399880751 0.0
675 2 10.2861870376 13.4390880751 0.0
676 2 11.8350870376 15.5843880751 0.0
677 2 9.12925703755 15.6678880751 0.0
678 2 16.6284870376 17.0133880751 0.0
679 2 14.6111870376 15.7907880751 0.0
680 2 23.0482870376 17.0331880751 0.0
681 2 20.7128870376 17.7886880751 0.0
682 2 26.6083870376 13.9065880751 0.0
683 2 25.0643870376 15.9076880751 0.0
684 2 32.1508870376 12.1851880751 0.0
685 2 33.8275870376 14.4409880751 0.0
686 2 31.4155870376 14.5973880751 0.0
687 2 37.5388870376 12.5408880751 0.0
688 2 38.7949870376 15.0490880751 0.0
689 2 36.3364870376 14.7307880751 0.0
690 2 42.8388870376 13.7744880751 0.0
691 2 44.0759870376 15.9561880751 0.0
692 2 41.3134870376 15.7299880751 0.0
693 2 48.0443870376 13.2491880751 0.0
694 2 49.2217870376 15.2722880751 0.0
695 2 46.6352870376 15.6810880751 0.0
696 2 52.9046870376 12.0539880751 0.0
697 2 54.1696870376 14.2262880751 0.0
698 2 51.6984870376 14.5331880751 0.0
699 2 58.2018870376 12.3219880751 0.0
700 2 59.4543870376 14.6350880751 0.0
701 2 56.8227870376 14.4398880751 0.0
702 2 63.5598870376 13.1944880751 0.0
703 2 64.8006870376 15.5588880751 0.0
704 2 62.1229870376 15.1498880751 0.0
705 2 68.8015870376 13.3758880751 0.0
706 2 69.8688870376 15.8732880751 0.0
707 2 67.3630870376 15.6939880751 0.0
708 2 73.7096870376 13.1817880751 0.0
709 2 74.5560870376 15.5880880751 0.0
710 2 72.2132870376 15.6665880751 0.0
711 2 0.50771903755 20.3622880751 0.0
712 2 2.73383703755 21.2147880751 0.0
713 2 2.16171703755 18.4885880751 0.0
714 2 7.90196703755 17.9167880751 0.0
715 2 7.07595703755 20.5750880751 0.0
716 2 9.35115703755 20.1369880751 0.0
717 2 13.1310870376 17.8079880751 0.0
718 2 14.2626870376 20.2772880751 0.0
719 2 11.8477870376 20.1228880751 0.0
720 2 18.5021870376 18.8025880751 0.0
721 2 16.3644870376 19.8193880751 0.0
722 2 24.6926870376 18.7870880751 0.0
723 2 25.9750870376 20.9005880751 0.0
724 2 23.2541870376 20.9344880751 0.0
725 2 30.8010870376 19.6475880751 0.0
726 2 30.7576870376 16.9762880751 0.0
727 2 32.9873870376 18.4099880751 0.0
728 2 34.8146870376 16.8809880751 0.0
729 2 35.6056870376 19.3859880751 0.0
730 2 39.6762870376 17.6139880751 0.0
731 2 40.8689870376 19.8949880751 0.0
732 2 38.1897870376 19.7231880751 0.0
733 2 45.2698870376 18.0997880751 0.0
734 2 46.1061870376 20.5653880751 0.0
735 2 43.5535870376 20.1037880751 0.0
736 2 50.9359870376 19.6612880751 0.0
737 2 51.1529870376 17.0495880751 0.0
738 2 53.2656870376 18.2747880751 0.0
739 2 55.1200870376 16.4835880751 0.0
740 2 55.9142870376 18.8414880751 0.0
741 2 60.2770870376 16.9745880751 0.0
742 2 61.0641870376 19.3732880751 0.0
743 2 58.5212870376 19.0080880751 0.0
744 2 65.5577870376 17.8927880751 0.0
745 2 65.8485870376 20.5387880751 0.0
746 2 63.5647870376 19.8561880751 0.0
747 2 70.5587870376 20.8234880751 0.0
748 2 71.4081870376 18.2597880751 0.0
749 2 72.6849870376 20.9141880751 0.0
750 2 75.5063870376 18.0699880751 0.0
751 2 76.9564870376 20.1283880751 0.0
752 2 74.7259870376 20.8017880751 0.0
753 2 78.0596870376 22.3828880751 0.0
754 2 0.18423103755 24.4681880751 0.0
755 2 76.5105870376 24.3690880751 0.0
756 2 4.87766703755 22.1839880751 0.0
757 2 2.61920703755 23.7918880751 0.0
758 2 10.5737870376 22.4594880751 0.0
759 2 10.9533870376 25.3072880751 0.0
760 2 8.88972703755 24.3189880751 0.0
761 2 15.0778870376 25.3579880751 0.0
762 2 17.2652870376 24.8248880751 0.0
763 2 15.7335870376 22.5961880751 0.0
764 2 21.4409870376 22.8944880751 0.0
765 2 22.4052870376 25.1929880751 0.0
766 2 19.8058870376 25.0622880751 0.0
767 2 26.7171870376 23.0606880751 0.0
768 2 27.7275870376 24.9897880751 0.0
769 2 24.9988870376 25.2459880751 0.0
770 2 31.0599870376 22.2714880751 0.0
771 2 32.9975870376 24.3394880751 0.0
772 2 30.4294870376 24.5311880751 0.0
773 2 36.7566870376 21.8300880751 0.0
774 2 37.9915870376 24.2279880751 0.0
775 2 35.5253870376 24.1810880751 0.0
776 2 42.0171870376 22.1831880751 0.0
777 2 42.9735870376 24.6800880751 0.0
778 2 40.5111870376 24.3574880751 0.0
779 2 46.9311870376 23.0575880751 0.0
780 2 48.1636870376 25.1543880751 0.0
781 2 45.4311870376 25.2427880751 0.0
782 2 51.0600870376 22.1504880751 0.0
783 2 53.2777870376 23.7738880751 0.0
784 2 50.7161870376 24.4924880751 0.0
785 2 57.1030870376 21.1562880751 0.0
786 2 58.7507870376 22.7627880751 0.0
787 2 55.9950870376 23.5133880751 0.0