# input file

5580 atoms
2 atom types

0.0 163.354886469 xlo xhi
0.0 160.435728946 ylo yhi
-10.0 10.0 zlo zhi
0.0 0.0 0.0 xy xz yz

Masses

1 28.0855 #Si
2 15.9994 #O

Atoms

1 1 3.91897130645 2.21944447298 0.0
2 1 9.14443130645 1.51028447298 0.0
3 1 14.2631413064 1.02219447298 0.0
4 1 19.5754413064 0.641654472983 0.0
5 1 24.6876413064 1.60563447298 0.0
6 1 29.7432413064 1.89128447298 0.0
7 1 35.0146413064 1.61098447298 0.0
8 1 39.8832413064 2.74631447298 0.0
9 1 44.8994413064 2.32645447298 0.0
10 1 50.1547413064 1.26924447298 0.0
11 1 55.3494413064 1.15850447298 0.0
12 1 60.7768413064 1.18278447298 0.0
13 1 66.2969413064 1.16845447298 0.0
14 1 71.5633413064 0.544054472983 0.0
15 1 76.9722413064 0.653774472983 0.0
16 1 82.1165413064 0.913134472983 0.0
17 1 87.3551413064 0.872074472983 0.0
18 1 92.6600413064 1.06438447298 0.0
19 1 97.8997413064 1.42364447298 0.0
20 1 103.228741306 1.60839447298 0.0
21 1 108.616741306 1.15476447298 0.0
22 1 114.157741306 1.01381447298 0.0
23 1 119.630741306 1.15572447298 0.0
24 1 125.164741306 1.59932447298 0.0
25 1 130.210741306 2.26153447298 0.0
26 1 137.177741306 1.61927447298 0.0
27 1 140.208741306 1.87445447298 0.0
28 1 145.488741306 2.21009447298 0.0
29 1 151.184741306 2.32585447298 0.0
30 1 156.518741306 2.38654447298 0.0
31 1 161.991741306 2.29292447298 0.0
32 1 1.58655130645 6.66899447298 0.0
33 1 6.93391130645 6.28994447298 0.0
34 1 12.2008413064 5.82630447298 0.0
35 1 17.3072413064 5.22762447298 0.0
36 1 21.7747413064 7.83916447298 0.0
37 1 27.4024413064 6.38921447298 0.0
38 1 32.6137413064 6.17923447298 0.0
39 1 37.1869413064 8.96786447298 0.0
40 1 42.6872413064 7.17863447298 0.0
41 1 48.0138413064 6.20642447298 0.0
42 1 53.0854413064 5.80950447298 0.0
43 1 58.1429413064 5.55202447298 0.0
44 1 63.7474413064 5.44777447298 0.0
45 1 70.8705413064 4.75372447298 0.0
46 1 73.8908413064 4.88744447298 0.0
47 1 79.2108413064 5.35910447298 0.0
48 1 84.6217413064 5.42280447298 0.0
49 1 89.9317413064 5.44216447298 0.0
50 1 95.4020413064 5.65763447298 0.0
51 1 99.4987413064 7.86479447298 0.0
52 1 106.413741306 5.74789447298 0.0
53 1 111.729741306 5.29672447298 0.0
54 1 116.838741306 5.40097447298 0.0
55 1 121.982741306 5.63662447298 0.0
56 1 126.896741306 6.48358447298 0.0
57 1 131.667741306 6.91248447298 0.0
58 1 136.690741306 7.01480447298 0.0
59 1 143.035741306 6.57355447298 0.0
60 1 148.352741306 6.32737447298 0.0
61 1 153.611741306 6.85171447298 0.0
62 1 159.484741306 6.69449447298 0.0
63 1 4.28214130645 10.832464473 0.0
64 1 9.57720130645 10.501164473 0.0
65 1 14.8077413064 10.120364473 0.0
66 1 20.1303413064 10.365064473 0.0
67 1 25.1684413064 10.870564473 0.0
68 1 30.5111413064 10.799964473 0.0
69 1 35.7321413064 11.601164473 0.0
70 1 40.6310413064 11.850964473 0.0
71 1 45.9370413064 11.007264473 0.0
72 1 50.9534413064 10.660764473 0.0
73 1 55.8029413064 10.385764473 0.0
74 1 60.9221413064 9.63756447298 0.0
75 1 66.0963413064 10.070764473 0.0
76 1 70.9145413064 9.87016447298 0.0
77 1 76.2808413064 9.56616447298 0.0
78 1 81.7881413064 9.77706447298 0.0
79 1 87.1152413064 9.92216447298 0.0
80 1 92.2543413064 9.84806447298 0.0
81 1 97.7843413064 10.303064473 0.0
82 1 102.180741306 9.15286447298 0.0
83 1 109.229741306 9.89216447298 0.0
84 1 114.112741306 9.94636447298 0.0
85 1 119.119741306 10.086164473 0.0
86 1 124.261741306 10.736864473 0.0
87 1 129.162741306 11.495764473 0.0
88 1 134.228741306 11.573964473 0.0
89 1 138.614741306 9.32456447298 0.0
90 1 145.949741306 10.847264473 0.0
91 1 150.883741306 11.023764473 0.0
92 1 155.017741306 9.53376447298 0.0
93 1 162.275741306 10.931964473 0.0
94 1 1.31482130645 15.219064473 0.0
95 1 6.67139130645 15.069164473 0.0
96 1 11.8689413064 14.775464473 0.0
97 1 16.9538413064 14.637464473 0.0
98 1 22.0683413064 15.183264473 0.0
99 1 27.2735413064 15.146864473 0.0
100 1 32.5557413064 15.636864473 0.0
101 1 38.2493413064 16.449464473 0.0
102 1 43.5959413064 15.751064473 0.0
103 1 48.5577413064 15.510764473 0.0
104 1 53.1903413064 15.351064473 0.0
105 1 60.1956413064 14.085564473 0.0
106 1 63.1996413064 14.336864473 0.0
107 1 68.4991413064 14.754864473 0.0
108 1 73.6132413064 14.127564473 0.0
109 1 78.7729413064 13.927564473 0.0
110 1 84.2114413064 14.294664473 0.0
111 1 90.1038413064 14.467564473 0.0
112 1 95.4331413064 14.165564473 0.0
113 1 100.825741306 14.558164473 0.0
114 1 106.171741306 14.092664473 0.0
115 1 111.070741306 14.611264473 0.0
116 1 116.156741306 14.656064473 0.0
117 1 121.216741306 14.904164473 0.0
118 1 126.393741306 15.810164473 0.0
119 1 132.298741306 16.069464473 0.0
120 1 137.657741306 14.944664473 0.0
121 1 143.063741306 14.874564473 0.0
122 1 148.468741306 15.658364473 0.0
123 1 153.821741306 15.264964473 0.0
124 1 159.140741306 14.993664473 0.0
125 1 3.91451130645 19.523264473 0.0
126 1 9.01404130645 19.419264473 0.0
127 1 14.0944413064 19.299864473 0.0
128 1 19.1765413064 19.444864473 0.0
129 1 24.3607413064 19.632364473 0.0
130 1 29.5504413064 19.764164473 0.0
131 1 33.8005413064 18.379364473 0.0
132 1 40.7729413064 20.361464473 0.0
133 1 45.7156413064 20.287464473 0.0
134 1 50.1258413064 20.327564473 0.0
135 1 55.2866413064 19.933064473 0.0
136 1 60.5481413064 19.060664473 0.0
137 1 66.1596413064 18.956664473 0.0
138 1 71.3016413064 19.014264473 0.0
139 1 76.3337413064 18.595064473 0.0
140 1 81.6545413064 18.365964473 0.0
141 1 85.7946413064 16.860064473 0.0
142 1 93.0213413064 18.661564473 0.0
143 1 98.0888413064 18.636464473 0.0
144 1 103.226741306 18.617964473 0.0
145 1 108.081741306 19.067164473 0.0
146 1 113.253741306 19.215064473 0.0
147 1 118.596741306 19.387664473 0.0
148 1 123.741741306 19.769964473 0.0
149 1 127.768741306 18.491864473 0.0
150 1 134.899741306 19.707064473 0.0
151 1 139.815741306 19.188764473 0.0
152 1 145.014741306 19.519064473 0.0
153 1 151.138741306 19.907064473 0.0
154 1 157.064741306 19.569964473 0.0
155 1 162.239741306 19.308064473 0.0
156 1 1.13306130645 24.060664473 0.0
157 1 6.14952130645 24.047964473 0.0
158 1 11.2710413064 23.951864473 0.0
159 1 16.4412413064 23.964064473 0.0
160 1 21.6495413064 24.041964473 0.0
161 1 27.0272413064 24.178664473 0.0
162 1 32.5768413064 23.974564473 0.0
163 1 38.1321413064 24.727264473 0.0
164 1 43.1962413064 25.005064473 0.0
165 1 46.6358413064 27.980364473 0.0
166 1 53.2731413064 24.603864473 0.0
167 1 58.6896413064 23.777364473 0.0
168 1 63.8029413064 23.065264473 0.0
169 1 68.9027413064 23.580464473 0.0
170 1 74.5164413064 23.399464473 0.0
171 1 79.8233413064 22.759664473 0.0
172 1 85.1454413064 22.463864473 0.0
173 1 90.4379413064 22.817964473 0.0
174 1 95.8266413064 23.218264473 0.0
175 1 100.844741306 23.156564473 0.0
176 1 105.041741306 25.865664473 0.0
177 1 110.465741306 23.673664473 0.0
178 1 115.966741306 23.662364473 0.0
179 1 121.544741306 24.067664473 0.0
180 1 126.837741306 24.175064473 0.0
181 1 131.855741306 24.206464473 0.0
182 1 137.091741306 24.110964473 0.0
183 1 142.224741306 23.822964473 0.0
184 1 146.316741306 22.222764473 0.0
185 1 152.903741306 22.331564473 0.0
186 1 159.675741306 23.956964473 0.0
187 1 3.13092130645 28.675964473 0.0
188 1 8.35467130645 28.553164473 0.0
189 1 13.6705413064 28.483264473 0.0
190 1 18.8938413064 28.496664473 0.0
191 1 24.0744413064 28.436864473 0.0
192 1 29.4398413064 28.224764473 0.0
193 1 34.9397413064 28.462664473 0.0
194 1 40.2045413064 29.578664473 0.0
195 1 45.8906413064 30.915464473 0.0
196 1 49.5235413064 28.762064473 0.0
197 1 56.8448413064 28.271464473 0.0
198 1 62.0912413064 27.819964473 0.0
199 1 66.6583413064 27.828864473 0.0
200 1 70.3795413064 26.210264473 0.0
201 1 77.3226413064 27.413364473 0.0
202 1 82.3749413064 26.999864473 0.0
203 1 87.7002413064 27.088364473 0.0
204 1 94.4129413064 27.051864473 0.0
205 1 97.3649413064 27.703864473 0.0
206 1 103.604741306 28.519164473 0.0
207 1 108.712741306 28.363564473 0.0
208 1 113.532741306 27.875464473 0.0
209 1 118.795741306 27.957864473 0.0
210 1 124.085741306 28.602764473 0.0
211 1 129.580741306 28.937964473 0.0
212 1 134.737741306 28.660564473 0.0
213 1 140.147741306 28.483164473 0.0
214 1 145.646741306 27.866964473 0.0
215 1 151.072741306 27.728364473 0.0
216 1 156.341741306 28.141364473 0.0
217 1 161.418741306 28.751964473 0.0
218 1 0.294467306445 33.353764473 0.0
219 1 5.37228130645 33.091464473 0.0
220 1 10.8749413064 32.918064473 0.0
221 1 16.2283413064 32.978264473 0.0
222 1 21.3371413064 32.988764473 0.0
223 1 26.4125413064 32.655064473 0.0
224 1 31.7599413064 32.509464473 0.0
225 1 36.8525413064 33.328364473 0.0
226 1 41.4149413064 32.374464473 0.0
227 1 49.6956413064 34.503464473 0.0
228 1 55.0237413064 32.462564473 0.0
229 1 60.4936413064 32.272064473 0.0
230 1 64.9089413064 32.695564473 0.0
231 1 69.7674413064 32.061764473 0.0
232 1 74.4862413064 31.886364473 0.0
233 1 79.2540413064 31.715164473 0.0
234 1 84.4055413064 31.359964473 0.0
235 1 89.2185413064 32.265664473 0.0
236 1 94.1029413064 32.204264473 0.0
237 1 98.6015413064 30.473964473 0.0
238 1 105.903741306 32.965764473 0.0
239 1 111.241741306 32.859364473 0.0
240 1 116.432741306 32.322664473 0.0
241 1 120.626741306 34.822464473 0.0
242 1 125.998741306 32.986964473 0.0
243 1 133.628741306 33.163064473 0.0
244 1 137.979741306 32.885964473 0.0
245 1 143.212741306 32.380764473 0.0
246 1 148.289741306 32.157464473 0.0
247 1 153.606741306 32.450264473 0.0
248 1 158.552741306 33.090864473 0.0
249 1 2.78181130645 37.875564473 0.0
250 1 8.00840130645 37.203264473 0.0
251 1 13.5389413064 37.314664473 0.0
252 1 18.7622413064 37.575464473 0.0
253 1 24.0588413064 37.421264473 0.0
254 1 29.4426413064 36.905064473 0.0
255 1 34.1377413064 39.422364473 0.0
256 1 39.6398413064 37.741364473 0.0
257 1 45.3679413064 36.314064473 0.0
258 1 51.9024413064 36.488364473 0.0
259 1 57.4156413064 36.496864473 0.0
260 1 61.8813413064 37.404364473 0.0
261 1 67.1705413064 37.090264473 0.0
262 1 72.2752413064 36.871964473 0.0
263 1 77.0886413064 36.650564473 0.0
264 1 82.0549413064 36.033264473 0.0
265 1 86.0655413064 38.942164473 0.0
266 1 91.7365413064 36.975664473 0.0
267 1 97.3786413064 36.059464473 0.0
268 1 102.655741306 36.503564473 0.0
269 1 108.059741306 37.234964473 0.0
270 1 113.381741306 37.031664473 0.0
271 1 118.587741306 37.037864473 0.0
272 1 123.514741306 37.877664473 0.0
273 1 128.549741306 37.783264473 0.0
274 1 131.364741306 35.108564473 0.0
275 1 140.362741306 37.060364473 0.0
276 1 145.286741306 36.867064473 0.0
277 1 150.547741306 36.719364473 0.0
278 1 155.645741306 37.527264473 0.0
279 1 160.940741306 37.894164473 0.0
280 1 0.301167306445 42.500264473 0.0
281 1 6.98509130645 41.658064473 0.0
282 1 9.97184130645 41.318864473 0.0
283 1 15.3767413064 41.847464473 0.0
284 1 21.6142413064 41.927364473 0.0
285 1 27.0628413064 41.472164473 0.0
286 1 32.4404413064 41.899064473 0.0
287 1 37.4264413064 42.417664473 0.0
288 1 42.1984413064 42.614564473 0.0
289 1 46.8053413064 41.796564473 0.0
290 1 52.2140413064 41.669264473 0.0
291 1 58.1315413064 41.650464473 0.0
292 1 63.8892413064 41.597364473 0.0
293 1 69.5921413064 41.594164473 0.0
294 1 75.0874413064 41.609364473 0.0
295 1 80.4416413064 40.948264473 0.0
296 1 85.1747413064 43.101864473 0.0
297 1 90.3281413064 41.188264473 0.0
298 1 95.1890413064 40.514364473 0.0
299 1 100.225741306 40.782664473 0.0
300 1 105.347741306 41.183364473 0.0
301 1 110.514741306 41.530264473 0.0
302 1 115.578741306 41.515264473 0.0
303 1 120.469741306 42.044864473 0.0
304 1 124.602741306 40.665564473 0.0
305 1 132.303741306 40.989464473 0.0
306 1 137.674741306 40.913464473 0.0
307 1 142.630741306 41.741064473 0.0
308 1 148.039741306 41.268664473 0.0
309 1 152.526741306 43.820964473 0.0
310 1 158.169741306 42.244364473 0.0
311 1 2.62366130645 47.351864473 0.0
312 1 7.56789130645 46.850064473 0.0
313 1 12.6621413064 45.841264473 0.0
314 1 17.0132413064 44.363564473 0.0
315 1 23.9730413064 45.889764473 0.0
316 1 29.2854413064 45.983364473 0.0
317 1 34.6257413064 46.762964473 0.0
318 1 39.8724413064 47.310164473 0.0
319 1 44.9080413064 47.086964473 0.0
320 1 49.9741413064 46.139864473 0.0
321 1 55.4124413064 45.538764473 0.0
322 1 60.8630413064 45.654464473 0.0
323 1 66.2542413064 45.626864473 0.0
324 1 71.7117413064 45.898564473 0.0
325 1 78.0081413064 45.804864473 0.0
326 1 85.6328413064 46.052564473 0.0
327 1 88.6231413064 46.186264473 0.0
328 1 93.4011413064 45.528764473 0.0
329 1 98.0680413064 47.480264473 0.0
330 1 103.268741306 45.521764473 0.0
331 1 108.108741306 45.900264473 0.0
332 1 113.226741306 46.137264473 0.0
333 1 118.411741306 46.413164473 0.0
334 1 123.641741306 46.247264473 0.0
335 1 128.538741306 45.337264473 0.0
336 1 133.900741306 45.126564473 0.0
337 1 139.712741306 46.165664473 0.0
338 1 145.292741306 45.931764473 0.0
339 1 150.774741306 46.301364473 0.0
340 1 155.745741306 46.824064473 0.0
341 1 160.944741306 46.716464473 0.0
342 1 163.054741306 51.645864473 0.0
343 1 6.02651130645 51.696464473 0.0
344 1 12.6104413064 49.978564473 0.0
345 1 15.6431413064 49.935464473 0.0
346 1 20.5813413064 50.146864473 0.0
347 1 25.8495413064 50.225664473 0.0
348 1 31.6489413064 50.655364473 0.0
349 1 36.6199413064 51.412264473 0.0
350 1 41.8843413064 51.812064473 0.0
351 1 47.8756413064 51.180364473 0.0
352 1 53.1565413064 50.137964473 0.0
353 1 58.3888413064 49.927864473 0.0
354 1 63.6044413064 50.011764473 0.0
355 1 68.7751413064 50.022264473 0.0
356 1 73.1936413064 48.529264473 0.0
357 1 79.9986413064 50.433764473 0.0
358 1 85.1298413064 50.600964473 0.0
359 1 90.8145413064 50.636464473 0.0
360 1 98.0744413064 50.466664473 0.0
361 1 101.065741306 50.526064473 0.0
362 1 105.678741306 50.509964473 0.0
363 1 110.792741306 50.598564473 0.0
364 1 116.170741306 50.751964473 0.0
365 1 121.529741306 50.768264473 0.0
366 1 126.840741306 50.410264473 0.0
367 1 131.948741306 49.461964473 0.0
368 1 136.920741306 51.435464473 0.0
369 1 142.513741306 50.300764473 0.0
370 1 147.659741306 50.439664473 0.0
371 1 152.817741306 51.225764473 0.0
372 1 158.041741306 51.263764473 0.0
373 1 1.44418130645 54.087564473 0.0
374 1 8.24983130645 55.896564473 0.0
375 1 13.2315413064 55.457764473 0.0
376 1 18.3194413064 54.859264473 0.0
377 1 23.2056413064 54.677264473 0.0
378 1 28.6139413064 54.130064473 0.0
379 1 33.7145413064 55.667264473 0.0
380 1 38.8972413064 56.026164473 0.0
381 1 43.4137413064 54.402164473 0.0
382 1 50.6680413064 54.985264473 0.0
383 1 56.0053413064 54.528264473 0.0
384 1 61.2448413064 54.485164473 0.0
385 1 66.4132413064 54.561864473 0.0
386 1 71.5538413064 54.125864473 0.0
387 1 76.6308413064 54.135664473 0.0
388 1 81.9349413064 54.996564473 0.0
389 1 87.3466413064 54.619264473 0.0
390 1 92.6868413064 55.339264473 0.0
391 1 97.8498413064 55.418164473 0.0
392 1 103.110741306 55.450764473 0.0
393 1 108.113741306 55.159464473 0.0
394 1 113.732741306 55.011764473 0.0
395 1 119.148741306 55.130164473 0.0
396 1 124.378741306 55.030464473 0.0
397 1 129.601741306 54.515164473 0.0
398 1 134.936741306 53.844064473 0.0
399 1 139.598741306 54.816564473 0.0
400 1 144.754741306 54.965164473 0.0
401 1 150.111741306 55.328864473 0.0
402 1 155.564741306 55.718964473 0.0
403 1 160.842741306 56.051864473 0.0
404 1 0.535545306445 59.883764473 0.0
405 1 5.22606130645 60.027964473 0.0
406 1 10.1982413064 60.225264473 0.0
407 1 15.4814413064 59.739064473 0.0
408 1 21.7804413064 59.450764473 0.0
409 1 28.1910413064 57.755564473 0.0
410 1 30.4049413064 61.855564473 0.0
411 1 36.2617413064 60.384264473 0.0
412 1 42.0830413064 59.939964473 0.0
413 1 47.4380413064 59.316464473 0.0
414 1 53.2637413064 59.102964473 0.0
415 1 58.7568413064 58.992664473 0.0
416 1 63.9184413064 59.085764473 0.0
417 1 68.9780413064 58.929764473 0.0
418 1 73.9093413064 58.777464473 0.0
419 1 78.9499413064 58.916464473 0.0
420 1 84.2994413064 59.074864473 0.0
421 1 89.6962413064 59.276164473 0.0
422 1 95.3327413064 59.902164473 0.0
423 1 100.789741306 59.955264473 0.0
424 1 105.725741306 60.033864473 0.0
425 1 111.170741306 59.151664473 0.0
426 1 116.674741306 59.394064473 0.0
427 1 121.767741306 59.623664473 0.0
428 1 126.717741306 59.304664473 0.0
429 1 131.685741306 58.632864473 0.0
430 1 136.699741306 59.111564473 0.0
431 1 141.821741306 59.369364473 0.0
432 1 145.843741306 57.768564473 0.0
433 1 152.749741306 59.717764473 0.0
434 1 156.767741306 58.464264473 0.0
435 1 2.54073130645 64.811564473 0.0
436 1 7.40084130645 64.795564473 0.0
437 1 12.5955413064 64.351164473 0.0
438 1 17.0423413064 62.314064473 0.0
439 1 23.9759413064 63.590064473 0.0
440 1 29.1743413064 64.599364473 0.0
441 1 33.9846413064 64.522264473 0.0
442 1 39.3522413064 64.077964473 0.0
443 1 45.1697413064 64.090964473 0.0
444 1 51.1775413064 62.900164473 0.0
445 1 56.5516413064 63.242864473 0.0
446 1 61.4558413064 63.601964473 0.0
447 1 66.5151413064 63.662564473 0.0
448 1 71.3821413064 63.601264473 0.0
449 1 76.2814413064 63.496064473 0.0
450 1 81.3519413064 63.356764473 0.0
451 1 86.6187413064 63.454064473 0.0
452 1 91.9834413064 63.528764473 0.0
453 1 97.5005413064 64.160664473 0.0
454 1 103.078741306 64.834264473 0.0
455 1 110.552741306 63.153164473 0.0
456 1 113.561741306 63.468164473 0.0
457 1 118.929741306 64.147964473 0.0
458 1 124.064741306 64.235364473 0.0
459 1 128.929741306 63.686064473 0.0
460 1 134.200741306 63.508964473 0.0
461 1 139.555741306 63.758264473 0.0
462 1 144.864741306 63.489664473 0.0
463 1 150.065741306 63.790664473 0.0
464 1 155.478741306 64.111964473 0.0
465 1 160.857741306 64.351664473 0.0
466 1 163.293741306 69.226764473 0.0
467 1 4.86636130645 69.596264473 0.0
468 1 10.0811413064 69.073464473 0.0
469 1 15.5586413064 67.949564473 0.0
470 1 20.8864413064 67.689064473 0.0
471 1 25.8492413064 68.413564473 0.0
472 1 29.8817413064 67.509464473 0.0
473 1 36.8866413064 68.577964473 0.0
474 1 40.6645413064 66.773864473 0.0
475 1 47.0542413064 66.441264473 0.0
476 1 53.1259413064 69.944264473 0.0
477 1 58.5751413064 68.125764473 0.0
478 1 63.9692413064 68.272464473 0.0
479 1 68.9871413064 68.428064473 0.0
480 1 73.8422413064 68.310064473 0.0
481 1 78.9256413064 68.033464473 0.0
482 1 83.8447413064 67.821364473 0.0
483 1 89.2981413064 67.795964473 0.0
484 1 94.3858413064 67.924364473 0.0
485 1 98.7605413064 66.882464473 0.0
486 1 105.641741306 68.941764473 0.0
487 1 110.693741306 67.922764473 0.0
488 1 115.876741306 68.184164473 0.0
489 1 121.088741306 68.840164473 0.0
490 1 126.832741306 68.812064473 0.0
491 1 131.864741306 68.045264473 0.0
492 1 137.159741306 67.976464473 0.0
493 1 142.353741306 68.031764473 0.0
494 1 147.392741306 68.132864473 0.0
495 1 152.586741306 68.261564473 0.0
496 1 157.936741306 68.570564473 0.0
497 1 1.90112130645 74.179164473 0.0
498 1 7.83387130645 73.845664473 0.0
499 1 13.1838413064 72.628064473 0.0
500 1 18.7134413064 72.171564473 0.0
501 1 23.8664413064 72.603264473 0.0
502 1 28.8573413064 73.023464473 0.0
503 1 33.8242413064 72.879064473 0.0
504 1 39.5177413064 72.589964473 0.0
505 1 45.7376413064 72.048464473 0.0
506 1 51.2135413064 72.259464473 0.0
507 1 56.1062413064 72.873464473 0.0
508 1 61.0159413064 72.522564473 0.0
509 1 66.2262413064 73.026864473 0.0
510 1 71.8092413064 73.157764473 0.0
511 1 76.9841413064 72.722564473 0.0
512 1 81.7806413064 72.620664473 0.0
513 1 86.9035413064 71.988364473 0.0
514 1 92.2838413064 72.370864473 0.0
515 1 97.0977413064 72.331564473 0.0
516 1 101.431741306 70.625664473 0.0
517 1 108.835741306 72.854464473 0.0
518 1 112.942741306 74.941064473 0.0
519 1 118.317741306 72.991264473 0.0
520 1 122.573741306 71.485764473 0.0
521 1 129.675741306 73.022364473 0.0
522 1 134.694741306 72.403864473 0.0
523 1 139.834741306 72.509864473 0.0
524 1 144.722741306 72.719464473 0.0
525 1 149.698741306 72.704364473 0.0
526 1 154.858741306 72.772364473 0.0
527 1 160.155741306 73.219864473 0.0
528 1 162.151741306 78.199164473 0.0
529 1 3.21425130645 76.917664473 0.0
530 1 10.9846413064 77.451564473 0.0
531 1 16.3094413064 76.513164473 0.0
532 1 21.7150413064 76.859164473 0.0
533 1 26.7162413064 77.448264473 0.0
534 1 31.7017413064 77.625264473 0.0
535 1 36.7911413064 76.642164473 0.0
536 1 41.2814413064 75.014164473 0.0
537 1 48.0959413064 76.392964473 0.0
538 1 53.0942413064 77.228164473 0.0
539 1 58.2678413064 77.360164473 0.0
540 1 63.3356413064 77.215264473 0.0
541 1 67.5303413064 75.740064473 0.0
542 1 74.6070413064 77.432764473 0.0
543 1 79.4790413064 77.473164473 0.0
544 1 86.1740413064 76.302064473 0.0
545 1 89.1736413064 76.421464473 0.0
546 1 94.4410413064 77.142064473 0.0
547 1 99.8257413064 76.342364473 0.0
548 1 105.323741306 76.915164473 0.0
549 1 110.998741306 77.246164473 0.0
550 1 116.380741306 77.814964473 0.0
551 1 121.637741306 77.136864473 0.0
552 1 126.765741306 77.373464473 0.0
553 1 133.740741306 76.991564473 0.0
554 1 136.745741306 76.952464473 0.0
555 1 141.818741306 77.339564473 0.0
556 1 146.955741306 77.397864473 0.0
557 1 151.932741306 77.262564473 0.0
558 1 157.143741306 77.374064473 0.0
559 1 1.22718130645 82.515564473 0.0
560 1 7.94537130645 81.631064473 0.0
561 1 15.6394413064 80.694564473 0.0
562 1 18.6303413064 80.935864473 0.0
563 1 24.0047413064 81.793064473 0.0
564 1 29.1656413064 82.241164473 0.0
565 1 36.3742413064 81.001364473 0.0
566 1 39.3613413064 80.523064473 0.0
567 1 44.6145413064 80.494464473 0.0
568 1 49.9457413064 81.371964473 0.0
569 1 55.3785413064 81.790764473 0.0
570 1 60.8702413064 81.871964473 0.0
571 1 66.3005413064 81.391664473 0.0
572 1 71.5880413064 81.606364473 0.0
573 1 76.6750413064 82.198264473 0.0
574 1 81.6914413064 82.292564473 0.0
575 1 86.9234413064 81.104964473 0.0
576 1 91.7096413064 83.142564473 0.0
577 1 97.0787413064 81.129164473 0.0
578 1 102.285741306 80.902064473 0.0
579 1 107.685741306 81.129864473 0.0
580 1 113.212741306 81.815964473 0.0
581 1 118.839741306 81.906664473 0.0
582 1 123.814741306 81.921964473 0.0
583 1 128.990741306 82.494364473 0.0
584 1 133.617741306 81.976664473 0.0
585 1 139.008741306 81.764164473 0.0
586 1 144.260741306 81.953664473 0.0
587 1 149.690741306 82.024164473 0.0
588 1 154.799741306 81.786264473 0.0
589 1 159.211741306 84.592564473 0.0
590 1 162.584741306 87.397364473 0.0
591 1 3.13063130645 84.873264473 0.0
592 1 10.4371413064 85.710664473 0.0
593 1 15.4228413064 85.449464473 0.0
594 1 20.6903413064 85.596564473 0.0
595 1 25.9453413064 86.547864473 0.0
596 1 31.5261413064 86.899164473 0.0
597 1 36.4647413064 85.909164473 0.0
598 1 41.5916413064 85.018764473 0.0
599 1 46.9557413064 85.289764473 0.0
600 1 52.4566413064 85.870764473 0.0
601 1 57.9830413064 86.061064473 0.0
602 1 63.5305413064 85.916464473 0.0
603 1 68.7749413064 85.962064473 0.0
604 1 74.0769413064 86.525364473 0.0
605 1 79.1857413064 86.928464473 0.0
606 1 84.6402413064 86.016464473 0.0
607 1 90.2162413064 85.761764473 0.0
608 1 94.9638413064 86.055464473 0.0
609 1 99.6777413064 85.574264473 0.0
610 1 104.714741306 85.383464473 0.0
611 1 110.102741306 85.611464473 0.0
612 1 115.503741306 85.904864473 0.0
613 1 120.759741306 86.647864473 0.0
614 1 126.315741306 86.751464473 0.0
615 1 133.113741306 86.730664473 0.0
616 1 136.099741306 86.222564473 0.0
617 1 141.328741306 86.361064473 0.0
618 1 146.980741306 86.319864473 0.0
619 1 152.523741306 86.517164473 0.0
620 1 157.929741306 87.322064473 0.0
621 1 2.72811130645 90.764164473 0.0
622 1 7.79650130645 89.478664473 0.0
623 1 13.0980413064 90.179864473 0.0
624 1 17.9944413064 89.943864473 0.0
625 1 23.0061413064 90.408864473 0.0
626 1 27.0159413064 89.373064473 0.0
627 1 34.1857413064 90.984164473 0.0
628 1 39.0673413064 90.001264473 0.0
629 1 43.7395413064 89.499764473 0.0
630 1 49.1966413064 89.756264473 0.0
631 1 55.5000413064 90.148764473 0.0
632 1 60.8974413064 90.167664473 0.0
633 1 65.9209413064 90.438164473 0.0
634 1 70.8419413064 90.639764473 0.0
635 1 75.9787413064 91.342164473 0.0
636 1 83.8037413064 90.153664473 0.0
637 1 86.8135413064 89.945164473 0.0
638 1 92.0782413064 90.717664473 0.0
639 1 97.1013413064 90.661364473 0.0
640 1 101.913741306 90.123864473 0.0
641 1 107.330741306 89.826464473 0.0
642 1 112.694741306 90.095164473 0.0
643 1 117.080741306 92.579964473 0.0
644 1 124.485741306 90.785564473 0.0
645 1 127.440741306 91.353564473 0.0
646 1 132.399741306 92.326164473 0.0
647 1 138.735741306 90.869864473 0.0
648 1 144.280741306 90.432064473 0.0
649 1 149.664741306 90.639064473 0.0
650 1 155.007741306 91.226164473 0.0
651 1 160.073741306 92.294264473 0.0
652 1 162.085741306 94.550664473 0.0
653 1 7.36023130645 93.974064473 0.0
654 1 10.3442413064 94.145864473 0.0
655 1 15.2694413064 94.735164473 0.0
656 1 20.3622413064 94.775864473 0.0
657 1 25.5364413064 95.048564473 0.0
658 1 30.9801413064 95.128564473 0.0
659 1 36.5082413064 95.132364473 0.0
660 1 41.5272413064 94.646464473 0.0
661 1 46.3345413064 93.834264473 0.0
662 1 50.7290413064 92.330864473 0.0
663 1 57.8880413064 94.440964473 0.0
664 1 63.0175413064 94.946064473 0.0
665 1 68.1471413064 95.282064473 0.0
666 1 73.0059413064 95.505464473 0.0
667 1 77.0409413064 94.174464473 0.0
668 1 83.8972413064 95.404664473 0.0
669 1 89.1636413064 94.725964473 0.0
670 1 94.2911413064 95.378564473 0.0
671 1 99.6717413064 95.213464473 0.0
672 1 104.977741306 94.267764473 0.0
673 1 109.367741306 96.374664473 0.0
674 1 114.961741306 94.700464473 0.0
675 1 119.853741306 96.481064473 0.0
676 1 124.303741306 96.038864473 0.0
677 1 129.579741306 96.450064473 0.0
678 1 134.418741306 94.617264473 0.0
679 1 141.709741306 94.796064473 0.0
680 1 146.792741306 94.881464473 0.0
681 1 152.002741306 95.285164473 0.0
682 1 157.182741306 96.305764473 0.0
683 1 2.85759130645 99.115864473 0.0
684 1 7.63368130645 99.258864473 0.0
685 1 12.9488413064 99.099864473 0.0
686 1 18.0308413064 99.327864473 0.0
687 1 22.5155413064 101.541864473 0.0
688 1 28.1683413064 99.461864473 0.0
689 1 33.8127413064 99.393864473 0.0
690 1 39.2894413064 99.556864473 0.0
691 1 45.9697413064 98.418864473 0.0
692 1 48.9277413064 97.857764473 0.0
693 1 54.1207413064 98.110864473 0.0
694 1 59.5122413064 99.137864473 0.0
695 1 65.2999413064 99.685864473 0.0
696 1 70.7000413064 100.181864473 0.0
697 1 75.9346413064 99.911864473 0.0
698 1 81.4364413064 100.170864473 0.0
699 1 86.6817413064 99.430864473 0.0
700 1 90.8634413064 101.779864473 0.0
701 1 96.3784413064 99.673864473 0.0
702 1 102.853741306 99.143864473 0.0
703 1 108.255741306 99.160864473 0.0
704 1 112.549741306 99.149864473 0.0
705 1 116.974741306 102.101864473 0.0
706 1 122.567741306 101.208864473 0.0
707 1 127.426741306 100.591864473 0.0
708 1 131.534741306 98.738864473 0.0
709 1 138.773741306 98.984864473 0.0
710 1 143.931741306 99.417864473 0.0
711 1 148.956741306 99.534864473 0.0
712 1 154.187741306 100.187864473 0.0
713 1 158.986741306 98.735864473 0.0
714 1 0.147316306445 103.117864473 0.0
715 1 5.61747130645 103.978864473 0.0
716 1 10.8665413064 103.533864473 0.0
717 1 15.2343413064 106.228864473 0.0
718 1 20.7365413064 104.037864473 0.0
719 1 26.2001413064 103.930864473 0.0
720 1 31.5767413064 103.534864473 0.0
721 1 36.6372413064 103.803864473 0.0
722 1 41.6199413064 104.236864473 0.0
723 1 46.5586413064 103.695864473 0.0
724 1 51.5977413064 102.514864473 0.0
725 1 56.3275413064 104.651864473 0.0
726 1 62.0115413064 103.249864473 0.0
727 1 67.6254413064 104.302864473 0.0
728 1 73.6138413064 104.630864473 0.0
729 1 78.9727413064 104.319864473 0.0
730 1 84.1820413064 104.311864473 0.0
731 1 89.3661413064 104.408864473 0.0
732 1 94.1906413064 104.289864473 0.0
733 1 98.3657413064 101.936864473 0.0
734 1 105.665741306 103.440864473 0.0
735 1 110.665741306 104.214864473 0.0
736 1 115.788741306 104.832864473 0.0
737 1 120.447741306 107.708864473 0.0
738 1 125.850741306 105.536864473 0.0
739 1 130.895741306 104.452864473 0.0
740 1 136.093741306 103.291864473 0.0
741 1 141.394741306 103.732864473 0.0
742 1 146.534741306 104.114864473 0.0
743 1 151.699741306 104.245864473 0.0
744 1 156.048741306 102.544864473 0.0
745 1 2.67091130645 107.764864473 0.0
746 1 8.34077130645 108.293864473 0.0
747 1 13.6552413064 108.860864473 0.0
748 1 18.4098413064 108.928864473 0.0
749 1 23.6939413064 108.206864473 0.0
750 1 29.2333413064 108.036864473 0.0
751 1 34.3469413064 108.305864473 0.0
752 1 39.2514413064 108.698864473 0.0
753 1 44.4011413064 108.672864473 0.0
754 1 49.7094413064 107.713864473 0.0
755 1 54.9473413064 107.313864473 0.0
756 1 59.8331413064 107.541864473 0.0
757 1 64.6198413064 107.676864473 0.0
758 1 68.9809413064 107.017864473 0.0
759 1 76.2317413064 108.866864473 0.0
760 1 81.4599413064 108.902864473 0.0
761 1 86.6449413064 108.958864473 0.0
762 1 91.9911413064 109.134864473 0.0
763 1 97.3083413064 107.672864473 0.0
764 1 102.666741306 107.404864473 0.0
765 1 107.758741306 108.408864473 0.0
766 1 113.027741306 109.015864473 0.0
767 1 118.440741306 109.930864473 0.0
768 1 123.443741306 110.263864473 0.0
769 1 128.569741306 109.549864473 0.0
770 1 134.117741306 108.291864473 0.0
771 1 139.452741306 107.867864473 0.0
772 1 144.346741306 108.451864473 0.0
773 1 149.658741306 108.654864473 0.0
774 1 155.137741306 108.106864473 0.0
775 1 160.415741306 107.270864473 0.0
776 1 163.134741306 111.654864473 0.0
777 1 4.97500130645 112.085864473 0.0
778 1 10.0567413064 113.040864473 0.0
779 1 16.1686413064 113.795864473 0.0
780 1 22.9803413064 112.361864473 0.0
781 1 25.9792413064 112.191864473 0.0
782 1 31.3488413064 112.715864473 0.0
783 1 36.6301413064 113.269864473 0.0
784 1 41.4980413064 113.285864473 0.0
785 1 46.9648413064 112.576864473 0.0
786 1 54.2345413064 111.481864473 0.0
787 1 57.2109413064 112.127864473 0.0
788 1 62.6222413064 112.341864473 0.0
789 1 67.2109413064 114.625864473 0.0
790 1 72.8299413064 112.897864473 0.0
791 1 78.4179413064 113.413864473 0.0
792 1 83.7647413064 113.536864473 0.0
793 1 89.1529413064 113.486864473 0.0
794 1 96.5622413064 112.133864473 0.0
795 1 99.5538413064 111.837864473 0.0
796 1 104.752741306 112.399864473 0.0
797 1 110.070741306 113.101864473 0.0
798 1 115.274741306 113.650864473 0.0
799 1 120.711741306 114.688864473 0.0
800 1 126.174741306 114.368864473 0.0
801 1 130.113741306 112.133864473 0.0
802 1 137.192741306 112.404864473 0.0
803 1 141.951741306 112.903864473 0.0
804 1 147.157741306 112.979864473 0.0