# input file

5580 atoms
2 atom types

0.0 160.776143112 xlo xhi
0.0 163.713706672 ylo yhi
-10.0 10.0 zlo zhi
0.0 0.0 0.0 xy xz yz

Masses

1 28.0855 #Si
2 15.9994 #O

Atoms

1 1 1.22411962802 1.79841333579 0.0
2 1 6.82571962802 2.08772333579 0.0
3 1 12.042769628 0.951783335793 0.0
4 1 16.986169628 163.616853336 0.0
5 1 21.616669628 1.92921333579 0.0
6 1 27.100169628 0.534613335793 0.0
7 1 32.340169628 1.00282333579 0.0
8 1 39.998969628 0.248217335793 0.0
9 1 43.011169628 0.562723335793 0.0
10 1 48.164069628 0.989003335793 0.0
11 1 53.737569628 0.953503335793 0.0
12 1 59.142469628 1.32090333579 0.0
13 1 66.575169628 0.360143335793 0.0
14 1 69.544469628 0.853943335793 0.0
15 1 74.622969628 1.69410333579 0.0
16 1 81.327869628 1.60913333579 0.0
17 1 86.459869628 0.894383335793 0.0
18 1 90.733769628 3.21117333579 0.0
19 1 98.168169628 0.484307335793 0.0
20 1 101.190369628 0.907913335793 0.0
21 1 106.433369628 2.01747333579 0.0
22 1 110.982369628 4.56968333579 0.0
23 1 116.677369628 3.65052333579 0.0
24 1 121.428369628 3.55023333579 0.0
25 1 126.002369628 1.91553333579 0.0
26 1 130.370369628 4.03748333579 0.0
27 1 135.943369628 2.10824333579 0.0
28 1 140.806369628 5.07574333579 0.0
29 1 146.096369628 2.87161333579 0.0
30 1 151.634369628 1.97357333579 0.0
31 1 156.864369628 1.44489333579 0.0
32 1 160.765369628 5.85098333579 0.0
33 1 2.66168962802 4.44509333579 0.0
34 1 9.82676962802 5.91096333579 0.0
35 1 15.203569628 5.05715333579 0.0
36 1 20.527469628 4.72304333579 0.0
37 1 24.572169628 7.87697333579 0.0
38 1 29.680769628 5.36397333579 0.0
39 1 34.764869628 5.45695333579 0.0
40 1 39.936869628 4.86480333579 0.0
41 1 45.641869628 5.36629333579 0.0
42 1 51.195569628 5.10386333579 0.0
43 1 56.020569628 7.13344333579 0.0
44 1 61.455269628 5.43112333579 0.0
45 1 66.878169628 5.20213333579 0.0
46 1 72.220469628 5.83310333579 0.0
47 1 76.566369628 3.98513333579 0.0
48 1 84.292669628 5.76592333579 0.0
49 1 89.216069628 5.83708333579 0.0
50 1 94.375569628 8.23483333579 0.0
51 1 98.960369628 5.19649333579 0.0
52 1 103.707369628 8.01219333579 0.0
53 1 109.409369628 7.17529333579 0.0
54 1 114.436369628 8.08221333579 0.0
55 1 119.477369628 8.49941333579 0.0
56 1 125.909369628 6.97299333579 0.0
57 1 128.903369628 6.65427333579 0.0
58 1 134.144369628 6.34057333579 0.0
59 1 139.256369628 7.67007333579 0.0
60 1 144.012369628 7.91097333579 0.0
61 1 151.114369628 5.99578333579 0.0
62 1 154.193369628 6.22376333579 0.0
63 1 0.557499628022 11.3745533358 0.0
64 1 7.24941962802 10.6191533358 0.0
65 1 12.633669628 9.80015333579 0.0
66 1 17.982669628 9.34025333579 0.0
67 1 22.909469628 10.3991533358 0.0
68 1 27.970969628 10.5127533358 0.0
69 1 32.997569628 9.95945333579 0.0
70 1 38.370569628 9.52325333579 0.0
71 1 43.264469628 11.1575533358 0.0
72 1 48.845869628 9.55185333579 0.0
73 1 54.314069628 9.59025333579 0.0
74 1 61.116269628 9.32657333579 0.0
75 1 64.102869628 9.55555333579 0.0
76 1 69.214669628 9.97615333579 0.0
77 1 77.277269628 8.85607333579 0.0
78 1 80.332269628 9.29546333579 0.0
79 1 85.886769628 10.5053533358 0.0
80 1 93.984669628 11.1862533358 0.0
81 1 96.949269628 10.6854533358 0.0
82 1 102.380369628 10.7280533358 0.0
83 1 106.728369628 11.5821533358 0.0
84 1 111.321369628 12.2046533358 0.0
85 1 116.420369628 12.9699533358 0.0
86 1 122.031369628 13.2831533358 0.0
87 1 126.855369628 12.1719533358 0.0
88 1 133.777369628 9.98225333579 0.0
89 1 135.215369628 13.8290533358 0.0
90 1 140.976369628 12.5854533358 0.0
91 1 145.960369628 12.2742533358 0.0
92 1 150.991369628 11.2258533358 0.0
93 1 156.350369628 11.0669533358 0.0
94 1 159.452369628 15.8317533358 0.0
95 1 2.68570962802 13.6785533358 0.0
96 1 10.552969628 14.5235533358 0.0
97 1 15.820169628 13.9151533358 0.0
98 1 19.880669628 17.1090533358 0.0
99 1 25.309369628 15.0743533358 0.0
100 1 30.537769628 14.8704533358 0.0
101 1 35.789369628 14.1329533358 0.0
102 1 41.377769628 13.5243533358 0.0
103 1 46.763469628 14.1772533358 0.0
104 1 52.971369628 13.5811533358 0.0
105 1 55.926669628 14.2545533358 0.0
106 1 61.395869628 14.3455533358 0.0
107 1 66.503869628 15.7109533358 0.0
108 1 72.074969628 13.9554533358 0.0
109 1 76.847369628 13.5457533358 0.0
110 1 82.316969628 14.0647533358 0.0
111 1 88.196269628 15.5100533358 0.0
112 1 92.859069628 15.0892533358 0.0
113 1 98.562369628 14.7503533358 0.0
114 1 103.773369628 16.1421533358 0.0
115 1 108.470369628 16.7968533358 0.0
116 1 113.265369628 17.0936533358 0.0
117 1 117.582369628 15.7628533358 0.0
118 1 124.893369628 17.3886533358 0.0
119 1 129.811369628 16.5069533358 0.0
120 1 134.664369628 16.7645533358 0.0
121 1 138.059369628 19.6760533358 0.0
122 1 144.397369628 17.0041533358 0.0
123 1 149.409369628 16.1735533358 0.0
124 1 154.381369628 15.4203533358 0.0
125 1 1.77006962802 19.7178533358 0.0
126 1 8.21816962802 18.7724533358 0.0
127 1 13.861869628 18.6662533358 0.0
128 1 19.207169628 20.0816533358 0.0
129 1 23.948469628 19.6354533358 0.0
130 1 28.292669628 21.9866533358 0.0
131 1 33.133469628 18.9501533358 0.0
132 1 38.376069628 17.9545533358 0.0
133 1 43.695369628 18.0947533358 0.0
134 1 46.805069628 21.5219533358 0.0
135 1 54.310469628 18.0513533358 0.0
136 1 59.538269628 20.3951533358 0.0
137 1 66.929969628 18.6598533358 0.0
138 1 69.896369628 18.3907533358 0.0
139 1 75.166269628 18.4954533358 0.0
140 1 79.923269628 18.0507533358 0.0
141 1 83.646269628 16.8025533358 0.0
142 1 91.016269628 20.1478533358 0.0
143 1 95.995269628 18.8546533358 0.0
144 1 100.343369628 21.7096533358 0.0
145 1 105.984369628 21.3381533358 0.0
146 1 110.740369628 21.7790533358 0.0
147 1 116.021369628 21.3640533358 0.0
148 1 121.628369628 21.4855533358 0.0
149 1 128.880369628 21.3170533358 0.0
150 1 131.879369628 21.4026533358 0.0
151 1 136.454369628 22.1926533358 0.0
152 1 140.786369628 20.8620533358 0.0
153 1 148.017369628 21.0290533358 0.0
154 1 152.749369628 20.3190533358 0.0
155 1 157.324369628 22.5590533358 0.0
156 1 160.708369628 24.7251533358 0.0
157 1 3.91386962802 21.9248533358 0.0
158 1 11.610469628 22.7977533358 0.0
159 1 15.895069628 25.9889533358 0.0
160 1 23.419069628 24.3310533358 0.0
161 1 26.485469628 24.4285533358 0.0
162 1 32.847369628 23.8604533358 0.0
163 1 35.662069628 22.8179533358 0.0
164 1 40.804369628 22.3853533358 0.0
165 1 49.785769628 21.4890533358 0.0
166 1 53.126369628 23.4230533358 0.0
167 1 58.124069628 23.0361533358 0.0
168 1 62.868569628 24.0998533358 0.0
169 1 67.693069628 23.3438533358 0.0
170 1 72.790469628 22.8096533358 0.0
171 1 78.410369628 22.9937533358 0.0
172 1 83.861269628 22.3495533358 0.0
173 1 86.561069628 20.9848533358 0.0
174 1 93.488169628 23.9755533358 0.0
175 1 99.011369628 24.3851533358 0.0
176 1 103.215369628 27.8668533358 0.0
177 1 108.129369628 26.4659533358 0.0
178 1 113.045369628 26.0546533358 0.0
179 1 118.174369628 25.5438533358 0.0
180 1 123.538369628 25.8775533358 0.0
181 1 128.768369628 26.4190533358 0.0
182 1 134.290369628 26.6862533358 0.0
183 1 139.780369628 26.2794533358 0.0
184 1 145.201369628 25.3322533358 0.0
185 1 150.841369628 25.4693533358 0.0
186 1 155.958369628 25.2737533358 0.0
187 1 3.16783962802 27.8516533358 0.0
188 1 8.52256962802 27.0467533358 0.0
189 1 13.913669628 28.2901533358 0.0
190 1 18.382269628 30.0023533358 0.0
191 1 22.881969628 29.7569533358 0.0
192 1 28.050369628 29.7024533358 0.0
193 1 33.260269628 29.0447533358 0.0
194 1 40.135169628 26.5056533358 0.0
195 1 42.583369628 24.7879533358 0.0
196 1 48.964369628 28.8622533358 0.0
197 1 54.554969628 27.5716533358 0.0
198 1 59.889269628 28.1936533358 0.0
199 1 65.735769628 28.3839533358 0.0
200 1 72.379869628 26.9518533358 0.0
201 1 75.393469628 26.9158533358 0.0
202 1 79.513969628 30.4235533358 0.0
203 1 84.719569628 28.1436533358 0.0
204 1 90.346569628 28.1695533358 0.0
205 1 95.700169628 28.2949533358 0.0
206 1 101.184369628 30.0616533358 0.0
207 1 105.388369628 31.6732533358 0.0
208 1 110.508369628 31.0638533358 0.0
209 1 115.664369628 30.3779533358 0.0
210 1 121.285369628 29.9939533358 0.0
211 1 126.496369628 32.1152533358 0.0
212 1 131.956369628 30.8687533358 0.0
213 1 139.202369628 30.0110533358 0.0
214 1 142.251369628 29.9743533358 0.0
215 1 147.550369628 29.4322533358 0.0
216 1 153.053369628 30.0189533358 0.0
217 1 158.729369628 29.8349533358 0.0
218 1 0.562339628022 32.9945533358 0.0
219 1 5.56571962802 31.8090533358 0.0
220 1 10.645369628 31.9086533358 0.0
221 1 15.197569628 33.8462533358 0.0
222 1 20.230669628 34.8616533358 0.0
223 1 25.563869628 34.3576533358 0.0
224 1 31.037469628 33.8585533358 0.0
225 1 36.702769628 32.8866533358 0.0
226 1 41.508769628 31.1729533358 0.0
227 1 47.316669628 31.3558533358 0.0
228 1 52.351869628 32.0263533358 0.0
229 1 56.856169628 32.1418533358 0.0
230 1 62.338869628 31.8580533358 0.0
231 1 68.166869628 32.6209533358 0.0
232 1 72.474469628 32.5971533358 0.0
233 1 77.690869628 32.8508533358 0.0
234 1 83.277069628 33.2293533358 0.0
235 1 88.183269628 32.4153533358 0.0
236 1 94.557969628 32.2959533358 0.0
237 1 97.532369628 32.8915533358 0.0
238 1 99.671369628 37.6049533358 0.0
239 1 107.935369628 36.0262533358 0.0
240 1 113.510369628 35.2976533358 0.0
241 1 118.694369628 34.2509533358 0.0
242 1 124.547369628 34.3871533358 0.0
243 1 129.272369628 35.6144533358 0.0
244 1 134.519369628 35.4427533358 0.0
245 1 139.537369628 34.8718533358 0.0
246 1 146.823369628 33.5807533358 0.0
247 1 149.833369628 33.8743533358 0.0
248 1 154.081369628 32.8903533358 0.0
249 1 3.09348962802 36.9320533358 0.0
250 1 8.11317962802 36.4686533358 0.0
251 1 12.069069628 40.0213533358 0.0
252 1 17.538069628 38.9033533358 0.0
253 1 21.666469628 37.5171533358 0.0
254 1 28.712369628 38.2701533358 0.0
255 1 32.726569628 36.3470533358 0.0
256 1 40.160269628 36.4473533358 0.0
257 1 45.100569628 34.9532533358 0.0
258 1 50.324669628 36.1663533358 0.0
259 1 55.008769628 37.0054533358 0.0
260 1 59.423769628 36.1076533358 0.0
261 1 64.851669628 35.5996533358 0.0
262 1 69.650269628 37.6020533358 0.0
263 1 74.422769628 37.1867533358 0.0
264 1 78.878569628 35.6034533358 0.0
265 1 85.841269628 37.5103533358 0.0
266 1 89.864969628 37.7581533358 0.0
267 1 94.563769628 37.6030533358 0.0
268 1 102.431369628 38.8689533358 0.0
269 1 106.158369628 40.5095533358 0.0
270 1 111.552369628 39.8268533358 0.0
271 1 118.339369628 38.5483533358 0.0
272 1 121.294369628 37.9671533358 0.0
273 1 125.423369628 41.3877533358 0.0
274 1 132.639369628 39.8951533358 0.0
275 1 137.812369628 39.7202533358 0.0
276 1 142.521369628 39.0255533358 0.0
277 1 147.229369628 38.5757533358 0.0
278 1 152.406369628 38.5897533358 0.0
279 1 158.441369628 37.8497533358 0.0
280 1 0.318639628022 41.6085533358 0.0
281 1 5.48851962802 41.3229533358 0.0
282 1 10.643769628 42.6755533358 0.0
283 1 15.574569628 43.5031533358 0.0
284 1 21.128669628 43.1101533358 0.0
285 1 26.704169628 42.8924533358 0.0
286 1 31.835669628 42.1306533358 0.0
287 1 37.465869628 40.9466533358 0.0
288 1 44.508069628 39.7399533358 0.0
289 1 47.486969628 39.8392533358 0.0
290 1 52.535969628 41.3617533358 0.0
291 1 59.564169628 40.7422533358 0.0
292 1 64.092569628 39.3503533358 0.0
293 1 64.885869628 43.4272533358 0.0
294 1 70.064769628 40.5679533358 0.0
295 1 77.711369628 41.0882533358 0.0
296 1 82.714369628 41.6127533358 0.0
297 1 87.627169628 42.9011533358 0.0
298 1 92.621169628 42.5328533358 0.0
299 1 96.902169628 44.6971533358 0.0
300 1 101.637369628 41.8350533358 0.0
301 1 108.998369628 44.3749533358 0.0
302 1 112.852369628 42.5542533358 0.0
303 1 119.570369628 44.2007533358 0.0
304 1 124.542369628 44.2304533358 0.0
305 1 128.228369628 42.3744533358 0.0
306 1 135.160369628 44.2762533358 0.0
307 1 142.160369628 43.6058533358 0.0
308 1 145.160369628 43.6262533358 0.0
309 1 149.977369628 43.2007533358 0.0
310 1 153.990369628 41.2305533358 0.0
311 1 2.85933962802 45.9901533358 0.0
312 1 7.11097962802 48.4361533358 0.0
313 1 12.293469628 47.7096533358 0.0
314 1 17.560269628 47.3903533358 0.0
315 1 24.541869628 47.2266533358 0.0
316 1 30.907069628 46.8705533358 0.0
317 1 35.980569628 45.1641533358 0.0
318 1 40.695569628 45.3677533358 0.0
319 1 45.141469628 44.4836533358 0.0
320 1 49.587769628 47.1600533358 0.0
321 1 55.206669628 46.1530533358 0.0
322 1 59.968969628 45.4362533358 0.0
323 1 64.437169628 48.3316533358 0.0
324 1 69.133369628 45.2811533358 0.0
325 1 74.715269628 45.1419533358 0.0
326 1 79.884969628 45.9890533358 0.0
327 1 84.444269628 48.8829533358 0.0
328 1 90.137069628 47.5272533358 0.0
329 1 95.495169628 47.4026533358 0.0
330 1 100.773369628 47.2657533358 0.0
331 1 106.167369628 48.3485533358 0.0
332 1 111.802369628 48.4098533358 0.0
333 1 116.982369628 48.9137533358 0.0
334 1 122.678369628 48.7910533358 0.0
335 1 128.379369628 48.0219533358 0.0
336 1 131.385369628 48.1357533358 0.0
337 1 136.543369628 48.9900533358 0.0
338 1 141.876369628 48.6807533358 0.0
339 1 147.394369628 48.2528533358 0.0
340 1 153.454369628 47.2084533358 0.0
341 1 158.638369628 46.2625533358 0.0
342 1 0.600589628022 50.9258533358 0.0
343 1 5.70443962802 51.0687533358 0.0
344 1 8.25888962802 55.1778533358 0.0
345 1 15.174569628 51.9803533358 0.0
346 1 19.450869628 49.7056533358 0.0
347 1 26.384769628 49.6205533358 0.0
348 1 35.509869628 49.8088533358 0.0
349 1 38.486169628 50.0746533358 0.0
350 1 43.347869628 49.8136533358 0.0
351 1 48.382569628 49.8927533358 0.0
352 1 53.303369628 50.3991533358 0.0
353 1 58.649069628 50.4581533358 0.0
354 1 63.614369628 51.2151533358 0.0
355 1 69.192969628 50.1219533358 0.0
356 1 72.120269628 49.3215533358 0.0
357 1 76.566669628 52.1234533358 0.0
358 1 82.439769628 51.1740533358 0.0
359 1 87.439769628 52.1272533358 0.0
360 1 93.134769628 52.0213533358 0.0
361 1 98.340169628 51.8082533358 0.0
362 1 103.436369628 52.0444533358 0.0
363 1 108.658369628 52.4711533358 0.0
364 1 113.814369628 53.1853533358 0.0
365 1 119.635369628 52.8330533358 0.0
366 1 124.953369628 54.0603533358 0.0
367 1 129.454369628 53.7634533358 0.0
368 1 134.380369628 52.9613533358 0.0
369 1 139.564369628 53.1638533358 0.0
370 1 144.646369628 52.6601533358 0.0
371 1 149.248369628 50.6508533358 0.0
372 1 156.491369628 51.2966533358 0.0
373 1 3.88769962802 55.5514533358 0.0
374 1 11.026069628 56.2707533358 0.0
375 1 14.985169628 56.8627533358 0.0
376 1 19.679569628 54.9795533358 0.0
377 1 24.620369628 54.6751533358 0.0
378 1 29.612869628 54.3760533358 0.0
379 1 34.859769628 54.6837533358 0.0
380 1 42.361469628 54.3775533358 0.0
381 1 45.372569628 54.4235533358 0.0
382 1 50.669469628 54.7812533358 0.0
383 1 56.047369628 54.7450533358 0.0
384 1 59.078569628 57.9646533358 0.0
385 1 64.626469628 56.8414533358 0.0
386 1 69.257869628 56.1804533358 0.0
387 1 74.639169628 54.4661533358 0.0
388 1 79.633069628 55.2954533358 0.0
389 1 85.081169628 56.2008533358 0.0
390 1 89.035869628 54.6915533358 0.0
391 1 95.692269628 56.4210533358 0.0
392 1 100.693369628 56.5031533358 0.0
393 1 106.089369628 56.7346533358 0.0
394 1 111.222369628 57.3050533358 0.0
395 1 115.045369628 55.9416533358 0.0
396 1 121.363369628 59.8660533358 0.0
397 1 128.132369628 58.6870533358 0.0
398 1 133.352369628 57.7773533358 0.0
399 1 138.050369628 57.3494533358 0.0
400 1 142.934369628 59.6121533358 0.0
401 1 147.707369628 56.2582533358 0.0
402 1 153.428369628 55.8060533358 0.0
403 1 159.539369628 55.9398533358 0.0
404 1 1.95816962802 60.2812533358 0.0
405 1 6.90722962802 60.4249533358 0.0
406 1 10.833669628 59.2744533358 0.0
407 1 17.722569628 60.3660533358 0.0
408 1 22.353469628 59.5009533358 0.0
409 1 27.267569628 59.1688533358 0.0
410 1 32.140269628 59.0064533358 0.0
411 1 37.199269628 59.2604533358 0.0
412 1 42.121769628 59.2565533358 0.0
413 1 49.334869628 58.6623533358 0.0
414 1 52.339469628 58.9231533358 0.0
415 1 57.215469628 60.3656533358 0.0
416 1 62.052869628 61.3959533358 0.0
417 1 67.184669628 61.3323533358 0.0
418 1 72.133769628 59.3509533358 0.0
419 1 76.766369628 59.4394533358 0.0
420 1 80.858369628 58.0314533358 0.0
421 1 87.710569628 60.4640533358 0.0
422 1 92.737969628 60.8355533358 0.0
423 1 97.670969628 61.0864533358 0.0
424 1 103.060369628 60.9020533358 0.0
425 1 108.567369628 61.5406533358 0.0
426 1 114.475369628 61.7049533358 0.0
427 1 119.842369628 62.4254533358 0.0
428 1 123.808369628 61.5584533358 0.0
429 1 130.787369628 64.9289533358 0.0
430 1 136.064369628 62.4211533358 0.0
431 1 141.741369628 62.3986533358 0.0
432 1 147.122369628 61.3923533358 0.0
433 1 151.750369628 62.1160533358 0.0
434 1 155.202369628 58.3352533358 0.0
435 1 4.65407962802 65.1045533358 0.0
436 1 11.194469628 64.5717533358 0.0
437 1 14.219469628 64.9402533358 0.0
438 1 19.407369628 64.5744533358 0.0
439 1 24.666269628 64.0143533358 0.0
440 1 29.573769628 63.8166533358 0.0
441 1 34.541669628 63.7252533358 0.0
442 1 39.697769628 63.9736533358 0.0
443 1 44.608069628 63.9956533358 0.0
444 1 49.507969628 63.4767533358 0.0
445 1 53.674569628 66.4572533358 0.0
446 1 59.393969628 65.5544533358 0.0
447 1 65.018769628 65.8673533358 0.0
448 1 70.253569628 64.5961533358 0.0
449 1 75.344869628 64.1383533358 0.0
450 1 80.158269628 63.6032533358 0.0
451 1 83.325869628 67.0770533358 0.0
452 1 91.027769628 67.2628533358 0.0
453 1 96.000969628 65.6564533358 0.0
454 1 100.709369628 65.2894533358 0.0
455 1 105.932369628 65.3241533358 0.0
456 1 110.251369628 64.0327533358 0.0
457 1 117.397369628 66.2966533358 0.0
458 1 122.875369628 67.0480533358 0.0
459 1 128.744369628 67.1374533358 0.0
460 1 133.852369628 67.3557533358 0.0
461 1 139.213369628 66.4360533358 0.0
462 1 143.396369628 64.9279533358 0.0
463 1 150.638369628 64.9003533358 0.0
464 1 155.399369628 64.2779533358 0.0
465 1 160.271369628 64.2897533358 0.0
466 1 1.63858962802 69.2601533358 0.0
467 1 6.28551962802 69.9122533358 0.0
468 1 11.189569628 70.2305533358 0.0
469 1 18.673569628 68.7664533358 0.0
470 1 21.686369628 68.6406533358 0.0
471 1 27.072469628 68.6296533358 0.0
472 1 32.002569628 68.4327533358 0.0
473 1 36.901969628 68.3517533358 0.0
474 1 41.923069628 68.7036533358 0.0
475 1 47.091469628 68.4527533358 0.0
476 1 52.163369628 69.0768533358 0.0
477 1 57.104569628 69.8053533358 0.0
478 1 62.535369628 69.7667533358 0.0
479 1 69.887969628 68.8449533358 0.0
480 1 72.900569628 68.9043533358 0.0
481 1 78.188269628 68.6418533358 0.0
482 1 86.353469628 66.8151533358 0.0
483 1 89.644169628 69.9241533358 0.0
484 1 94.652769628 70.8131533358 0.0
485 1 100.257369628 69.8511533358 0.0
486 1 103.272369628 69.7366533358 0.0
487 1 108.735369628 69.5621533358 0.0
488 1 114.132369628 70.1947533358 0.0
489 1 119.441369628 70.8327533358 0.0
490 1 125.056369628 70.7054533358 0.0
491 1 131.327369628 71.8214533358 0.0
492 1 136.851369628 71.1294533358 0.0
493 1 142.375369628 70.6118533358 0.0
494 1 149.129369628 69.6304533358 0.0
495 1 152.132369628 69.1901533358 0.0
496 1 157.450369628 69.0671533358 0.0
497 1 4.08867962802 74.4640533358 0.0
498 1 8.93046962802 74.7682533358 0.0
499 1 12.762769628 72.8521533358 0.0
500 1 19.832269628 74.1597533358 0.0
501 1 24.957169628 72.8975533358 0.0
502 1 30.323269628 73.1601533358 0.0
503 1 34.933769628 73.0801533358 0.0
504 1 39.610069628 75.2916533358 0.0
505 1 44.887769628 73.0796533358 0.0
506 1 49.137469628 75.6900533358 0.0
507 1 54.407769628 74.0740533358 0.0
508 1 59.816469628 74.0482533358 0.0
509 1 64.959269628 74.2607533358 0.0
510 1 69.742669628 73.7854533358 0.0
511 1 75.285769628 73.2321533358 0.0
512 1 81.430469628 72.2984533358 0.0
513 1 85.504469628 74.5540533358 0.0
514 1 91.063869628 74.8016533358 0.0
515 1 96.120769628 75.9023533358 0.0
516 1 101.541369628 75.2735533358 0.0
517 1 106.739369628 73.8521533358 0.0
518 1 111.257369628 76.3909533358 0.0
519 1 116.902369628 74.9399533358 0.0
520 1 123.728369628 74.4714533358 0.0
521 1 126.489369628 73.3316533358 0.0
522 1 133.542369628 75.5207533358 0.0
523 1 138.720369628 74.8912533358 0.0
524 1 143.783369628 75.3371533358 0.0
525 1 148.858369628 75.2645533358 0.0
526 1 155.033369628 73.5448533358 0.0
527 1 160.276369628 73.8733533358 0.0
528 1 1.77363962802 79.1084533358 0.0
529 1 7.07880962802 79.3372533358 0.0
530 1 12.134969628 78.7585533358 0.0
531 1 17.479769628 78.9628533358 0.0
532 1 24.369969628 77.4185533358 0.0
533 1 27.376069628 77.3419533358 0.0
534 1 32.540769628 78.0995533358 0.0
535 1 37.895769628 77.7710533358 0.0
536 1 42.933269628 78.0625533358 0.0
537 1 48.082869628 78.5039533358 0.0
538 1 52.847669628 78.8989533358 0.0
539 1 57.596869628 78.2912533358 0.0
540 1 62.806669628 78.6260533358 0.0
541 1 67.760769628 78.7772533358 0.0
542 1 72.869169628 77.6166533358 0.0
543 1 77.227969628 75.5331533358 0.0
544 1 84.014769628 77.1451533358 0.0
545 1 87.580769628 81.1770533358 0.0
546 1 93.230769628 79.7884533358 0.0
547 1 97.531769628 78.5554533358 0.0
548 1 104.769369628 78.8695533358 0.0
549 1 109.805369628 79.0370533358 0.0
550 1 114.324369628 79.4313533358 0.0
551 1 119.124369628 79.5590533358 0.0
552 1 124.106369628 79.6936533358 0.0
553 1 130.574369628 79.7630533358 0.0
554 1 135.908369628 79.6327533358 0.0
555 1 140.898369628 79.6662533358 0.0
556 1 144.651369628 78.2161533358 0.0
557 1 150.970369628 77.4390533358 0.0
558 1 156.911369628 80.7340533358 0.0
559 1 5.05770962802 83.6388533358 0.0
560 1 10.171569628 83.7300533358 0.0
561 1 15.158569628 83.2630533358 0.0
562 1 20.369569628 83.6163533358 0.0
563 1 25.027069628 82.1974533358 0.0
564 1 28.953969628 84.5984533358 0.0
565 1 36.427369628 82.1698533358 0.0
566 1 39.437969628 82.4006533358 0.0
567 1 44.752469628 82.7353533358 0.0
568 1 50.400069628 83.4845533358 0.0
569 1 56.656669628 83.0975533358 0.0
570 1 59.631469628 82.8493533358 0.0
571 1 64.780669628 83.3360533358 0.0
572 1 70.990169628 82.5939533358 0.0
573 1 76.240669628 81.1913533358 0.0
574 1 80.997869628 81.1038533358 0.0
575 1 85.735969628 83.5336533358 0.0
576 1 90.927169628 84.0854533358 0.0
577 1 96.256169628 84.0916533358 0.0
578 1 101.821369628 83.5077533358 0.0
579 1 106.935369628 83.5953533358 0.0
580 1 111.901369628 84.1789533358 0.0
581 1 116.827369628 84.2426533358 0.0
582 1 122.166369628 84.2021533358 0.0
583 1 125.997369628 82.0616533358 0.0
584 1 133.197369628 84.0565533358 0.0
585 1 138.601369628 84.2705533358 0.0
586 1 144.161369628 83.9611533358 0.0
587 1 149.400369628 83.2291533358 0.0
588 1 155.019369628 83.1121533358 0.0
589 1 160.472369628 83.6040533358 0.0
590 1 2.33372962802 87.9905533358 0.0
591 1 7.56351962802 88.3518533358 0.0
592 1 14.290169628 87.8634533358 0.0
593 1 17.325469628 87.9252533358 0.0
594 1 24.442169628 87.3589533358 0.0
595 1 27.453369628 87.2182533358 0.0
596 1 32.069969628 88.1209533358 0.0
597 1 36.483469628 90.4003533358 0.0
598 1 42.227869628 86.9765533358 0.0
599 1 47.845069628 87.0175533358 0.0
600 1 52.182269628 88.7841533358 0.0
601 1 56.766069628 88.4144533358 0.0
602 1 62.264369628 87.5666533358 0.0
603 1 66.552869628 85.7474533358 0.0
604 1 73.896069628 86.1201533358 0.0
605 1 78.617569628 86.0509533358 0.0
606 1 83.126769628 89.0448533358 0.0
607 1 88.778669628 88.2025533358 0.0
608 1 94.099769628 89.8289533358 0.0
609 1 99.568369628 87.9092533358 0.0
610 1 104.631369628 88.1619533358 0.0
611 1 109.600369628 88.5251533358 0.0
612 1 114.863369628 88.8667533358 0.0
613 1 120.058369628 88.4841533358 0.0
614 1 125.489369628 87.9360533358 0.0
615 1 130.051369628 88.0446533358 0.0
616 1 135.541369628 88.4546533358 0.0
617 1 140.885369628 88.2282533358 0.0
618 1 146.189369628 88.0817533358 0.0
619 1 151.996369628 87.3963533358 0.0
620 1 157.729369628 87.5961533358 0.0
621 1 3.97067962802 92.5460533358 0.0
622 1 8.93336962802 93.3013533358 0.0
623 1 14.117269628 93.2275533358 0.0
624 1 19.488069628 92.7421533358 0.0
625 1 24.201169628 92.5724533358 0.0
626 1 29.206969628 92.5215533358 0.0
627 1 34.714069628 92.8285533358 0.0
628 1 39.302069628 91.4679533358 0.0
629 1 44.705369628 90.9556533358 0.0
630 1 49.166369628 94.5398533358 0.0
631 1 54.999069628 93.5101533358 0.0
632 1 60.353369628 92.0057533358 0.0
633 1 66.053269628 91.2710533358 0.0
634 1 71.364469628 90.5996533358 0.0
635 1 75.648769628 93.1573533358 0.0
636 1 81.467369628 91.5802533358 0.0
637 1 86.800769628 92.5555533358 0.0
638 1 94.235869628 92.8087533358 0.0
639 1 97.209069628 92.5731533358 0.0
640 1 102.139369628 92.6693533358 0.0
641 1 107.392369628 93.0202533358 0.0
642 1 112.510369628 93.1061533358 0.0
643 1 119.295369628 92.6096533358 0.0
644 1 122.285369628 92.3875533358 0.0
645 1 127.238369628 92.9992533358 0.0
646 1 132.857369628 92.4652533358 0.0
647 1 138.216369628 92.7273533358 0.0
648 1 143.132369628 92.5735533358 0.0
649 1 147.535369628 90.7957533358 0.0
650 1 154.793369628 91.3517533358 0.0
651 1 159.968369628 92.0833533358 0.0
652 1 0.278889628022 96.8868533358 0.0
653 1 6.20862962802 97.5312533358 0.0
654 1 10.300069628 95.9737533358 0.0
655 1 17.122369628 97.2900533358 0.0
656 1 22.237169628 97.5139533358 0.0
657 1 26.988369628 97.2768533358 0.0
658 1 31.727169628 96.8899533358 0.0
659 1 36.807469628 97.7933533358 0.0
660 1 41.658669628 96.8772533358 0.0
661 1 47.123869628 96.7789533358 0.0
662 1 52.160169628 97.7441533358 0.0
663 1 60.187469628 96.0449533358 0.0
664 1 63.189169628 95.5874533358 0.0
665 1 68.734669628 95.4296533358 0.0
666 1 73.963969628 95.7089533358 0.0
667 1 78.871069628 95.7732533358 0.0
668 1 83.935369628 96.3617533358 0.0
669 1 88.884569628 97.3986533358 0.0
670 1 93.512069628 97.6253533358 0.0
671 1 98.906369628 97.2377533358 0.0
672 1 104.290369628 97.2682533358 0.0
673 1 111.245369628 97.3578533358 0.0
674 1 114.227369628 97.7433533358 0.0
675 1 119.240369628 97.9588533358 0.0
676 1 124.455369628 97.3647533358 0.0
677 1 128.463369628 95.7818533358 0.0
678 1 134.815369628 99.4220533358 0.0
679 1 140.290369628 97.3923533358 0.0
680 1 145.732369628 96.4661533358 0.0
681 1 152.833369628 95.4662533358 0.0
682 1 155.819369628 95.8100533358 0.0
683 1 1.65817962802 99.5478533358 0.0
684 1 9.26416962802 101.644853336 0.0
685 1 14.223769628 101.867853336 0.0
686 1 19.257569628 101.938853336 0.0
687 1 24.530269628 102.265853336 0.0
688 1 30.668069628 101.733853336 0.0
689 1 33.674469628 101.799853336 0.0
690 1 39.022469628 101.965853336 0.0
691 1 44.086869628 101.138853336 0.0
692 1 49.162569628 101.762853336 0.0
693 1 53.717869628 100.299853336 0.0
694 1 60.539069628 101.342853336 0.0
695 1 65.739369628 99.7698533358 0.0
696 1 70.878869628 100.172853336 0.0
697 1 77.562869628 100.231853336 0.0
698 1 80.546269628 100.518853336 0.0
699 1 85.763669628 101.412853336 0.0
700 1 90.923469628 102.415853336 0.0
701 1 96.477769628 101.738853336 0.0
702 1 102.818369628 101.285853336 0.0
703 1 105.514369628 99.9988533358 0.0
704 1 111.870369628 102.869853336 0.0
705 1 117.268369628 102.455853336 0.0
706 1 122.491369628 102.116853336 0.0
707 1 127.566369628 101.609853336 0.0
708 1 132.864369628 101.762853336 0.0
709 1 138.134369628 102.250853336 0.0
710 1 142.995369628 101.205853336 0.0
711 1 147.941369628 101.089853336 0.0
712 1 152.809369628 100.619853336 0.0
713 1 157.868369628 100.659853336 0.0
714 1 0.345199628022 104.843853336 0.0
715 1 5.69475962802 105.379853336 0.0
716 1 10.950069628 106.394853336 0.0
717 1 17.574269628 106.450853336 0.0
718 1 20.580569628 106.294853336 0.0
719 1 25.535969628 107.302853336 0.0
720 1 31.182169628 107.126853336 0.0
721 1 36.441969628 106.269853336 0.0
722 1 41.663369628 106.124853336 0.0
723 1 46.780169628 105.997853336 0.0
724 1 52.152069628 105.731853336 0.0
725 1 58.462369628 106.248853336 0.0
726 1 63.585269628 104.797853336 0.0
727 1 67.549869628 106.931853336 0.0
728 1 72.711969628 105.281853336 0.0
729 1 77.822269628 105.232853336 0.0
730 1 83.067569628 105.342853336 0.0
731 1 87.046469628 108.439853336 0.0
732 1 95.023369628 105.953853336 0.0
733 1 97.995569628 106.407853336 0.0
734 1 103.368369628 106.726853336 0.0
735 1 109.137369628 107.445853336 0.0
736 1 114.536369628 106.930853336 0.0
737 1 120.078369628 106.800853336 0.0
738 1 124.936369628 106.555853336 0.0
739 1 129.640369628 106.249853336 0.0
740 1 134.437369628 106.294853336 0.0
741 1 141.869369628 106.262853336 0.0
742 1 145.854369628 105.821853336 0.0
743 1 151.065369628 105.518853336 0.0
744 1 156.017369628 105.183853336 0.0
745 1 1.96929962802 109.294853336 0.0
746 1 6.70135962802 109.948853336 0.0
747 1 11.688769628 111.247853336 0.0
748 1 17.001969628 111.914853336 0.0
749 1 23.066769628 111.360853336 0.0
750 1 27.274869628 109.750853336 0.0
751 1 34.326069628 111.069853336 0.0
752 1 38.921269628 110.700853336 0.0
753 1 44.506769628 110.619853336 0.0
754 1 51.093169628 109.756853336 0.0
755 1 53.706669628 108.287853336 0.0
756 1 60.595769628 109.893853336 0.0
757 1 65.914469628 109.440853336 0.0
758 1 70.824369628 110.287853336 0.0
759 1 75.676169628 109.789853336 0.0
760 1 80.745969628 109.784853336 0.0
761 1 85.527069628 111.025853336 0.0
762 1 90.031869628 111.840853336 0.0
763 1 94.465269628 110.567853336 0.0
764 1 99.984369628 110.857853336 0.0
765 1 105.999369628 111.001853336 0.0
766 1 113.930369628 110.873853336 0.0
767 1 116.966369628 111.027853336 0.0
768 1 122.502369628 111.531853336 0.0
769 1 126.985369628 111.372853336 0.0
770 1 132.055369628 111.135853336 0.0
771 1 136.836369628 110.768853336 0.0
772 1 139.904369628 108.495853336 0.0
773 1 147.820369628 110.015853336 0.0
774 1 153.164369628 109.969853336 0.0
775 1 159.745369628 109.378853336 0.0
776 1 159.759369628 114.491853336 0.0
777 1 3.81989962802 114.432853336 0.0
778 1 8.50686962802 115.044853336 0.0
779 1 12.509569628 114.128853336 0.0
780 1 18.933869628 114.218853336 0.0
781 1 26.401669628 115.347853336 0.0
782 1 31.623069628 115.638853336 0.0
783 1 36.411569628 115.835853336 0.0
784 1 41.266169628 114.711853336 0.0
785 1 46.295769628 115.423853336 0.0
786 1 51.254469628 115.179853336 0.0
787 1 56.589269628 114.191853336 0.0
788 1 64.160769628 113.924853336 0.0
789 1 67.142969628 114.325853336 0.0
790 1 74.568769628 114.504853336 0.0
791 1 77.553269628 114.297853336 0.0
792 1 82.456069628 115.067853336 0.0
793 1 87.572569628 116.302853336 0.0
794 1 94.380169628 115.509853336 0.0
795 1 97.267669628 114.811853336 0.0
796 1 101.018369628 113.669853336 0.0
797 1 107.636369628 113.504853336 0.0
798 1 114.111369628 116.184853336 0.0
799 1 119.788369628 115.507853336 0.0