ITEM: TIMESTEP
0
ITEM: NUMBER OF ATOMS
5580
ITEM: BOX BOUNDS xy xz yz pp pp pp
0.0 161.463833955 0
0.0 163.037135149 0
-10.0 10.0 0
ITEM: ATOMS id type x y z vx vy vz
1 1 2.98998504939 0.276877574521 0.0 0.0 0.0 0.0
2 1 8.92221504939 0.997147574521 0.0 0.0 0.0 0.0
3 1 14.5712150494 0.939597574521 0.0 0.0 0.0 0.0
4 1 19.7289150494 2.63832757452 0.0 0.0 0.0 0.0
5 1 24.9939150494 3.05248757452 0.0 0.0 0.0 0.0
6 1 30.1448150494 1.98111757452 0.0 0.0 0.0 0.0
7 1 35.6787150494 1.89239757452 0.0 0.0 0.0 0.0
8 1 40.9393150494 1.99010757452 0.0 0.0 0.0 0.0
9 1 47.0274150494 0.691047574521 0.0 0.0 0.0 0.0
10 1 50.0395150494 0.499757574521 0.0 0.0 0.0 0.0
11 1 54.9430150494 0.941077574521 0.0 0.0 0.0 0.0
12 1 59.6766150494 1.91870757452 0.0 0.0 0.0 0.0
13 1 64.6798150494 1.48884757452 0.0 0.0 0.0 0.0
14 1 70.4359150494 1.39779757452 0.0 0.0 0.0 0.0
15 1 76.5832150494 162.811567575 0.0 0.0 0.0 0.0
16 1 79.5924150494 162.695567575 0.0 0.0 0.0 0.0
17 1 84.5276150494 1.80000757452 0.0 0.0 0.0 0.0
18 1 89.7628150494 1.87183757452 0.0 0.0 0.0 0.0
19 1 94.0570150494 4.46120757452 0.0 0.0 0.0 0.0
20 1 99.7342150494 2.70315757452 0.0 0.0 0.0 0.0
21 1 106.128215049 2.30181757452 0.0 0.0 0.0 0.0
22 1 111.695215049 2.07391757452 0.0 0.0 0.0 0.0
23 1 117.109215049 2.39405757452 0.0 0.0 0.0 0.0
24 1 121.987215049 2.18342757452 0.0 0.0 0.0 0.0
25 1 127.829215049 2.00292757452 0.0 0.0 0.0 0.0
26 1 134.582215049 2.34642757452 0.0 0.0 0.0 0.0
27 1 139.836215049 2.05630757452 0.0 0.0 0.0 0.0
28 1 144.403215049 2.58038757452 0.0 0.0 0.0 0.0
29 1 150.385215049 0.134572574521 0.0 0.0 0.0 0.0
30 1 153.409215049 162.659567575 0.0 0.0 0.0 0.0
31 1 158.869215049 162.862567575 0.0 0.0 0.0 0.0
32 1 0.0514850493896 4.22973757452 0.0 0.0 0.0 0.0
33 1 4.30805504939 3.02230757452 0.0 0.0 0.0 0.0
34 1 11.6719150494 4.94676757452 0.0 0.0 0.0 0.0
35 1 16.5486150494 5.97970757452 0.0 0.0 0.0 0.0
36 1 21.5872150494 7.21839757452 0.0 0.0 0.0 0.0
37 1 27.4712150494 6.99460757452 0.0 0.0 0.0 0.0
38 1 32.6706150494 6.19418757452 0.0 0.0 0.0 0.0
39 1 39.5095150494 6.13545757452 0.0 0.0 0.0 0.0
40 1 42.4461150494 6.76209757452 0.0 0.0 0.0 0.0
41 1 47.9989150494 6.13676757452 0.0 0.0 0.0 0.0
42 1 52.3136150494 7.85085757452 0.0 0.0 0.0 0.0
43 1 57.5873150494 6.08688757452 0.0 0.0 0.0 0.0
44 1 62.4367150494 8.16983757452 0.0 0.0 0.0 0.0
45 1 67.5775150494 5.53168757452 0.0 0.0 0.0 0.0
46 1 73.1588150494 5.88403757452 0.0 0.0 0.0 0.0
47 1 80.9184150494 6.45681757452 0.0 0.0 0.0 0.0
48 1 79.1614150494 3.94169757452 0.0 0.0 0.0 0.0
49 1 86.8610150494 6.43100757452 0.0 0.0 0.0 0.0
50 1 92.5001150494 7.05762757452 0.0 0.0 0.0 0.0
51 1 97.2172150494 7.08209757452 0.0 0.0 0.0 0.0
52 1 101.402215049 5.22847757452 0.0 0.0 0.0 0.0
53 1 108.977215049 6.31685757452 0.0 0.0 0.0 0.0
54 1 114.500215049 6.53932757452 0.0 0.0 0.0 0.0
55 1 119.868215049 7.07352757452 0.0 0.0 0.0 0.0
56 1 125.506215049 5.66239757452 0.0 0.0 0.0 0.0
57 1 130.039215049 4.02557757452 0.0 0.0 0.0 0.0
58 1 136.587215049 6.63782757452 0.0 0.0 0.0 0.0
59 1 140.980215049 7.08833757452 0.0 0.0 0.0 0.0
60 1 146.028215049 7.14086757452 0.0 0.0 0.0 0.0
61 1 150.982215049 5.72441757452 0.0 0.0 0.0 0.0
62 1 156.185215049 4.14046757452 0.0 0.0 0.0 0.0
63 1 3.13687504939 8.62844757452 0.0 0.0 0.0 0.0
64 1 10.0483150494 8.89156757452 0.0 0.0 0.0 0.0
65 1 12.8969150494 9.92106757452 0.0 0.0 0.0 0.0
66 1 18.1221150494 10.9744675745 0.0 0.0 0.0 0.0
67 1 22.7651150494 9.97776757452 0.0 0.0 0.0 0.0
68 1 29.5846150494 10.9677675745 0.0 0.0 0.0 0.0
69 1 34.4208150494 11.2438675745 0.0 0.0 0.0 0.0
70 1 39.4062150494 11.1332675745 0.0 0.0 0.0 0.0
71 1 43.9015150494 9.40926757452 0.0 0.0 0.0 0.0
72 1 50.9982150494 10.5723675745 0.0 0.0 0.0 0.0
73 1 55.8286150494 11.0144675745 0.0 0.0 0.0 0.0
74 1 61.0159150494 10.8141675745 0.0 0.0 0.0 0.0
75 1 65.8201150494 10.6026675745 0.0 0.0 0.0 0.0
76 1 70.6100150494 9.82886757452 0.0 0.0 0.0 0.0
77 1 74.2912150494 13.0869675745 0.0 0.0 0.0 0.0
78 1 79.5426150494 11.1310675745 0.0 0.0 0.0 0.0
79 1 84.5067150494 10.3104675745 0.0 0.0 0.0 0.0
80 1 90.2186150494 10.8836675745 0.0 0.0 0.0 0.0
81 1 96.3208150494 11.5922675745 0.0 0.0 0.0 0.0
82 1 100.810215049 13.4274675745 0.0 0.0 0.0 0.0
83 1 105.550215049 10.1568675745 0.0 0.0 0.0 0.0
84 1 111.181215049 10.5302675745 0.0 0.0 0.0 0.0
85 1 117.510215049 11.0851675745 0.0 0.0 0.0 0.0
86 1 121.827215049 9.38666757452 0.0 0.0 0.0 0.0
87 1 127.518215049 9.34616757452 0.0 0.0 0.0 0.0
88 1 132.710215049 10.5952675745 0.0 0.0 0.0 0.0
89 1 138.842215049 11.9168675745 0.0 0.0 0.0 0.0
90 1 143.922215049 13.3193675745 0.0 0.0 0.0 0.0
91 1 148.915215049 10.9150675745 0.0 0.0 0.0 0.0
92 1 153.930215049 9.19646757452 0.0 0.0 0.0 0.0
93 1 159.348215049 8.57235757452 0.0 0.0 0.0 0.0
94 1 0.25138504939 13.1090675745 0.0 0.0 0.0 0.0
95 1 4.91544504939 13.7090675745 0.0 0.0 0.0 0.0
96 1 9.92141504939 13.8639675745 0.0 0.0 0.0 0.0
97 1 15.4725150494 14.8462675745 0.0 0.0 0.0 0.0
98 1 20.7927150494 15.3165675745 0.0 0.0 0.0 0.0
99 1 26.1414150494 15.2142675745 0.0 0.0 0.0 0.0
100 1 31.5147150494 15.8126675745 0.0 0.0 0.0 0.0
101 1 36.9898150494 15.8292675745 0.0 0.0 0.0 0.0
102 1 42.5563150494 14.9963675745 0.0 0.0 0.0 0.0
103 1 47.6994150494 14.7710675745 0.0 0.0 0.0 0.0
104 1 52.8567150494 15.5304675745 0.0 0.0 0.0 0.0
105 1 58.1815150494 15.4050675745 0.0 0.0 0.0 0.0
106 1 62.9983150494 15.4418675745 0.0 0.0 0.0 0.0
107 1 67.9981150494 14.9019675745 0.0 0.0 0.0 0.0
108 1 72.9426150494 15.7679675745 0.0 0.0 0.0 0.0
109 1 77.5118150494 16.0826675745 0.0 0.0 0.0 0.0
110 1 82.5574150494 15.3902675745 0.0 0.0 0.0 0.0
111 1 87.7765150494 14.5085675745 0.0 0.0 0.0 0.0
112 1 92.3658150494 13.1115675745 0.0 0.0 0.0 0.0
113 1 99.6822150494 16.2412675745 0.0 0.0 0.0 0.0
114 1 105.573215049 14.8362675745 0.0 0.0 0.0 0.0
115 1 108.508215049 14.3260675745 0.0 0.0 0.0 0.0
116 1 112.713215049 13.0965675745 0.0 0.0 0.0 0.0
117 1 119.718215049 15.9246675745 0.0 0.0 0.0 0.0
118 1 124.517215049 14.7438675745 0.0 0.0 0.0 0.0
119 1 129.785215049 14.2522675745 0.0 0.0 0.0 0.0
120 1 134.721215049 15.9002675745 0.0 0.0 0.0 0.0
121 1 142.584215049 15.9932675745 0.0 0.0 0.0 0.0
122 1 147.021215049 16.1596675745 0.0 0.0 0.0 0.0
123 1 151.615215049 14.3996675745 0.0 0.0 0.0 0.0
124 1 156.724215049 13.1248675745 0.0 0.0 0.0 0.0
125 1 2.37729504939 18.2576675745 0.0 0.0 0.0 0.0
126 1 7.31507504939 18.4304675745 0.0 0.0 0.0 0.0
127 1 12.5200150494 18.4529675745 0.0 0.0 0.0 0.0
128 1 17.6071150494 19.5321675745 0.0 0.0 0.0 0.0
129 1 23.5885150494 19.7202675745 0.0 0.0 0.0 0.0
130 1 28.9337150494 19.8534675745 0.0 0.0 0.0 0.0
131 1 33.9596150494 20.0608675745 0.0 0.0 0.0 0.0
132 1 39.4035150494 19.4684675745 0.0 0.0 0.0 0.0
133 1 44.7849150494 19.5366675745 0.0 0.0 0.0 0.0
134 1 50.4891150494 19.6769675745 0.0 0.0 0.0 0.0
135 1 55.9148150494 19.8410675745 0.0 0.0 0.0 0.0
136 1 60.9710150494 20.1897675745 0.0 0.0 0.0 0.0
137 1 65.7587150494 19.7809675745 0.0 0.0 0.0 0.0
138 1 70.1617150494 22.1593675745 0.0 0.0 0.0 0.0
139 1 75.5243150494 20.7897675745 0.0 0.0 0.0 0.0
140 1 80.3410150494 20.2742675745 0.0 0.0 0.0 0.0
141 1 84.1161150494 17.9673675745 0.0 0.0 0.0 0.0
142 1 90.6656150494 21.3049675745 0.0 0.0 0.0 0.0
143 1 96.3310150494 20.1691675745 0.0 0.0 0.0 0.0
144 1 102.223215049 20.9845675745 0.0 0.0 0.0 0.0
145 1 107.537215049 19.6872675745 0.0 0.0 0.0 0.0
146 1 112.319215049 18.4368675745 0.0 0.0 0.0 0.0
147 1 117.112215049 21.2231675745 0.0 0.0 0.0 0.0
148 1 122.635215049 20.0002675745 0.0 0.0 0.0 0.0
149 1 127.725215049 18.9677675745 0.0 0.0 0.0 0.0
150 1 133.309215049 18.6155675745 0.0 0.0 0.0 0.0
151 1 140.520215049 19.6789675745 0.0 0.0 0.0 0.0
152 1 143.360215049 20.7577675745 0.0 0.0 0.0 0.0
153 1 150.270215049 19.8568675745 0.0 0.0 0.0 0.0
154 1 155.144215049 18.0398675745 0.0 0.0 0.0 0.0
155 1 158.857215049 20.4322675745 0.0 0.0 0.0 0.0
156 1 0.51221504939 23.4681675745 0.0 0.0 0.0 0.0
157 1 4.85477504939 23.0382675745 0.0 0.0 0.0 0.0
158 1 9.77931504939 22.9060675745 0.0 0.0 0.0 0.0
159 1 14.6384150494 23.4774675745 0.0 0.0 0.0 0.0
160 1 18.8523150494 22.2899675745 0.0 0.0 0.0 0.0
161 1 26.1536150494 24.1642675745 0.0 0.0 0.0 0.0
162 1 31.2988150494 24.6402675745 0.0 0.0 0.0 0.0
163 1 36.5710150494 23.9899675745 0.0 0.0 0.0 0.0
164 1 41.9128150494 23.8298675745 0.0 0.0 0.0 0.0
165 1 45.9410150494 22.3480675745 0.0 0.0 0.0 0.0
166 1 53.3270150494 24.0453675745 0.0 0.0 0.0 0.0
167 1 58.4517150494 24.6297675745 0.0 0.0 0.0 0.0
168 1 63.4544150494 24.8073675745 0.0 0.0 0.0 0.0
169 1 68.6821150494 24.7467675745 0.0 0.0 0.0 0.0
170 1 73.8074150494 25.4497675745 0.0 0.0 0.0 0.0
171 1 78.7706150494 25.2057675745 0.0 0.0 0.0 0.0
172 1 83.8225150494 23.7967675745 0.0 0.0 0.0 0.0
173 1 89.0297150494 23.8360675745 0.0 0.0 0.0 0.0
174 1 93.6156150494 24.5944675745 0.0 0.0 0.0 0.0
175 1 97.4535150494 23.0553675745 0.0 0.0 0.0 0.0
176 1 105.519215049 24.4672675745 0.0 0.0 0.0 0.0
177 1 112.377215049 23.0296675745 0.0 0.0 0.0 0.0
178 1 115.343215049 23.6521675745 0.0 0.0 0.0 0.0
179 1 120.249215049 24.6333675745 0.0 0.0 0.0 0.0
180 1 125.336215049 24.0393675745 0.0 0.0 0.0 0.0
181 1 130.169215049 23.0224675745 0.0 0.0 0.0 0.0
182 1 134.355215049 26.0191675745 0.0 0.0 0.0 0.0
183 1 139.560215049 24.1607675745 0.0 0.0 0.0 0.0
184 1 144.745215049 23.4513675745 0.0 0.0 0.0 0.0
185 1 152.532215049 23.2463675745 0.0 0.0 0.0 0.0
186 1 157.303215049 22.9939675745 0.0 0.0 0.0 0.0
187 1 2.44236504939 28.2477675745 0.0 0.0 0.0 0.0
188 1 7.51870504939 27.6562675745 0.0 0.0 0.0 0.0
189 1 12.1966150494 29.9785675745 0.0 0.0 0.0 0.0
190 1 17.2441150494 27.9202675745 0.0 0.0 0.0 0.0
191 1 22.4676150494 27.7951675745 0.0 0.0 0.0 0.0
192 1 27.5057150494 28.7764675745 0.0 0.0 0.0 0.0
193 1 35.7595150494 28.2543675745 0.0 0.0 0.0 0.0
194 1 38.7572150494 28.2035675745 0.0 0.0 0.0 0.0
195 1 44.6735150494 28.1335675745 0.0 0.0 0.0 0.0
196 1 50.0610150494 27.8513675745 0.0 0.0 0.0 0.0
197 1 55.3111150494 28.8453675745 0.0 0.0 0.0 0.0
198 1 60.3172150494 29.3525675745 0.0 0.0 0.0 0.0
199 1 67.3221150494 28.9844675745 0.0 0.0 0.0 0.0
200 1 70.2871150494 29.4668675745 0.0 0.0 0.0 0.0
201 1 75.7196150494 29.9120675745 0.0 0.0 0.0 0.0
202 1 82.8742150494 28.6538675745 0.0 0.0 0.0 0.0
203 1 85.8497150494 28.2662675745 0.0 0.0 0.0 0.0
204 1 90.4614150494 29.0370675745 0.0 0.0 0.0 0.0
205 1 95.8348150494 28.9436675745 0.0 0.0 0.0 0.0
206 1 103.859215049 28.1637675745 0.0 0.0 0.0 0.0
207 1 106.838215049 28.5954675745 0.0 0.0 0.0 0.0
208 1 112.090215049 28.5959675745 0.0 0.0 0.0 0.0
209 1 117.541215049 28.8208675745 0.0 0.0 0.0 0.0
210 1 122.712215049 28.9590675745 0.0 0.0 0.0 0.0
211 1 127.680215049 28.2969675745 0.0 0.0 0.0 0.0
212 1 133.055215049 28.7173675745 0.0 0.0 0.0 0.0
213 1 138.135215049 29.0570675745 0.0 0.0 0.0 0.0
214 1 143.203215049 28.1701675745 0.0 0.0 0.0 0.0
215 1 148.407215049 27.7591675745 0.0 0.0 0.0 0.0
216 1 155.832215049 27.7850675745 0.0 0.0 0.0 0.0
217 1 158.820215049 27.9912675745 0.0 0.0 0.0 0.0
218 1 160.968215049 32.7019675745 0.0 0.0 0.0 0.0
219 1 4.78899504939 32.5135675745 0.0 0.0 0.0 0.0
220 1 10.4230150494 32.3981675745 0.0 0.0 0.0 0.0
221 1 15.3261150494 33.1779675745 0.0 0.0 0.0 0.0
222 1 20.0960150494 32.3701675745 0.0 0.0 0.0 0.0
223 1 24.0854150494 35.2809675745 0.0 0.0 0.0 0.0
224 1 29.1581150494 33.6417675745 0.0 0.0 0.0 0.0
225 1 32.6776150494 31.5433675745 0.0 0.0 0.0 0.0
226 1 40.1883150494 30.8422675745 0.0 0.0 0.0 0.0
227 1 47.0926150494 32.2981675745 0.0 0.0 0.0 0.0
228 1 51.9510150494 32.6744675745 0.0 0.0 0.0 0.0
229 1 56.8208150494 33.6652675745 0.0 0.0 0.0 0.0
230 1 61.8667150494 34.2551675745 0.0 0.0 0.0 0.0
231 1 66.9796150494 34.0483675745 0.0 0.0 0.0 0.0
232 1 72.3134150494 33.9063675745 0.0 0.0 0.0 0.0
233 1 77.5805150494 34.2247675745 0.0 0.0 0.0 0.0
234 1 82.8083150494 33.8947675745 0.0 0.0 0.0 0.0
235 1 87.6368150494 33.5367675745 0.0 0.0 0.0 0.0
236 1 92.8017150494 33.3467675745 0.0 0.0 0.0 0.0
237 1 96.8510150494 31.8127675745 0.0 0.0 0.0 0.0
238 1 104.043215049 32.9581675745 0.0 0.0 0.0 0.0
239 1 109.418215049 33.0371675745 0.0 0.0 0.0 0.0
240 1 114.513215049 32.9913675745 0.0 0.0 0.0 0.0
241 1 119.715215049 33.4906675745 0.0 0.0 0.0 0.0
242 1 125.373215049 33.3881675745 0.0 0.0 0.0 0.0
243 1 130.626215049 32.8264675745 0.0 0.0 0.0 0.0
244 1 135.760215049 33.4394675745 0.0 0.0 0.0 0.0
245 1 140.857215049 33.1201675745 0.0 0.0 0.0 0.0
246 1 145.752215049 32.4741675745 0.0 0.0 0.0 0.0
247 1 150.726215049 32.5950675745 0.0 0.0 0.0 0.0
248 1 155.413215049 32.5926675745 0.0 0.0 0.0 0.0
249 1 2.11944504939 37.0999675745 0.0 0.0 0.0 0.0
250 1 7.81891504939 36.5108675745 0.0 0.0 0.0 0.0
251 1 12.5083150494 39.3846675745 0.0 0.0 0.0 0.0
252 1 17.9376150494 37.6007675745 0.0 0.0 0.0 0.0
253 1 23.1239150494 38.1236675745 0.0 0.0 0.0 0.0
254 1 28.2874150494 38.4718675745 0.0 0.0 0.0 0.0
255 1 33.4557150494 37.0766675745 0.0 0.0 0.0 0.0
256 1 38.7482150494 35.9822675745 0.0 0.0 0.0 0.0
257 1 44.1748150494 36.6319675745 0.0 0.0 0.0 0.0
258 1 49.2056150494 37.2318675745 0.0 0.0 0.0 0.0
259 1 53.9345150494 39.7318675745 0.0 0.0 0.0 0.0
260 1 59.2360150494 38.5498675745 0.0 0.0 0.0 0.0
261 1 64.6908150494 38.6964675745 0.0 0.0 0.0 0.0
262 1 69.9584150494 38.3558675745 0.0 0.0 0.0 0.0
263 1 74.9571150494 38.4747675745 0.0 0.0 0.0 0.0
264 1 80.3121150494 38.4842675745 0.0 0.0 0.0 0.0
265 1 85.5474150494 38.5522675745 0.0 0.0 0.0 0.0
266 1 90.5171150494 37.9904675745 0.0 0.0 0.0 0.0
267 1 95.6868150494 37.5927675745 0.0 0.0 0.0 0.0
268 1 102.912215049 37.4392675745 0.0 0.0 0.0 0.0
269 1 105.908215049 37.1779675745 0.0 0.0 0.0 0.0
270 1 111.359215049 37.5288675745 0.0 0.0 0.0 0.0
271 1 116.836215049 37.7285675745 0.0 0.0 0.0 0.0
272 1 121.114215049 36.1727675745 0.0 0.0 0.0 0.0
273 1 128.140215049 37.5210675745 0.0 0.0 0.0 0.0
274 1 133.419215049 37.6155675745 0.0 0.0 0.0 0.0
275 1 138.588215049 37.8364675745 0.0 0.0 0.0 0.0
276 1 143.381215049 37.4828675745 0.0 0.0 0.0 0.0
277 1 148.267215049 37.2002675745 0.0 0.0 0.0 0.0
278 1 153.137215049 37.4899675745 0.0 0.0 0.0 0.0
279 1 158.252215049 36.8532675745 0.0 0.0 0.0 0.0
280 1 0.20317504939 42.8387675745 0.0 0.0 0.0 0.0
281 1 5.71332504939 40.7394675745 0.0 0.0 0.0 0.0
282 1 10.9838150494 41.9804675745 0.0 0.0 0.0 0.0
283 1 15.8478150494 42.4212675745 0.0 0.0 0.0 0.0
284 1 20.6631150494 42.3869675745 0.0 0.0 0.0 0.0
285 1 25.7338150494 42.8111675745 0.0 0.0 0.0 0.0
286 1 33.0651150494 41.4605675745 0.0 0.0 0.0 0.0
287 1 36.0030150494 40.8141675745 0.0 0.0 0.0 0.0
288 1 40.7378150494 40.5948675745 0.0 0.0 0.0 0.0
289 1 46.0778150494 41.6713675745 0.0 0.0 0.0 0.0
290 1 52.5308150494 42.3745675745 0.0 0.0 0.0 0.0
291 1 57.5462150494 43.3366675745 0.0 0.0 0.0 0.0
292 1 62.3614150494 42.8362675745 0.0 0.0 0.0 0.0
293 1 67.7356150494 42.9329675745 0.0 0.0 0.0 0.0
294 1 72.9583150494 43.0424675745 0.0 0.0 0.0 0.0
295 1 78.1656150494 42.7741675745 0.0 0.0 0.0 0.0
296 1 82.7265150494 45.0393675745 0.0 0.0 0.0 0.0
297 1 89.6625150494 42.6380675745 0.0 0.0 0.0 0.0
298 1 92.6643150494 42.3114675745 0.0 0.0 0.0 0.0
299 1 97.2810150494 42.6600675745 0.0 0.0 0.0 0.0
300 1 102.403215049 42.1821675745 0.0 0.0 0.0 0.0
301 1 107.864215049 41.5331675745 0.0 0.0 0.0 0.0
302 1 113.373215049 41.7848675745 0.0 0.0 0.0 0.0
303 1 120.420215049 41.7541675745 0.0 0.0 0.0 0.0
304 1 125.523215049 41.9625675745 0.0 0.0 0.0 0.0
305 1 130.753215049 41.9632675745 0.0 0.0 0.0 0.0
306 1 136.233215049 42.2298675745 0.0 0.0 0.0 0.0
307 1 141.477215049 42.4395675745 0.0 0.0 0.0 0.0
308 1 146.371215049 42.0330675745 0.0 0.0 0.0 0.0
309 1 150.996215049 44.3780675745 0.0 0.0 0.0 0.0
310 1 156.284215049 41.7103675745 0.0 0.0 0.0 0.0
311 1 3.90453504939 45.1815675745 0.0 0.0 0.0 0.0
312 1 8.03387504939 48.1951675745 0.0 0.0 0.0 0.0
313 1 13.4989150494 46.9261675745 0.0 0.0 0.0 0.0
314 1 18.1828150494 47.2237675745 0.0 0.0 0.0 0.0
315 1 22.9515150494 47.2191675745 0.0 0.0 0.0 0.0
316 1 27.6252150494 47.0198675745 0.0 0.0 0.0 0.0
317 1 32.9648150494 46.5485675745 0.0 0.0 0.0 0.0
318 1 38.8954150494 45.5717675745 0.0 0.0 0.0 0.0
319 1 43.3712150494 47.7104675745 0.0 0.0 0.0 0.0
320 1 47.3759150494 44.4394675745 0.0 0.0 0.0 0.0
321 1 53.8326150494 49.2300675745 0.0 0.0 0.0 0.0
322 1 61.5396150494 47.5086675745 0.0 0.0 0.0 0.0
323 1 64.5302150494 47.1646675745 0.0 0.0 0.0 0.0
324 1 70.0852150494 47.4699675745 0.0 0.0 0.0 0.0
325 1 75.4684150494 47.4397675745 0.0 0.0 0.0 0.0
326 1 80.7036150494 47.2725675745 0.0 0.0 0.0 0.0
327 1 85.2078150494 48.3927675745 0.0 0.0 0.0 0.0
328 1 89.7788150494 48.3762675745 0.0 0.0 0.0 0.0
329 1 95.2419150494 47.4365675745 0.0 0.0 0.0 0.0
330 1 100.520215049 46.9051675745 0.0 0.0 0.0 0.0
331 1 105.523215049 46.0536675745 0.0 0.0 0.0 0.0
332 1 110.756215049 45.8086675745 0.0 0.0 0.0 0.0
333 1 115.247215049 44.1176675745 0.0 0.0 0.0 0.0
334 1 122.172215049 46.4648675745 0.0 0.0 0.0 0.0
335 1 129.907215049 45.9862675745 0.0 0.0 0.0 0.0
336 1 132.950215049 46.2751675745 0.0 0.0 0.0 0.0
337 1 138.652215049 46.8174675745 0.0 0.0 0.0 0.0
338 1 144.007215049 47.0191675745 0.0 0.0 0.0 0.0
339 1 149.171215049 46.8389675745 0.0 0.0 0.0 0.0
340 1 154.217215049 46.7628675745 0.0 0.0 0.0 0.0
341 1 0.97154504939 45.7307675745 0.0 0.0 0.0 0.0
342 1 1.11055504939 50.9290675745 0.0 0.0 0.0 0.0
343 1 7.89070504939 51.1873675745 0.0 0.0 0.0 0.0
344 1 10.8586150494 51.5386675745 0.0 0.0 0.0 0.0
345 1 15.5469150494 51.9669675745 0.0 0.0 0.0 0.0
346 1 20.6508150494 52.0671675745 0.0 0.0 0.0 0.0
347 1 25.7233150494 51.9890675745 0.0 0.0 0.0 0.0
348 1 30.8828150494 51.0225675745 0.0 0.0 0.0 0.0
349 1 35.0060150494 48.7532675745 0.0 0.0 0.0 0.0
350 1 41.9150150494 50.3517675745 0.0 0.0 0.0 0.0
351 1 46.7894150494 50.3234675745 0.0 0.0 0.0 0.0
352 1 51.7659150494 51.4218675745 0.0 0.0 0.0 0.0
353 1 56.1997150494 52.7871675745 0.0 0.0 0.0 0.0
354 1 61.0272150494 52.7163675745 0.0 0.0 0.0 0.0
355 1 67.0967150494 51.4632675745 0.0 0.0 0.0 0.0
356 1 72.5724150494 51.8089675745 0.0 0.0 0.0 0.0
357 1 79.1403150494 51.6764675745 0.0 0.0 0.0 0.0
358 1 82.0089150494 52.5850675745 0.0 0.0 0.0 0.0
359 1 87.2511150494 53.2739675745 0.0 0.0 0.0 0.0
360 1 91.2902150494 51.0050675745 0.0 0.0 0.0 0.0
361 1 98.6555150494 51.5062675745 0.0 0.0 0.0 0.0
362 1 103.659215049 51.0368675745 0.0 0.0 0.0 0.0
363 1 108.608215049 50.3485675745 0.0 0.0 0.0 0.0
364 1 113.923215049 49.6341675745 0.0 0.0 0.0 0.0
365 1 118.866215049 49.6442675745 0.0 0.0 0.0 0.0
366 1 123.569215049 51.9951675745 0.0 0.0 0.0 0.0
367 1 130.780215049 50.6660675745 0.0 0.0 0.0 0.0
368 1 136.158215049 50.5492675745 0.0 0.0 0.0 0.0
369 1 141.227215049 51.3882675745 0.0 0.0 0.0 0.0
370 1 146.245215049 51.5843675745 0.0 0.0 0.0 0.0
371 1 153.010215049 51.1110675745 0.0 0.0 0.0 0.0
372 1 155.509215049 49.4591675745 0.0 0.0 0.0 0.0
373 1 1.84527504939 55.4339675745 0.0 0.0 0.0 0.0
374 1 6.79668504939 56.6454675745 0.0 0.0 0.0 0.0
375 1 12.3090150494 56.5418675745 0.0 0.0 0.0 0.0
376 1 17.8514150494 56.6272675745 0.0 0.0 0.0 0.0
377 1 23.3814150494 56.6691675745 0.0 0.0 0.0 0.0
378 1 30.8309150494 54.9219675745 0.0 0.0 0.0 0.0
379 1 33.8160150494 54.5289675745 0.0 0.0 0.0 0.0
380 1 38.3579150494 54.3414675745 0.0 0.0 0.0 0.0
381 1 43.6003150494 55.0263675745 0.0 0.0 0.0 0.0
382 1 48.6481150494 55.4499675745 0.0 0.0 0.0 0.0
383 1 53.4392150494 56.8827675745 0.0 0.0 0.0 0.0
384 1 58.9342150494 57.4646675745 0.0 0.0 0.0 0.0
385 1 62.7689150494 55.1791675745 0.0 0.0 0.0 0.0
386 1 69.0362150494 58.2236675745 0.0 0.0 0.0 0.0
387 1 74.4029150494 57.0631675745 0.0 0.0 0.0 0.0
388 1 78.5621150494 57.0048675745 0.0 0.0 0.0 0.0
389 1 84.4216150494 57.3485675745 0.0 0.0 0.0 0.0
390 1 90.6347150494 56.8642675745 0.0 0.0 0.0 0.0
391 1 96.0102150494 55.7683675745 0.0 0.0 0.0 0.0
392 1 101.704215049 55.8900675745 0.0 0.0 0.0 0.0
393 1 106.874215049 55.2916675745 0.0 0.0 0.0 0.0
394 1 111.881215049 54.2924675745 0.0 0.0 0.0 0.0
395 1 115.545215049 56.9109675745 0.0 0.0 0.0 0.0
396 1 123.171215049 55.0237675745 0.0 0.0 0.0 0.0
397 1 129.337215049 55.4433675745 0.0 0.0 0.0 0.0
398 1 134.247215049 54.8342675745 0.0 0.0 0.0 0.0
399 1 137.836215049 58.2378675745 0.0 0.0 0.0 0.0
400 1 143.145215049 56.2208675745 0.0 0.0 0.0 0.0
401 1 148.052215049 56.5426675745 0.0 0.0 0.0 0.0
402 1 152.960215049 56.4146675745 0.0 0.0 0.0 0.0
403 1 160.312215049 55.4003675745 0.0 0.0 0.0 0.0
404 1 160.325215049 60.1486675745 0.0 0.0 0.0 0.0
405 1 3.68074504939 62.1179675745 0.0 0.0 0.0 0.0
406 1 9.30421504939 60.8661675745 0.0 0.0 0.0 0.0
407 1 14.6926150494 60.8014675745 0.0 0.0 0.0 0.0
408 1 20.2272150494 60.8875675745 0.0 0.0 0.0 0.0
409 1 27.4752150494 60.4574675745 0.0 0.0 0.0 0.0
410 1 30.4685150494 60.1685675745 0.0 0.0 0.0 0.0
411 1 35.6099150494 59.4828675745 0.0 0.0 0.0 0.0
412 1 40.5003150494 59.1440675745 0.0 0.0 0.0 0.0
413 1 45.7568150494 59.8585675745 0.0 0.0 0.0 0.0
414 1 50.6943150494 60.7719675745 0.0 0.0 0.0 0.0
415 1 56.1482150494 61.3097675745 0.0 0.0 0.0 0.0
416 1 62.0743150494 61.0855675745 0.0 0.0 0.0 0.0
417 1 68.8192150494 61.1873675745 0.0 0.0 0.0 0.0
418 1 71.7663150494 61.7385675745 0.0 0.0 0.0 0.0
419 1 76.4039150494 62.2277675745 0.0 0.0 0.0 0.0
420 1 81.5299150494 60.7508675745 0.0 0.0 0.0 0.0
421 1 86.3040150494 59.7053675745 0.0 0.0 0.0 0.0
422 1 93.2738150494 60.5526675745 0.0 0.0 0.0 0.0
423 1 98.9182150494 59.8356675745 0.0 0.0 0.0 0.0
424 1 106.173215049 59.6052675745 0.0 0.0 0.0 0.0
425 1 109.165215049 59.3403675745 0.0 0.0 0.0 0.0
426 1 114.515215049 59.7261675745 0.0 0.0 0.0 0.0
427 1 118.338215049 57.9650675745 0.0 0.0 0.0 0.0
428 1 124.742215049 57.5991675745 0.0 0.0 0.0 0.0
429 1 130.571215049 62.2499675745 0.0 0.0 0.0 0.0
430 1 136.153215049 60.7711675745 0.0 0.0 0.0 0.0
431 1 141.031215049 61.2341675745 0.0 0.0 0.0 0.0
432 1 145.828215049 61.1330675745 0.0 0.0 0.0 0.0
433 1 150.593215049 61.2158675745 0.0 0.0 0.0 0.0
434 1 155.744215049 61.0492675745 0.0 0.0 0.0 0.0
435 1 2.68306504939 64.9430675745 0.0 0.0 0.0 0.0
436 1 7.22520504939 67.7440675745 0.0 0.0 0.0 0.0
437 1 12.0817150494 65.2145675745 0.0 0.0 0.0 0.0
438 1 17.2634150494 65.0373675745 0.0 0.0 0.0 0.0
439 1 22.3751150494 65.8372675745 0.0 0.0 0.0 0.0
440 1 27.5675150494 64.8855675745 0.0 0.0 0.0 0.0
441 1 33.2230150494 64.4832675745 0.0 0.0 0.0 0.0
442 1 39.1828150494 63.9537675745 0.0 0.0 0.0 0.0
443 1 42.1931150494 63.8188675745 0.0 0.0 0.0 0.0
444 1 47.3090150494 64.8890675745 0.0 0.0 0.0 0.0
445 1 53.1235150494 65.2907675745 0.0 0.0 0.0 0.0
446 1 58.5294150494 64.7513675745 0.0 0.0 0.0 0.0
447 1 63.6759150494 66.1044675745 0.0 0.0 0.0 0.0
448 1 69.7854150494 65.4391675745 0.0 0.0 0.0 0.0
449 1 72.6825150494 64.5873675745 0.0 0.0 0.0 0.0
450 1 80.1474150494 65.6590675745 0.0 0.0 0.0 0.0
451 1 84.8947150494 66.9381675745 0.0 0.0 0.0 0.0
452 1 90.4365150494 65.3671675745 0.0 0.0 0.0 0.0
453 1 97.1591150494 63.9484675745 0.0 0.0 0.0 0.0
454 1 100.017215049 64.7675675745 0.0 0.0 0.0 0.0
455 1 103.524215049 63.6136675745 0.0 0.0 0.0 0.0
456 1 110.147215049 62.2057675745 0.0 0.0 0.0 0.0
457 1 117.420215049 63.7522675745 0.0 0.0 0.0 0.0
458 1 122.815215049 62.9555675745 0.0 0.0 0.0 0.0
459 1 128.189215049 64.1096675745 0.0 0.0 0.0 0.0
460 1 133.172215049 65.3842675745 0.0 0.0 0.0 0.0
461 1 138.151215049 65.7358675745 0.0 0.0 0.0 0.0
462 1 143.566215049 66.0077675745 0.0 0.0 0.0 0.0
463 1 148.431215049 66.0284675745 0.0 0.0 0.0 0.0
464 1 153.187215049 65.6681675745 0.0 0.0 0.0 0.0
465 1 158.663215049 65.4733675745 0.0 0.0 0.0 0.0
466 1 0.62885504939 69.4047675745 0.0 0.0 0.0 0.0
467 1 5.79478504939 70.3730675745 0.0 0.0 0.0 0.0
468 1 10.7511150494 70.5104675745 0.0 0.0 0.0 0.0
469 1 15.1706150494 69.6034675745 0.0 0.0 0.0 0.0
470 1 19.3624150494 72.2873675745 0.0 0.0 0.0 0.0
471 1 26.9990150494 69.1621675745 0.0 0.0 0.0 0.0
472 1 29.9627150494 68.7046675745 0.0 0.0 0.0 0.0
473 1 34.7585150494 69.8591675745 0.0 0.0 0.0 0.0
474 1 39.5847150494 69.5306675745 0.0 0.0 0.0 0.0
475 1 44.8485150494 68.7935675745 0.0 0.0 0.0 0.0
476 1 48.7178150494 67.5495675745 0.0 0.0 0.0 0.0
477 1 55.5845150494 69.2210675745 0.0 0.0 0.0 0.0
478 1 60.3450150494 69.6680675745 0.0 0.0 0.0 0.0
479 1 64.4390150494 69.0105675745 0.0 0.0 0.0 0.0
480 1 71.2814150494 71.1417675745 0.0 0.0 0.0 0.0
481 1 78.1411150494 70.4506675745 0.0 0.0 0.0 0.0
482 1 83.6234150494 69.6728675745 0.0 0.0 0.0 0.0
483 1 87.2348150494 72.8011675745 0.0 0.0 0.0 0.0
484 1 94.5365150494 69.6492675745 0.0 0.0 0.0 0.0
485 1 97.5490150494 69.2535675745 0.0 0.0 0.0 0.0
486 1 103.242215049 69.3406675745 0.0 0.0 0.0 0.0
487 1 108.531215049 67.7711675745 0.0 0.0 0.0 0.0
488 1 113.914215049 67.9081675745 0.0 0.0 0.0 0.0
489 1 119.308215049 67.4817675745 0.0 0.0 0.0 0.0
490 1 124.450215049 67.7340675745 0.0 0.0 0.0 0.0
491 1 129.158215049 69.0445675745 0.0 0.0 0.0 0.0
492 1 134.619215049 70.0858675745 0.0 0.0 0.0 0.0
493 1 140.627215049 70.1585675745 0.0 0.0 0.0 0.0
494 1 146.161215049 70.8231675745 0.0 0.0 0.0 0.0
495 1 151.661215049 70.6477675745 0.0 0.0 0.0 0.0
496 1 156.704215049 71.4203675745 0.0 0.0 0.0 0.0
497 1 3.06587504939 74.3340675745 0.0 0.0 0.0 0.0
498 1 8.23919504939 75.1127675745 0.0 0.0 0.0 0.0
499 1 13.2884150494 75.0010675745 0.0 0.0 0.0 0.0
500 1 17.9901150494 74.9596675745 0.0 0.0 0.0 0.0
501 1 22.5673150494 75.0700675745 0.0 0.0 0.0 0.0
502 1 27.1494150494 73.9420675745 0.0 0.0 0.0 0.0
503 1 32.2550150494 73.9365675745 0.0 0.0 0.0 0.0
504 1 35.9949150494 72.6306675745 0.0 0.0 0.0 0.0
505 1 43.2819150494 73.4200675745 0.0 0.0 0.0 0.0
506 1 48.3034150494 73.1997675745 0.0 0.0 0.0 0.0
507 1 53.4009150494 73.6306675745 0.0 0.0 0.0 0.0
508 1 58.4196150494 74.1205675745 0.0 0.0 0.0 0.0
509 1 62.2856150494 77.0488675745 0.0 0.0 0.0 0.0
510 1 68.0050150494 75.3673675745 0.0 0.0 0.0 0.0
511 1 73.3277150494 73.3340675745 0.0 0.0 0.0 0.0
512 1 80.8415150494 74.3796675745 0.0 0.0 0.0 0.0
513 1 85.6442150494 75.3541675745 0.0 0.0 0.0 0.0
514 1 90.4215150494 75.7787675745 0.0 0.0 0.0 0.0
515 1 95.4404150494 74.2318675745 0.0 0.0 0.0 0.0
516 1 100.933215049 73.4539675745 0.0 0.0 0.0 0.0
517 1 107.602215049 72.5551675745 0.0 0.0 0.0 0.0
518 1 110.623215049 72.2391675745 0.0 0.0 0.0 0.0
519 1 117.526215049 71.9486675745 0.0 0.0 0.0 0.0
520 1 120.548215049 71.9076675745 0.0 0.0 0.0 0.0
521 1 125.602215049 73.0077675745 0.0 0.0 0.0 0.0
522 1 132.089215049 73.6032675745 0.0 0.0 0.0 0.0
523 1 135.025215049 73.0580675745 0.0 0.0 0.0 0.0
524 1 142.000215049 74.2678675745 0.0 0.0 0.0 0.0
525 1 147.327215049 73.6192675745 0.0 0.0 0.0 0.0
526 1 155.406215049 74.1115675745 0.0 0.0 0.0 0.0
527 1 160.248215049 74.1294675745 0.0 0.0 0.0 0.0
528 1 161.002215049 79.0542675745 0.0 0.0 0.0 0.0
529 1 4.79997504939 79.0814675745 0.0 0.0 0.0 0.0
530 1 10.3122150494 79.6223675745 0.0 0.0 0.0 0.0
531 1 16.2571150494 79.7923675745 0.0 0.0 0.0 0.0
532 1 21.3019150494 79.7026675745 0.0 0.0 0.0 0.0
533 1 26.2268150494 79.0793675745 0.0 0.0 0.0 0.0
534 1 30.2852150494 81.1662675745 0.0 0.0 0.0 0.0
535 1 35.5041150494 78.4049675745 0.0 0.0 0.0 0.0
536 1 40.9952150494 77.9942675745 0.0 0.0 0.0 0.0
537 1 46.0746150494 77.9768675745 0.0 0.0 0.0 0.0
538 1 51.3418150494 77.9739675745 0.0 0.0 0.0 0.0
539 1 56.5343150494 78.4413675745 0.0 0.0 0.0 0.0
540 1 60.8438150494 81.3084675745 0.0 0.0 0.0 0.0
541 1 66.4834150494 79.6398675745 0.0 0.0 0.0 0.0
542 1 71.7454150494 78.2798675745 0.0 0.0 0.0 0.0
543 1 77.4667150494 78.4548675745 0.0 0.0 0.0 0.0
544 1 83.1309150494 79.6216675745 0.0 0.0 0.0 0.0
545 1 88.3032150494 80.3005675745 0.0 0.0 0.0 0.0
546 1 93.0372150494 79.3024675745 0.0 0.0 0.0 0.0
547 1 98.2197150494 77.9826675745 0.0 0.0 0.0 0.0
548 1 102.610215049 78.4816675745 0.0 0.0 0.0 0.0
549 1 107.137215049 78.1489675745 0.0 0.0 0.0 0.0
550 1 112.075215049 77.5448675745 0.0 0.0 0.0 0.0
551 1 117.018215049 76.9776675745 0.0 0.0 0.0 0.0
552 1 122.359215049 76.9549675745 0.0 0.0 0.0 0.0
553 1 127.006215049 80.0464675745 0.0 0.0 0.0 0.0
554 1 132.341215049 78.3329675745 0.0 0.0 0.0 0.0
555 1 137.946215049 77.9604675745 0.0 0.0 0.0 0.0
556 1 142.966215049 77.0950675745 0.0 0.0 0.0 0.0
557 1 150.874215049 76.4543675745 0.0 0.0 0.0 0.0
558 1 156.280215049 78.4101675745 0.0 0.0 0.0 0.0
559 1 1.63875504939 83.4521675745 0.0 0.0 0.0 0.0
560 1 7.19605504939 83.4688675745 0.0 0.0 0.0 0.0
561 1 11.8842150494 82.1737675745 0.0 0.0 0.0 0.0
562 1 19.5839150494 84.2507675745 0.0 0.0 0.0 0.0
563 1 24.9336150494 83.8537675745 0.0 0.0 0.0 0.0
564 1 29.2781150494 85.6448675745 0.0 0.0 0.0 0.0
565 1 34.2602150494 83.2420675745 0.0 0.0 0.0 0.0
566 1 39.4471150494 82.3026675745 0.0 0.0 0.0 0.0
567 1 44.4671150494 82.5479675745 0.0 0.0 0.0 0.0
568 1 49.2762150494 82.4071675745 0.0 0.0 0.0 0.0
569 1 52.9162150494 85.4309675745 0.0 0.0 0.0 0.0
570 1 59.6957150494 84.0954675745 0.0 0.0 0.0 0.0
571 1 64.9813150494 83.8995675745 0.0 0.0 0.0 0.0
572 1 71.2998150494 82.6102675745 0.0 0.0 0.0 0.0
573 1 74.2758150494 82.2612675745 0.0 0.0 0.0 0.0
574 1 78.5460150494 81.2999675745 0.0 0.0 0.0 0.0
575 1 85.8137150494 84.4105675745 0.0 0.0 0.0 0.0
576 1 93.0125150494 83.7528675745 0.0 0.0 0.0 0.0
577 1 95.8862150494 82.8978675745 0.0 0.0 0.0 0.0
578 1 99.5402150494 85.9082675745 0.0 0.0 0.0 0.0
579 1 104.524215049 83.2819675745 0.0 0.0 0.0 0.0
580 1 109.765215049 82.6127675745 0.0 0.0 0.0 0.0
581 1 115.873215049 81.7305675745 0.0 0.0 0.0 0.0
582 1 120.238215049 83.9595675745 0.0 0.0 0.0 0.0
583 1 125.841215049 82.8046675745 0.0 0.0 0.0 0.0
584 1 131.020215049 83.0424675745 0.0 0.0 0.0 0.0
585 1 136.150215049 82.1677675745 0.0 0.0 0.0 0.0
586 1 141.477215049 82.1037675745 0.0 0.0 0.0 0.0
587 1 146.702215049 82.1360675745 0.0 0.0 0.0 0.0
588 1 151.423215049 84.9641675745 0.0 0.0 0.0 0.0
589 1 157.331215049 83.3890675745 0.0 0.0 0.0 0.0
590 1 160.911215049 87.2677675745 0.0 0.0 0.0 0.0
591 1 4.97801504939 87.5456675745 0.0 0.0 0.0 0.0
592 1 10.5194150494 87.4547675745 0.0 0.0 0.0 0.0
593 1 16.0983150494 87.8184675745 0.0 0.0 0.0 0.0
594 1 21.6558150494 88.3859675745 0.0 0.0 0.0 0.0
595 1 29.2098150494 88.6293675745 0.0 0.0 0.0 0.0
596 1 32.1956150494 88.4634675745 0.0 0.0 0.0 0.0
597 1 37.2930150494 87.1482675745 0.0 0.0 0.0 0.0
598 1 42.3529150494 87.0895675745 0.0 0.0 0.0 0.0