# input file

2232 atoms
1 atom types

0.0 82.68810555352132 xlo xhi
0.0 83.16 ylo yhi
-10.0 10.0 zlo zhi
0.0 0.0 0.0 xy xz yz

Masses

1 12.0100 #C

Atoms

1 1 1.7638251147540986 0.5673259016393443 4.747641874917097e-06
2 1 3.9942399344262296 0.26974942950819675 8.654661631916411e-05
3 1 6.221145573770492 1.9771277377049181 9.131550045372981e-05
4 1 9.045202622950821 2.0453421639344262 8.463537589261191e-05
5 1 11.845932459016394 2.0397981639344263 6.305645001728551e-05
6 1 14.34860918032787 1.7399222950819673 5.145111032710452e-05
7 1 16.966710163934426 1.1768932459016395 3.527832459361672e-05
8 1 19.643634098360657 0.8041324590163935 6.617288834802087e-05
9 1 22.441031475409837 0.5822159344262295 7.191578336470739e-06
10 1 26.630437377049184 0.809928918032787 4.12953027472054e-05
11 1 29.420765901639346 0.36055843278688526 9.329949800903473e-05
12 1 31.975752131147544 83.00600000000001 9.71524357868826e-05
13 1 33.524335737704924 83.10243934426231 4.7053463829254754e-05
14 1 36.12299737704918 1.0200253114754099 3.0229629128650815e-05
15 1 38.968614426229514 1.3760278688524592 2.3690005334402775e-05
16 1 42.8437593442623 0.3941698163934427 2.8379556999185565e-05
17 1 44.42667737704918 0.35204753442622955 6.289429496578102e-05
18 1 47.4682531147541 0.8291158032786886 5.341913317191152e-05
19 1 48.98462295081968 0.49228447868852465 5.491301053956662e-05
20 1 51.904563934426236 0.40560520000000005 6.088060644544685e-05
21 1 54.762904918032795 0.4313055278688525 9.512273743484146e-05
22 1 57.50713442622952 0.7268295081967214 1.0272588625525847e-05
23 1 60.16300327868853 0.7867430819672132 9.059578353102901e-05
24 1 62.84411803278689 0.7766851147540985 6.736138417369621e-05
25 1 65.61712786885246 0.8641066229508197 8.146474907880727e-05
26 1 69.39240000000001 0.5337791475409837 6.346614301643288e-05
27 1 70.94098360655738 0.6298196065573771 8.604241352208506e-05
28 1 73.60139672131149 1.0478008524590166 2.0672995486301127e-05
29 1 76.44761967213115 1.0921831475409838 2.1476474737645848e-05
30 1 79.37513442622952 1.0944754754098363 7.487037540279496e-05
31 1 0.2179998754098361 0.6538638032786886 7.783880716561845e-05
32 1 0.3858326098360656 3.3904892459016396 5.2029527901762024e-05
33 1 3.769440327868853 2.8781741639344265 8.246026574910552e-05
34 1 5.291742950819672 3.172288918032787 9.593116919170524e-05
35 1 7.649104262295083 4.99739593442623 6.687610199597571e-05
36 1 10.52249180327869 4.172768852459017 4.418278304239773e-05
37 1 13.405624262295083 4.265648524590165 2.817787736241099e-05
38 1 16.44947213114754 3.615864459016394 7.083449075304286e-05
39 1 18.927205901639347 4.325486360655739 2.0124022669292586e-05
40 1 21.40534360655738 2.762972065573771 2.7616887376685463e-05
41 1 23.77174295081967 4.136096655737705 7.631114891608482e-05
42 1 26.330112131147544 3.2000644590163936 1.8377493098067688e-06
43 1 28.917362622950822 2.5627468196721312 8.945934739703387e-05
44 1 31.40999147540984 2.389883081967213 1.962643795115926e-05
45 1 34.219506885245906 2.6228977049180333 6.0772419270317046e-05
46 1 37.664158688524594 4.439789704918033 3.409533698404426e-05
47 1 40.417325245901644 3.4523871475409837 7.597100018969383e-06
48 1 43.024419016393445 2.922016196721312 2.337487796617488e-05
49 1 46.03115540983607 3.2731160000000004 7.636140373715065e-05
50 1 48.530196721311476 3.033734360655738 4.4609519027273816e-05
51 1 50.9048262295082 3.7969886557377053 8.593292480766302e-05
52 1 53.54453770491804 2.60745731147541 2.255147457951503e-05
53 1 56.265036065573774 2.821148721311476 7.799080027598062e-05
54 1 58.75175737704918 3.0847714754098363 2.0043757519540796e-05
55 1 61.31118688524591 3.0763090491803284 7.609915521609364e-05
56 1 63.96251147540984 3.0176072786885246 9.932545850521103e-05
57 1 66.61989508196723 3.2439519344262298 6.731641842701847e-05
58 1 69.05561967213114 3.1229685245901644 4.4012722793620784e-05
59 1 71.79631475409836 3.155439803278689 7.695160335571062e-05
60 1 74.9985049180328 3.2598972459016395 7.859208386560588e-05
61 1 77.78817704918033 3.154667278688525 5.3799293614236776e-05
62 1 80.45111475409837 3.444066098360656 5.5163930054332546e-05
63 1 1.5885125245901641 5.781210491803279 4.635269852191004e-06
64 1 4.188108262295082 5.666291147540985 6.36992386474178e-05
65 1 7.0932904918032795 6.420234754098361 2.52907171585425e-05
66 1 9.569408524590166 6.3539895081967215 3.081251375620478e-05
67 1 12.282131147540985 6.2058465573770505 8.861336483771015e-05
68 1 14.494429508196722 5.356321967213115 7.180815338110716e-05
69 1 18.402646557377054 5.773131803278689 4.830617211917853e-05
70 1 20.938142950819675 5.385657704918033 3.309316154562224e-05
71 1 22.824971147540985 6.4671921311475415 6.059561788922396e-06
72 1 26.611200000000004 5.0987632786885255 4.837079853454274e-06
73 1 28.131306229508198 5.07816262295082 2.8816455055029045e-05
74 1 30.475741639344264 4.910858032786886 3.551027661033923e-06
75 1 33.074605245901644 4.656864065573771 1.40962487015175e-05
76 1 35.218335737704926 3.8083038688524593 9.104806826108906e-05
77 1 39.15033442622951 5.892040000000001 7.95947428718109e-05
78 1 42.17191540983607 5.424788852459017 7.718331106323783e-05
79 1 44.80915278688525 5.011503344262296 9.636703044341177e-05
80 1 47.428415081967216 5.539203278688525 9.073110135728035e-05
81 1 50.11988065573771 5.132845245901639 7.119548755787733e-05
82 1 53.463750819672136 4.851393836065575 6.130318821538199e-05
83 1 54.994157377049184 4.962172852459017 1.1007095623488673e-06
84 1 57.51016393442624 5.418780327868853 7.604203328352913e-05
85 1 59.92771147540984 5.485934426229509 2.0505611626335507e-05
86 1 62.567927868852465 5.354352786885246 4.774481520593806e-05
87 1 65.21622295081968 5.39964393442623 3.275467771645741e-05
88 1 67.95540327868852 5.62564524590164 3.7004157291376297e-06
89 1 70.33154754098362 5.373186229508197 6.10381865567697e-05
90 1 72.55015737704919 4.505939016393443 3.12993092545577e-05
91 1 76.25171147540985 5.349758032786886 4.689564438585981e-06
92 1 78.90808524590165 5.560106885245903 5.5176047056456125e-05
93 1 81.62959344262296 5.73228393442623 9.853418695359447e-05
94 1 0.16284666885245902 8.056825573770492 8.707472539384544e-05
95 1 2.9669084590163934 8.07156918032787 2.332370134272115e-05
96 1 5.85508 8.068034754098361 8.273224363440865e-05
97 1 9.361584262295084 8.484642622950819 8.174617169941631e-05
98 1 10.912591475409837 8.465102295081968 2.7887034255896306e-05
99 1 13.765529836065575 8.230365901639345 6.413585540836504e-05
100 1 16.634120655737707 7.900452459016394 9.487655434773776e-05
101 1 19.353558688524593 7.960588196721313 9.356496280243427e-05
102 1 22.345803934426232 7.905653114754099 9.05527279968094e-05
103 1 24.847723278688527 7.990479344262296 8.915069328413045e-05
104 1 27.197056393442626 8.982340327868853 3.021163164166647e-05
105 1 29.52775803278689 7.528933770491804 9.55723158743883e-06
106 1 32.0483593442623 7.127675409836066 3.4537353471561196e-05
107 1 34.676962622950825 6.804729836065575 9.979450507903132e-06
108 1 37.17246950819673 7.432140983606558 2.9255667552379328e-05
109 1 39.97193704918033 7.169432131147541 7.12193775857013e-05
110 1 43.673945573770496 7.453448524590164 2.9934538825485923e-05
111 1 46.00919147540984 7.537466885245903 6.172449751827112e-05
112 1 48.467687868852465 7.530196065573771 9.48090429343643e-05
113 1 50.88109508196722 7.699293114754099 2.0652769726912625e-05
114 1 53.35216393442624 7.5223193442622955 4.33348234055108e-05
115 1 56.182734426229516 7.626382950819673 9.725140449436889e-05
116 1 58.9128262295082 8.000628196721312 1.597182328904052e-05
117 1 61.40358688524591 7.732112786885247 6.449936803939248e-05
118 1 63.956452459016404 7.669755409836066 2.3819805190091926e-05
119 1 66.45478688524591 7.699040655737706 2.2894940817016874e-05
120 1 69.14650491803279 8.016179672131148 2.654447653478771e-05
121 1 71.89275409836065 7.3973016393442625 2.760652641333874e-05
122 1 74.58043278688525 7.394070163934427 8.999383342351608e-05
123 1 77.23074754098361 7.70504918032787 1.7857396210359377e-05
124 1 80.07040655737705 7.865663606557377 7.317018164204977e-05
125 1 1.4686904262295084 10.235243934426231 1.882684554040006e-05
126 1 5.0209655081967215 10.004597377049182 5.785865860909746e-05
127 1 6.433413114754099 10.56753049180328 6.019480388188132e-05
128 1 9.261862950819673 11.059876065573771 2.1376096507985e-06
129 1 12.208110163934426 10.507950163934426 7.350905971323856e-05
130 1 15.029491147540986 10.220853770491804 2.757921147904038e-05
131 1 18.48984590163935 10.158243934426231 3.182889911929282e-05
132 1 20.136585573770493 9.286099016393445 5.4973448316505295e-05
133 1 23.69348065573771 10.271598032786887 9.31663487223326e-05
134 1 26.311632131147544 10.213582950819674 3.115175240850261e-05
135 1 28.550337704918036 10.359150819672132 3.0642579587161145e-05
136 1 30.95112196721312 9.716087213114754 8.052985033778775e-05
137 1 33.47328852459017 9.292814426229508 1.4058675621772222e-05
138 1 36.018580327868854 9.500133770491805 3.925062018533072e-05
139 1 38.03512196721312 8.700949508196722 1.346252818344863e-05
140 1 41.95949639344263 9.502052459016394 6.783091599198031e-05
141 1 44.59966229508197 9.977533770491805 2.6817619740204468e-06
142 1 46.96217377049181 9.959861639344263 7.437225150594881e-05
143 1 49.55149442622951 10.042112786885246 5.468682448908942e-05
144 1 52.08078032786886 9.987228196721313 9.882428272166722e-05
145 1 54.60587540983607 9.622222950819673 3.5370720271134106e-05
146 1 56.77399344262295 9.076558032786885 6.254046153586322e-05
147 1 60.41546229508197 10.279727213114755 2.3384324478473074e-05
148 1 62.88047213114755 10.05125180327869 2.5912729396659996e-05
149 1 65.32932459016394 10.076447213114756 8.219391840131462e-05
150 1 67.69284590163936 10.058320655737706 5.534084314145094e-06
151 1 69.78118688524592 9.432626229508198 8.387843821066311e-05
152 1 72.81473442622952 11.012110819672133 5.259381514258677e-06
153 1 75.63116721311475 9.84908262295082 7.414867780193405e-05
154 1 78.35217049180328 9.867562622950821 7.409953678554318e-05
155 1 81.05651147540983 10.102652459016396 9.760375149160518e-05
156 1 81.7931868852459 11.43639344262295 1.7623125210920754e-05
157 1 2.476673442622951 12.546556721311477 6.007612392163858e-05
158 1 4.913660327868853 12.635927213114755 5.790156903054067e-06
159 1 6.973271475409837 12.008718032786886 6.495774273867084e-05
160 1 10.79696524590164 12.755794754098362 1.7629536382287148e-05
161 1 13.745787540983608 12.550444590163936 7.940154104575474e-05
162 1 16.213675409836068 12.566955409836066 6.416959901153006e-05
163 1 17.799219016393444 11.510060983606559 5.661736578730936e-06
164 1 22.22613836065574 12.167918688524592 5.989281886278141e-05
165 1 24.812328524590168 12.498185573770494 4.557475358708035e-05
166 1 26.953635409836068 13.874137704918034 8.962932920340358e-05
167 1 29.685645901639347 12.408158688524592 9.348502399355514e-05
168 1 32.48884983606558 11.865624262295084 5.8038998940597236e-05
169 1 35.24236983606558 12.653902295081968 6.076023710619222e-05
170 1 38.545796065573775 11.27749573770492 5.645325626277198e-06
171 1 40.10129704918033 11.344599344262296 1.3173938612634484e-05
172 1 42.83628655737705 11.942422295081968 1.9258457135078534e-05
173 1 45.63832918032788 12.484300327868853 3.365159963566643e-05
174 1 48.327472131147545 12.314445901639345 1.4614715517659117e-05
175 1 51.0972 12.347619016393443 3.58542159984686e-05
176 1 53.860111475409845 12.069156721311476 1.0507530834021384e-05
177 1 56.065593442622955 13.1978 7.935943990643864e-05
178 1 58.883036065573776 12.408259672131148 2.948591329379706e-05
179 1 62.60226229508197 12.361201311475412 5.59995814418133e-05
180 1 64.1564 12.497226229508199 2.1819736493995902e-05
181 1 66.82640655737706 12.51984655737705 4.835803514997834e-05
182 1 69.21769836065575 13.62480918032787 6.855459263588826e-05
183 1 72.09219672131148 12.424619016393443 4.006273408207777e-05
184 1 74.71322622950821 12.157416393442624 6.1890442388221e-05
185 1 77.3736393442623 12.05900786885246 4.861766029998902e-05
186 1 79.75432786885247 12.190185573770494 5.046957351213701e-05
187 1 1.2007102295081968 14.493066229508198 6.966984160718321e-05
188 1 3.692006098360656 14.979352786885247 4.3108689416578304e-05
189 1 6.317736393442623 14.898111475409838 5.477452152135734e-05
190 1 8.377751475409838 13.93896918032787 4.138243343248015e-05
191 1 11.748533770491804 13.933263606557377 8.291142711713665e-05
192 1 15.418227540983608 14.874077377049183 8.862450068894774e-05
193 1 17.21265573770492 13.700041967213116 9.936237043361509e-05
194 1 20.76611737704918 13.717865573770494 8.010483403613337e-05
195 1 23.156702295081967 14.682612459016395 1.9009894914276673e-05
196 1 25.843421639344264 14.979100327868853 8.129762544561181e-05
197 1 29.093175081967214 14.721036721311478 9.996068466372365e-05
198 1 30.867760000000004 15.65993180327869 4.532254886327283e-05
199 1 35.258880655737705 14.1758262295082 7.064533460604894e-06
200 1 36.75177180327869 14.419701639344263 6.08287785691004e-05
201 1 39.01971213114755 14.176785573770493 2.10495186905445e-05
202 1 41.66053442622951 13.818293770491804 3.47235732826814e-05
203 1 44.049200655737714 15.347135081967213 5.41586845903853e-05
204 1 47.98831868852459 14.403948196721313 3.7755497110483873e-06
205 1 49.54770754098361 14.498418360655739 7.147168823797266e-05
206 1 52.330714754098366 14.379257704918034 1.7557949070987467e-05
207 1 55.15724590163935 14.452470819672133 1.29720041531326e-05
208 1 57.542983606557385 14.844792131147543 8.676289164712425e-05
209 1 59.97012459016394 14.95733836065574 7.77116527093172e-05
210 1 62.42907540983607 14.855496393442625 2.227444776386145e-05
211 1 65.29448524590165 14.930426229508198 7.742555509605082e-05
212 1 68.58049180327869 15.098866885245904 7.491772165506894e-07
213 1 71.02278032786886 14.865594754098362 7.464431637806381e-05
214 1 74.49661639344264 14.229347540983607 3.6987965473707975e-06
215 1 76.03207213114754 14.350325901639346 3.984894011841485e-05
216 1 78.83487213114755 14.583093114754101 9.248569840677194e-05
217 1 81.4084393442623 14.32275737704918 3.603988301007714e-05
218 1 82.66871475409837 16.813619016393446 2.1148069072916222e-06
219 1 2.60345331147541 17.05522229508197 5.757215510943923e-05
220 1 5.328702950819673 18.01239540983607 4.122942130343331e-05
221 1 8.187195409836066 16.89708196721312 7.351500752238621e-05
222 1 11.05295868852459 16.657801311475414 9.036325033101876e-05
223 1 13.950834754098361 16.865575081967215 4.2384523214154056e-05
224 1 17.93372918032787 16.310316721311477 6.569397527418097e-06
225 1 19.393750163934428 15.76470229508197 5.317100008078815e-05
226 1 21.461490491803282 17.811539016393443 2.1582837278002123e-05
227 1 24.27898360655738 17.156306885245904 9.043147966387886e-05
228 1 26.616804590163937 16.28704 4.532047043289346e-05
229 1 30.087762622950823 16.957924590163937 1.431580340306844e-05
230 1 32.00468393442623 16.641946885245904 8.724079484140177e-05
231 1 35.34496918032787 16.978323278688528 3.494838225039234e-05
232 1 38.06647737704919 16.854062950819674 7.755861981058913e-05
233 1 40.58672524590165 16.331119344262294 6.331933568058651e-05
234 1 43.134945573770494 16.586910819672134 9.824225064419215e-05
235 1 45.49993114754099 17.152419016393445 8.241892077258928e-06
236 1 48.034316721311484 16.92621573770492 8.952774668068728e-05
237 1 51.678360655737706 16.504407213114757 8.116082527596714e-05
238 1 53.22896393442624 16.483756065573772 6.394123004294185e-05
239 1 55.88281311475411 17.07334885245902 5.6164232663493756e-05
240 1 58.61139016393443 17.358829508196724 6.197450232835734e-05
241 1 61.28392131147541 17.342773114754102 1.1087890755709508e-05
242 1 63.91605901639345 17.010537049180332 7.937328649756711e-05
243 1 66.0927606557377 16.28704 7.467924980588943e-05
244 1 69.57568524590164 17.386347540983607 7.328038108059742e-05
245 1 71.98161967213116 17.24158754098361 6.131400881228731e-05
246 1 74.7404918032787 16.736720000000002 2.720861019405052e-07
247 1 77.52360000000002 16.618518688524592 4.2221549077825593e-05
248 1 81.1393180327869 16.542629508196722 2.241818393296684e-05
249 1 1.3672624918032787 19.344975081967213 8.73771192548834e-05
250 1 4.44275862295082 19.286051147540984 2.3389896585819615e-05
251 1 7.198969836065574 19.31503344262295 2.267014729459923e-05
252 1 10.699768524590164 18.61986229508197 9.328905892261423e-05
253 1 12.245575081967214 18.802440655737705 1.4128208478350691e-05
254 1 14.872865573770493 19.0460131147541 6.114082151250318e-05
255 1 17.64037180327869 18.81041836065574 8.920356398552032e-05
256 1 20.5883862295082 19.12695147540984 3.6715668488751154e-05
257 1 23.347763278688525 19.623841311475413 5.840328245701541e-05
258 1 26.689765245901643 18.845106229508197 3.482364130914481e-05
259 1 28.23415803278689 18.802541639344263 3.0625394526721307e-06
260 1 31.097194754098364 19.446665573770492 2.367671964638274e-05
261 1 34.67156 19.190268196721316 8.005715467017826e-05
262 1 35.938853770491804 18.360485901639347 3.558698072237235e-05
263 1 39.23152524590164 18.91776393442623 7.005974542151306e-05
264 1 41.594996065573774 18.846822950819675 9.136195055225673e-05
265 1 43.91221639344263 19.24767737704918 2.8921140323868068e-05
266 1 46.5513724590164 19.339875409836065 8.184049987160682e-05
267 1 48.9326668852459 19.356941639344264 5.117472601127083e-06
268 1 51.468314754098365 19.170222950819674 7.935558736214097e-05
269 1 54.16558688524591 19.014859672131152 3.060252785818853e-05
270 1 56.90123278688525 19.426973770491802 2.173112352051896e-05
271 1 60.2372262295082 19.627476721311478 5.833331399780192e-05
272 1 62.915816393442626 19.46262098360656 8.620298554466695e-05
273 1 65.33992786885247 19.227682622950823 8.249304561671159e-05
274 1 67.94379016393442 19.514678032786886 9.920085087160517e-05
275 1 70.99349508196723 19.768853770491805 9.31748939609964e-05
276 1 73.71500327868853 19.034702950819675 7.440326823079813e-06
277 1 76.46731147540984 18.79542229508197 2.548055900176938e-06
278 1 78.81921967213115 19.103321311475412 9.347744907371792e-05
279 1 81.22262950819673 20.510729836065575 1.585059805902055e-05
280 1 0.22152521311475412 21.863354754098363 7.10734360981745e-05
281 1 2.967246754098361 21.254171147540983 7.297069473051844e-05
282 1 5.770809180327869 21.53167409836066 2.388837380950798e-05
283 1 8.45540786885246 21.400041967213117 8.690556202587884e-06
284 1 11.096836065573772 21.301885901639345 1.8489394478431578e-05
285 1 13.693629508196723 21.30335016393443 5.023447087522889e-05
286 1 16.358283934426233 21.091940983606563 5.2554347820210525e-05
287 1 19.0360662295082 20.96990229508197 1.4886916072451185e-05
288 1 21.024281967213117 20.62332655737705 1.6386330177208296e-05
289 1 24.438790163934428 21.91778491803279 3.9192204360534504e-05
290 1 26.82114491803279 21.714656393442628 9.33223335450733e-05
291 1 29.390420327868856 21.11925704918033 8.18370496244264e-05
292 1 32.186252459016394 21.62599278688525 6.870605975718054e-05
293 1 34.68292065573771 21.899809836065575 7.153474801472878e-05
294 1 37.399935081967215 21.18131147540984 7.21649541228181e-06
295 1 40.04419081967214 21.330767213114758 2.8527430787606857e-05
296 1 42.61972721311476 21.53399672131148 5.099309223147219e-05
297 1 45.29791344262295 21.541923934426233 8.463405415165388e-05
298 1 47.43018229508198 22.946201967213117 1.0339058202477047e-06
299 1 50.187388196721315 21.631041967213115 9.70290370591581e-05
300 1 53.02295737704919 21.363940327868857 5.490892473594006e-05
301 1 55.437475409836075 21.400445901639348 9.084943557620642e-05
302 1 57.814629508196724 20.658923278688526 4.07395552120028e-05
303 1 61.69038032786886 21.803118032786887 2.156481358438851e-05
304 1 64.06551475409836 21.85542754098361 7.56439490612983e-05
305 1 66.4972 21.73904393442623 9.305607969822698e-05
306 1 68.6375475409836 20.943192131147544 1.8015444714165964e-05
307 1 73.62159344262295 20.965761967213115 2.5546654857844244e-06
308 1 75.13079344262296 21.03660196721312 6.746407743207412e-05
309 1 77.59125901639345 21.41180655737705 4.334087452252647e-05
310 1 80.27388852459018 21.763936393442627 6.657550498226194e-05
311 1 2.4889278032786883 23.523676721311478 3.9634897963167596e-05
312 1 4.049038688524591 23.50898360655738 3.97570590023396e-05
313 1 8.085504918032788 23.408252459016396 6.774449533873774e-05
314 1 9.607075409836067 23.600676721311476 7.335387594586697e-05
315 1 12.405937049180329 23.735944262295085 9.722664994404407e-06
316 1 16.132636065573774 23.131658360655738 8.868077965250966e-05
317 1 17.67076786885246 23.272379016393444 2.6925721029245343e-05
318 1 20.231611147540985 23.525847868852463 2.4061469770215982e-05
319 1 22.742921967213118 23.945737704918034 8.9882551228974e-05
320 1 25.457967213114756 24.2850931147541 9.89923531017887e-05
321 1 29.218798688524593 23.402950819672135 5.585757843244108e-05
322 1 30.757233442622955 23.40855540983607 6.502118968581029e-05
323 1 32.86647803278689 25.163448524590166 3.1202707903108234e-05
324 1 36.81771409836066 23.63910098360656 5.541700676174486e-05
325 1 38.37260918032787 23.542560655737706 6.517265044694609e-05
326 1 41.072254426229506 23.772803278688528 8.064895629317645e-05
327 1 43.93958295081968 23.813853114754103 6.9951301752902875e-06
328 1 46.703403278688526 24.317003934426232 3.887420624272168e-05
329 1 49.245110163934434 23.950685901639346 1.2041120818405572e-05
330 1 52.00201311475411 23.546902950819675 4.452405175230349e-05
331 1 54.55184918032787 23.857225573770492 1.9671280797756786e-05
332 1 57.175908196721316 23.37154491803279 2.423671481459611e-07
333 1 60.04889180327869 23.65399606557377 8.149768271332441e-05
334 1 62.57196721311476 24.36052786885246 5.189398542717021e-05
335 1 65.23793442622951 24.311954754098362 7.88845652421972e-05
336 1 67.999331147541 23.93367016393443 7.44706885055113e-05
337 1 71.8028786885246 23.591032786885247 2.3595405004692584e-05
338 1 73.33530491803279 23.648845901639348 4.41156973843755e-05
339 1 76.10881967213116 23.60148459016394 1.8971407846839185e-05
340 1 78.06234754098362 24.96653049180328 8.886592769420315e-05
341 1 81.03681967213116 24.09685967213115 8.02090525862345e-05
342 1 82.23953442622953 26.187371803278694 4.782437630015812e-06
343 1 2.0046104262295086 25.915523934426233 2.9237950450039396e-05
344 1 5.827309508196722 25.698207213114756 6.594106663812255e-05
345 1 7.338579672131148 25.904971147540987 2.0148911020211446e-05
346 1 11.02256262295082 25.820851803278693 4.405241088120272e-05
347 1 13.253643934426231 25.05771868852459 7.655354190529947e-05
348 1 17.175897704918036 25.67780852459017 7.856988650934541e-05
349 1 18.725137704918037 25.820397377049183 3.0209237884821374e-05
350 1 21.13193049180328 26.196157377049182 5.7445126930866164e-05
351 1 23.680453770491805 26.373585573770495 6.898618147643442e-05
352 1 27.458856393442627 26.293758032786887 1.130792167761715e-05
353 1 28.975781639344262 26.104110819672133 5.400532035313577e-05
354 1 31.760051147540988 26.273510819672136 1.9071076836738487e-05
355 1 34.347503606557375 26.75419278688525 6.78442018984871e-05
356 1 36.912588196721316 26.222817049180332 2.8161463551666877e-05
357 1 39.76370885245902 25.96399606557377 7.870257721716365e-05
358 1 42.70743147540984 25.870333770491804 6.5802671727302e-05
359 1 45.12775606557378 27.291880000000003 3.932672885619429e-05
360 1 49.16851409836066 26.082550819672132 7.709513105872743e-05
361 1 50.7200262295082 25.849985573770493 9.092751766522628e-05
362 1 53.214321311475416 27.035836065573775 9.204304197462385e-05
363 1 56.98302950819672 25.612674098360657 1.987391676765594e-05
364 1 58.538177049180334 25.535068196721312 1.7001659566833416e-05
365 1 60.24984918032787 27.567767213114756 6.767780805874724e-05
366 1 63.92716721311476 26.779337704918035 5.248288060336624e-05
367 1 66.79712131147542 26.390348852459017 2.136567253343633e-05
368 1 69.9700262295082 26.23937836065574 1.550948398683113e-05
369 1 71.49336393442623 26.058668196721314 8.559511307278268e-06
370 1 74.27243278688526 25.84937967213115 7.223797261260442e-05
371 1 76.99242622950821 26.137940327868854 6.090240548887457e-05
372 1 79.55135081967214 26.350611803278692 4.23256757337217e-05
373 1 0.9769356065573771 28.438346885245902 9.77554445125541e-05
374 1 3.4358005901639346 28.2883862295082 3.6823459119090364e-05
375 1 5.855887868852459 27.828254426229513 2.8625531956408947e-05
376 1 8.47777573770492 26.97201442622951 6.892152441267598e-05
377 1 12.270114098360658 27.91111147540984 7.453323248928856e-05
378 1 14.82873573770492 28.85212721311476 7.222994550623273e-05
379 1 17.245677377049184 29.02763672131148 7.61730309558472e-05
380 1 19.85171081967213 28.64384852459017 9.643062980535581e-05
381 1 22.277589508196723 28.742408524590168 9.892700445225628e-05
382 1 24.737398688524593 28.84354360655738 7.288434522302866e-05
383 1 27.2480531147541 28.666771803278692 6.857588638378763e-05
384 1 29.95764524590164 28.425774426229513 5.811987221315149e-05
385 1 32.611342950819676 28.762150819672133 3.0273979763316694e-05
386 1 35.493768524590166 28.7603331147541 4.6612558412415355e-05
387 1 38.59467213114755 28.28111540983607 7.860461024743624e-05
388 1 41.337437377049184 27.99376655737705 1.1907491836520978e-05
389 1 44.15023475409836 28.495301639344262 9.25312408406506e-05
390 1 46.84629508196722 29.03904786885246 9.833673826541263e-05
391 1 49.319181639344265 28.37886754098361 8.523856149835827e-05
392 1 52.25901639344263 28.249659016393444 6.233528518150557e-05
393 1 54.81541639344263 28.68560524590164 8.165563233175079e-05
394 1 57.37030163934427 28.133275409836067 5.2519014954494724e-05
395 1 59.40714098360656 29.860751475409838 5.009989885651223e-06
396 1 61.58838688524591 28.40078098360656 8.057584828016473e-05
397 1 65.4383868852459 28.64107147540984 8.987002867000897e-05
398 1 67.92712786885247 28.951444590163938 5.71087209526002e-05
399 1 70.41586885245903 28.908425573770497 9.849405236120277e-05
400 1 73.0889049180328 28.214365245901643 1.95677601005963e-05
401 1 75.48221639344263 29.396529836065575 9.995369073475217e-05
402 1 78.21836721311476 28.596285245901644 1.2552328304070093e-05
403 1 80.96562622950822 28.485455737704918 1.3940794567066118e-05
404 1 0.004868692327868853 30.625146885245904 1.59544451141987e-05
405 1 2.7679505573770493 30.671548852459022 5.082024846064122e-05
406 1 6.051240655737706 29.790113442622953 6.547702110445732e-05
407 1 7.100056393442624 28.699187540983612 3.6199620542836954e-05
408 1 10.114669508196721 31.037412459016394 2.4974845481937737e-06
409 1 12.997549508196723 30.569706885245903 2.9864612809537907e-05
410 1 15.785100983606558 31.343493770491808 6.716528329360041e-05
411 1 18.556343606557377 31.226150819672135 6.917208724332401e-05
412 1 21.378582950819673 31.263413770491805 4.343106059909283e-05
413 1 24.01284131147541 31.16434885245902 8.683363884576667e-05
414 1 26.530362622950822 31.04195672131148 9.952967236661936e-05
415 1 28.710901639344264 32.08259278688525 4.238583555010078e-05
416 1 31.332789508196726 30.874222950819675 8.786674244202315e-05
417 1 34.15487737704919 30.773138360655743 9.210305952685826e-05
418 1 36.412466885245905 29.97657967213115 7.690193552139755e-05
419 1 39.94775147540984 30.33416262295082 7.052704004477001e-05
420 1 42.40796459016394 30.321337704918037 1.4124969596647275e-05
421 1 44.580222950819675 29.965320000000002 7.82366413319983e-05
422 1 48.17044262295082 31.004087868852462 2.543070018197754e-05
423 1 50.67104918032788 30.320731803278694 6.320185081258984e-05
424 1 53.29106885245902 30.771522622950826 5.40828477055741e-05
425 1 55.9519868852459 30.68452524590164 7.063188920046615e-06
426 1 58.597757377049184 31.187373114754102 3.312626629014525e-05
427 1 61.597980327868854 31.225393442622956 3.665559548961928e-06
428 1 64.79310163934427 30.916636065573773 9.087238122297877e-05
429 1 66.33057704918033 31.150362622950823 5.94941336037369e-06
430 1 68.95867540983608 31.34096918032787 8.727935505807576e-05
431 1 71.67715409836066 30.911637377049182 9.928055972003315e-05
432 1 75.09494426229509 30.886845901639347 1.1571456740840835e-05
433 1 77.65588852459018 30.927794754098365 3.0490846522496318e-05
434 1 80.09262295081967 30.644788196721315 7.614989005049062e-05
435 1 1.2146409180327868 32.791548196721315 7.687439211542102e-05
436 1 4.085842163934427 32.693594098360656 2.8197359913078923e-06
437 1 6.696879344262295 32.43946885245902 4.707978126466015e-05
438 1 9.459891803278689 32.47289442622951 5.767722925131899e-05
439 1 11.768124590163936 32.827649836065575 2.062333207038215e-05
440 1 14.399353442622953 32.96816852459017 5.2939364837854524e-05
441 1 17.143431475409837 33.46157442622951 8.245429741729452e-05
442 1 19.302965901639347 32.592156065573775 9.276613605734944e-05
443 1 22.9599862295082 33.52590098360656 3.15271582642205e-05
444 1 25.49043344262295 33.54210885245902 2.779666396320213e-06
445 1 28.146605245901643 33.518630163934425 5.5690307376726316e-05
446 1 30.629388196721315 33.41870688524591 3.544231109810484e-05
447 1 33.232190163934426 32.8595606557377 2.6368786955189194e-05
448 1 35.816209180327874 32.790083934426235 5.9192916543335577e-05
449 1 38.42496918032787 32.59564 5.3836118556494396e-06
450 1 41.085230819672134 32.75615344262295 9.676928421057141e-05
451 1 43.724386885245906 32.71353836065574 1.3761034878184575e-05
452 1 46.4700806557377 33.150544918032786 2.8367384857862123e-05
453 1 49.77537508196722 32.94933508196721 3.213609885665085e-05
454 1 52.13985573770492 33.915798688524596 1.6390239915380125e-05
455 1 54.73210491803279 32.998665573770495 5.094590952375359e-05
456 1 56.95273442622952 34.26015278688525 6.195222534373643e-05
457 1 59.20466885245902 32.59377180327869 5.036358610295342e-05
458 1 62.30436065573771 34.92896721311475 7.818198875456477e-05
459 1 64.90064918032787 33.863135737704916 8.803312708095286e-05
460 1 67.68527213114754 33.633347540983614 2.696726135991604e-05
461 1 70.48807213114755 33.37306229508197 2.1667880376982196e-05
462 1 72.55066229508196 32.19731016393443 2.262536154720528e-05