ITEM: TIMESTEP
0
ITEM: NUMBER OF ATOMS
2232
ITEM: BOX BOUNDS xy xz yz pp pp pp
0.0 82.68810555352132 0
0.0 83.16 0
-10.0 10.0 0
ITEM: ATOMS id type x y z vx vy vz
1 1 1.4648025573770493 0.6413165901639345 9.77429297891e-05 0.0 0.0 0.0
2 1 3.4475853770491804 2.267420262295082 9.8818326488e-05 0.0 0.0 0.0
3 1 5.963839344262296 1.0847760000000002 9.86447392903e-05 0.0 0.0 0.0
4 1 8.823291147540983 0.9218742950819673 9.1998364806e-05 0.0 0.0 0.0
5 1 11.609984262295082 1.1017311475409837 6.18465082683e-06 0.0 0.0 0.0
6 1 14.001982950819674 0.9246361967213116 9.79292148558e-05 0.0 0.0 0.0
7 1 16.745354098360657 0.25858670163934433 6.20162058122e-05 0.0 0.0 0.0
8 1 21.186158688524593 0.7512271475409836 6.23934011998e-06 0.0 0.0 0.0
9 1 24.226320655737705 0.36206359344262296 2.99558660687e-05 0.0 0.0 0.0
10 1 26.98332459016394 0.6450782295081968 5.07435388164e-06 0.0 0.0 0.0
11 1 28.50009836065574 0.4215934295081968 2.71122282258e-05 0.0 0.0 0.0
12 1 31.366265573770495 0.29768502950819675 4.96707530989e-05 0.0 0.0 0.0
13 1 33.732866885245905 1.3681965901639346 1.05063376183e-05 0.0 0.0 0.0
14 1 36.65104065573771 0.8966081967213115 1.17773079674e-05 0.0 0.0 0.0
15 1 39.14351803278689 1.3154175081967214 8.0257709654e-05 0.0 0.0 0.0
16 1 42.12788655737705 1.419728524590164 3.48335322077e-05 0.0 0.0 0.0
17 1 45.42565770491803 0.8373914098360657 4.46789147073e-05 0.0 0.0 0.0
18 1 48.92433573770492 1.0295430163934427 6.94034457731e-05 0.0 0.0 0.0
19 1 50.41939803278689 0.7866471475409837 3.83684027881e-05 0.0 0.0 0.0
20 1 52.65941639344263 0.4680877967213115 3.76696676742e-05 0.0 0.0 0.0
21 1 55.343560655737704 0.2556364655737705 8.70008038141e-05 0.0 0.0 0.0
22 1 58.02871475409837 0.29049348196721314 2.7144851293e-05 0.0 0.0 0.0
23 1 60.73305573770492 0.2773772262295082 2.6602439112e-05 0.0 0.0 0.0
24 1 63.313186885245905 0.6610639344262296 1.04826051835e-05 0.0 0.0 0.0
25 1 65.85191475409836 1.2278495737704918 4.73966259279e-05 0.0 0.0 0.0
26 1 68.4259868852459 0.792640524590164 1.34452259137e-05 0.0 0.0 0.0
27 1 69.98769836065574 2.3973508196721314 7.02470135479e-05 0.0 0.0 0.0
28 1 73.80538360655738 1.270197049180328 1.58411716707e-05 0.0 0.0 0.0
29 1 76.26281967213114 0.7631836065573772 7.60364357246e-05 0.0 0.0 0.0
30 1 78.73843278688526 0.5950812459016394 8.15073658799e-05 0.0 0.0 0.0
31 1 81.15648524590165 0.7398260983606558 3.40516696349e-05 0.0 0.0 0.0
32 1 82.09260327868854 1.9408190819672133 2.60783711996e-05 0.0 0.0 0.0
33 1 2.7967308852459016 3.6664219016393447 7.85667974749e-06 0.0 0.0 0.0
34 1 5.165260983606558 3.7749742295081967 5.87990362146e-05 0.0 0.0 0.0
35 1 7.786946885245903 3.13053724590164 7.96939808974e-05 0.0 0.0 0.0
36 1 10.254279344262297 3.2312330491803283 8.90520664011e-05 0.0 0.0 0.0
37 1 13.153670163934429 3.4669085901639347 5.60991313259e-06 0.0 0.0 0.0
38 1 16.303096393442626 2.395987540983607 1.28162718486e-05 0.0 0.0 0.0
39 1 18.14433049180328 0.861016524590164 4.82594753967e-05 0.0 0.0 0.0
40 1 22.494249836065578 2.172955147540984 8.80074841863e-05 0.0 0.0 0.0
41 1 25.302654426229513 2.6878554098360654 9.60649916577e-05 0.0 0.0 0.0
42 1 28.368264262295085 3.288096918032787 2.55307274739e-05 0.0 0.0 0.0
43 1 31.138800000000003 2.7130912131147547 2.82096551129e-05 0.0 0.0 0.0
44 1 32.64507147540984 2.4431973770491804 7.66024035785e-05 0.0 0.0 0.0
45 1 35.057620327868854 3.0671700327868856 6.44772797328e-05 0.0 0.0 0.0
46 1 37.894805245901644 3.4428492459016398 5.49350101375e-05 0.0 0.0 0.0
47 1 39.86110754098361 2.6570705573770494 7.99811246996e-05 0.0 0.0 0.0
48 1 43.091623606557384 2.6182928524590166 2.4217597096e-05 0.0 0.0 0.0
49 1 45.89371672131148 4.471801508196722 4.58576557052e-05 0.0 0.0 0.0
50 1 48.75564262295082 3.697792459016394 8.41894237034e-05 0.0 0.0 0.0
51 1 51.47689836065574 3.2133488524590166 7.39773727792e-05 0.0 0.0 0.0
52 1 54.09742295081968 2.6024889180327873 5.66669673316e-05 0.0 0.0 0.0
53 1 56.93758688524591 2.513123475409836 3.6301119002e-05 0.0 0.0 0.0
54 1 59.68484590163935 2.4772490491803283 4.16796904066e-05 0.0 0.0 0.0
55 1 62.11653114754099 3.8784824262295086 4.63285761831e-05 0.0 0.0 0.0
56 1 64.21194098360657 4.630401311475411 9.24173881958e-05 0.0 0.0 0.0
57 1 68.49566557377051 2.8043702950819673 1.42049772155e-05 0.0 0.0 0.0
58 1 71.37975737704919 3.059374098360656 9.02711994661e-05 0.0 0.0 0.0
59 1 73.46102950819673 3.696247409836066 3.77080077054e-05 0.0 0.0 0.0
60 1 76.22848524590165 3.0615906885245905 6.21806239891e-05 0.0 0.0 0.0
61 1 77.76091147540984 3.073431016393443 1.54690652984e-05 0.0 0.0 0.0
62 1 80.04869508196722 3.117828459016394 5.10912670094e-05 0.0 0.0 0.0
63 1 0.22732066229508197 7.119192786885247 6.40089330714e-05 0.0 0.0 0.0
64 1 4.4034204590163935 6.189588196721312 2.09323464666e-05 0.0 0.0 0.0
65 1 7.127120000000001 5.584342950819673 4.54466029636e-05 0.0 0.0 0.0
66 1 8.659596721311477 5.642862950819673 1.09976328043e-05 0.0 0.0 0.0
67 1 11.713088524590166 5.386061639344263 2.36517515729e-05 0.0 0.0 0.0
68 1 14.517403278688526 4.229541836065574 5.84497155923e-05 0.0 0.0 0.0
69 1 17.561554098360656 3.9268737704918038 2.71055335801e-05 0.0 0.0 0.0
70 1 20.67689836065574 3.7900965245901643 4.34334331488e-05 0.0 0.0 0.0
71 1 23.371342950819674 4.339800786885246 8.67762054146e-05 0.0 0.0 0.0
72 1 25.61302754098361 4.187628590163935 4.54701956489e-05 0.0 0.0 0.0
73 1 28.725342295081973 5.797973770491804 7.29385576393e-05 0.0 0.0 0.0
74 1 31.251800655737707 5.635996065573771 8.28094241296e-05 0.0 0.0 0.0
75 1 33.624208524590166 5.114617704918033 3.58327195616e-05 0.0 0.0 0.0
76 1 35.69548327868853 4.445636655737705 3.16864034006e-05 0.0 0.0 0.0
77 1 39.34482885245902 5.58060655737705 4.53753267585e-05 0.0 0.0 0.0
78 1 42.09547081967214 5.527034754098361 9.67192952049e-05 0.0 0.0 0.0
79 1 45.38900065573771 5.921274754098361 4.7833245561e-05 0.0 0.0 0.0
80 1 47.77731344262296 7.135299672131149 8.06913682471e-05 0.0 0.0 0.0
81 1 50.38561901639345 5.759902950819673 6.66832246534e-05 0.0 0.0 0.0
82 1 53.841934426229514 4.89708386885246 4.59598393984e-05 0.0 0.0 0.0
83 1 55.36678688524591 4.6334813114754105 9.98388757786e-05 0.0 0.0 0.0
84 1 58.33671475409837 4.712854426229509 7.40610345026e-06 0.0 0.0 0.0
85 1 61.229895081967214 5.204139672131149 9.05545261596e-05 0.0 0.0 0.0
86 1 63.67066885245902 6.06108655737705 5.13722069322e-05 0.0 0.0 0.0
87 1 65.57471475409838 5.325572459016394 4.65928823745e-05 0.0 0.0 0.0
88 1 69.29646557377049 5.588432786885246 8.25915475909e-05 0.0 0.0 0.0
89 1 72.74000655737704 5.797973770491804 7.57003542693e-05 0.0 0.0 0.0
90 1 74.22295081967214 6.160908852459017 8.85136303194e-05 0.0 0.0 0.0
91 1 76.68745573770492 5.98908524590164 2.87592643942e-05 0.0 0.0 0.0
92 1 79.22012459016393 5.663110163934427 6.96078842303e-05 0.0 0.0 0.0
93 1 82.64195409836067 4.44422793442623 9.75441436009e-05 0.0 0.0 0.0
94 1 82.03554754098361 8.354121311475412 4.32849264801e-05 0.0 0.0 0.0
95 1 1.3166141639344264 8.191941639344263 8.16446939807e-06 0.0 0.0 0.0
96 1 4.924904852459017 8.73609180327869 5.39088127101e-05 0.0 0.0 0.0
97 1 7.473544262295083 8.915590163934427 8.63532550201e-06 0.0 0.0 0.0
98 1 9.344820983606558 7.048049836065575 6.61695138311e-05 0.0 0.0 0.0
99 1 13.231427540983608 8.370480655737705 3.94271126075e-05 0.0 0.0 0.0
100 1 15.700426229508198 6.8545147540983615 7.46731727796e-05 0.0 0.0 0.0
101 1 18.371695081967214 5.254580983606558 6.1809450037e-05 0.0 0.0 0.0
102 1 22.0644131147541 6.2024636065573775 4.89526984665e-05 0.0 0.0 0.0
103 1 24.03833967213115 7.9660918032786885 9.95805510635e-05 0.0 0.0 0.0
104 1 26.880169836065576 7.248906229508197 2.11878031973e-05 0.0 0.0 0.0
105 1 29.800918688524593 8.014866885245903 6.41183978477e-05 0.0 0.0 0.0
106 1 32.61275672131148 7.760741639344263 3.62645993783e-06 0.0 0.0 0.0
107 1 35.366024262295085 7.258146229508197 7.87158607421e-05 0.0 0.0 0.0
108 1 37.626138360655744 8.604257704918034 8.5493278916e-05 0.0 0.0 0.0
109 1 40.44782229508197 7.756500327868854 2.75086565979e-05 0.0 0.0 0.0
110 1 42.874054426229506 6.881426885245903 4.40689369708e-05 0.0 0.0 0.0
111 1 46.65068983606558 8.17745049180328 3.46756737092e-05 0.0 0.0 0.0
112 1 49.20804918032787 8.371187540983607 3.58058898037e-05 0.0 0.0 0.0
113 1 51.73289180327869 8.24712918032787 9.43749781203e-05 0.0 0.0 0.0
114 1 54.020170491803285 7.449560655737706 1.3988007437e-05 0.0 0.0 0.0
115 1 56.74622295081968 6.610992786885246 2.04463129966e-05 0.0 0.0 0.0
116 1 59.54195409836066 6.977815737704918 7.79036250862e-05 0.0 0.0 0.0
117 1 61.37884590163935 6.762064262295083 5.91019794491e-05 0.0 0.0 0.0
118 1 64.642131147541 8.228598688524592 7.50750094022e-05 0.0 0.0 0.0
119 1 67.53935081967214 7.735293770491804 4.04191953394e-05 0.0 0.0 0.0
120 1 70.13866885245902 8.06500524590164 5.23950034151e-05 0.0 0.0 0.0
121 1 72.6188262295082 8.439553442622952 2.44349468704e-05 0.0 0.0 0.0
122 1 76.18102295081967 8.349021639344263 6.63708905255e-05 0.0 0.0 0.0
123 1 77.7084 8.186892459016395 3.60007274638e-05 0.0 0.0 0.0
124 1 80.56472131147542 7.9910347540983615 9.85379427787e-05 0.0 0.0 0.0
125 1 0.6052553442622951 10.94485573770492 8.75180546985e-05 0.0 0.0 0.0
126 1 2.963404327868853 10.232769836065575 9.07526873349e-05 0.0 0.0 0.0
127 1 6.899149508196722 10.340115409836066 1.50506616017e-05 0.0 0.0 0.0
128 1 9.516341639344263 10.048878688524592 5.41896119704e-05 0.0 0.0 0.0
129 1 13.240415081967214 9.878973770491804 2.73243603308e-05 0.0 0.0 0.0
130 1 15.695478032786887 9.143207213114755 1.55158578027e-05 0.0 0.0 0.0
131 1 17.05436393442623 7.632795409836066 5.03202624057e-05 0.0 0.0 0.0
132 1 19.939314098360658 9.237424918032787 6.25346288091e-05 0.0 0.0 0.0
133 1 23.439506885245905 9.387436065573771 6.59522193567e-05 0.0 0.0 0.0
134 1 26.810895081967214 10.257965245901639 4.97865120693e-06 0.0 0.0 0.0
135 1 28.805624262295083 10.695830163934426 5.87507458522e-05 0.0 0.0 0.0
136 1 31.474520000000005 9.98116918032787 3.05098232577e-05 0.0 0.0 0.0
137 1 33.79668852459017 9.627272131147542 3.94373220099e-05 0.0 0.0 0.0
138 1 36.51092590163935 9.665746885245902 7.97872122353e-06 0.0 0.0 0.0
139 1 39.30145639344263 10.174502295081968 5.59460081314e-05 0.0 0.0 0.0
140 1 42.0891593442623 9.66544393442623 3.56004811421e-05 0.0 0.0 0.0
141 1 44.89453442622951 10.049383606557377 5.25581267711e-05 0.0 0.0 0.0
142 1 48.38685049180329 10.493509508196722 4.66920648263e-07 0.0 0.0 0.0
143 1 49.733668852459026 9.792430819672132 5.82229374085e-05 0.0 0.0 0.0
144 1 53.246131147540986 10.245392786885247 3.41859690738e-05 0.0 0.0 0.0
145 1 56.44731147540984 8.759267540983608 3.00631501623e-05 0.0 0.0 0.0
146 1 57.96358032786886 8.854697049180329 8.17650474223e-05 0.0 0.0 0.0
147 1 60.56491803278689 9.702959344262295 2.55864379054e-05 0.0 0.0 0.0
148 1 63.19907540983607 10.331380327868853 1.68518478401e-05 0.0 0.0 0.0
149 1 65.2965049180328 9.598946229508197 1.84788452985e-05 0.0 0.0 0.0
150 1 67.98973770491804 11.36181704918033 6.52501930776e-05 0.0 0.0 0.0
151 1 70.80516065573771 10.54021442622951 3.99186951668e-05 0.0 0.0 0.0
152 1 73.41104262295083 10.947077377049181 5.49174446499e-05 0.0 0.0 0.0
153 1 75.73467540983607 11.07340786885246 3.8538118176e-07 0.0 0.0 0.0
154 1 78.29662950819673 11.022411147540986 3.47900326751e-05 0.0 0.0 0.0
155 1 80.63339016393444 10.889920655737706 4.93067200563e-05 0.0 0.0 0.0
156 1 82.06483278688526 13.233396721311477 2.59623750871e-05 0.0 0.0 0.0
157 1 2.1397668852459018 13.042840655737708 6.8387871567e-05 0.0 0.0 0.0
158 1 5.555007213114754 12.770386885245903 1.77419254958e-05 0.0 0.0 0.0
159 1 8.31680786885246 12.47748393442623 5.34467148668e-05 0.0 0.0 0.0
160 1 10.443068196721313 11.303044590163935 7.81778622422e-05 0.0 0.0 0.0
161 1 14.541487868852462 11.756763934426232 5.54010092355e-05 0.0 0.0 0.0
162 1 17.677129836065575 10.672099016393442 6.38992819187e-05 0.0 0.0 0.0
163 1 19.199104262295084 10.58288 2.76297181601e-06 0.0 0.0 0.0
164 1 21.038217704918036 10.312546885245903 7.94510315998e-05 0.0 0.0 0.0
165 1 24.363961311475414 10.593937704918034 6.37146063437e-05 0.0 0.0 0.0
166 1 27.383825573770494 13.051272786885246 9.29254552516e-05 0.0 0.0 0.0
167 1 30.213992131147542 12.426436721311477 2.11803420954e-05 0.0 0.0 0.0
168 1 32.77438098360656 12.286776393442624 5.19289444431e-05 0.0 0.0 0.0
169 1 35.261102295081976 11.834218360655738 8.78040070346e-05 0.0 0.0 0.0
170 1 37.790034754098365 12.700253770491804 9.20501799987e-05 0.0 0.0 0.0
171 1 40.51608721311476 12.018059016393444 2.37054646952e-05 0.0 0.0 0.0
172 1 43.050321311475415 11.971960000000001 9.76384189624e-05 0.0 0.0 0.0
173 1 45.53795147540984 12.769780983606559 1.31004260262e-05 0.0 0.0 0.0
174 1 48.04759606557378 13.029662295081968 9.06483060745e-05 0.0 0.0 0.0
175 1 51.7904524590164 12.611236721311476 9.43435373543e-05 0.0 0.0 0.0
176 1 55.48695737704919 12.11485180327869 9.44653143854e-05 0.0 0.0 0.0
177 1 56.840137704918035 11.43144524590164 9.88939531115e-05 0.0 0.0 0.0
178 1 59.30817704918033 12.461528524590165 2.70092182615e-05 0.0 0.0 0.0
179 1 61.146583606557385 11.195194098360657 9.32540205113e-05 0.0 0.0 0.0
180 1 64.48914098360656 12.471121967213117 3.49946022986e-05 0.0 0.0 0.0
181 1 67.18388852459017 12.644409836065575 5.39712603997e-06 0.0 0.0 0.0
182 1 69.78775081967214 12.805024262295085 1.79731171926e-05 0.0 0.0 0.0
183 1 71.78116721311476 14.262419672131148 8.75642471624e-06 0.0 0.0 0.0
184 1 74.47540983606558 13.52397704918033 3.3298041691e-06 0.0 0.0 0.0
185 1 77.12420983606559 13.424760655737707 6.02718449414e-05 0.0 0.0 0.0
186 1 79.58619016393445 13.489390163934429 8.7440641711e-05 0.0 0.0 0.0
187 1 0.9721388852459018 15.329109508196723 9.38949646695e-05 0.0 0.0 0.0
188 1 3.1487395409836068 14.222228196721312 6.58880861895e-05 0.0 0.0 0.0
189 1 7.062288524590165 14.77667868852459 6.54571291292e-05 0.0 0.0 0.0
190 1 10.803276721311477 13.8754 1.62028929937e-05 0.0 0.0 0.0
191 1 12.305660327868853 13.563512131147542 9.68833498824e-05 0.0 0.0 0.0
192 1 15.203536393442626 13.966436721311476 4.82509027456e-05 0.0 0.0 0.0
193 1 17.982150819672132 13.598805901639345 5.9530272359e-05 0.0 0.0 0.0
194 1 20.721735081967214 13.146752786885248 3.91362966106e-05 0.0 0.0 0.0
195 1 23.58103540983607 13.397495081967215 2.04450121517e-05 0.0 0.0 0.0
196 1 26.42932852459017 14.23192262295082 5.21795937587e-05 0.0 0.0 0.0
197 1 29.36835540983607 14.624092459016396 4.65290917976e-05 0.0 0.0 0.0
198 1 32.3139462295082 15.23065049180328 5.96354701235e-05 0.0 0.0 0.0
199 1 34.65762426229509 15.516484590163936 5.62431355147e-05 0.0 0.0 0.0
200 1 37.06027672131148 14.068581639344263 2.22380004138e-05 0.0 0.0 0.0
201 1 39.08888590163935 15.64337049180328 7.18266935113e-05 0.0 0.0 0.0
202 1 41.66674491803279 14.369209836065576 7.14029440288e-05 0.0 0.0 0.0
203 1 43.69914098360656 15.814840655737706 6.50410606256e-06 0.0 0.0 0.0
204 1 47.21852065573771 15.202072131147542 6.57102341264e-05 0.0 0.0 0.0
205 1 49.27843475409837 13.967951475409837 5.97459359992e-06 0.0 0.0 0.0
206 1 53.019422950819674 14.814547540983607 3.27173654132e-06 0.0 0.0 0.0
207 1 55.49503606557378 14.679885901639345 8.78050682356e-05 0.0 0.0 0.0
208 1 59.389468852459025 13.956994754098362 7.78497817621e-05 0.0 0.0 0.0
209 1 60.859790163934434 14.30821573770492 7.00020888949e-06 0.0 0.0 0.0
210 1 63.1864524590164 14.818384918032788 4.11864399265e-05 0.0 0.0 0.0
211 1 65.68933114754098 14.77672918032787 6.51245655372e-05 0.0 0.0 0.0
212 1 68.2033180327869 14.988643278688526 5.40994714692e-05 0.0 0.0 0.0
213 1 70.77032131147541 15.397828852459018 6.2639800921e-05 0.0 0.0 0.0
214 1 73.09849836065574 15.997015081967215 3.09865146368e-05 0.0 0.0 0.0
215 1 75.8028393442623 15.763440000000001 8.78301806077e-06 0.0 0.0 0.0
216 1 78.2819868852459 15.926579016393443 8.62661356443e-05 0.0 0.0 0.0
217 1 80.95653770491805 15.815143606557378 8.98886796343e-05 0.0 0.0 0.0
218 1 0.32648252459016397 17.70616262295082 4.58779630904e-05 0.0 0.0 0.0
219 1 2.922743278688525 17.116973770491807 8.55826783173e-05 0.0 0.0 0.0
220 1 5.5047173770491815 16.833714754098363 7.674594517e-05 0.0 0.0 0.0
221 1 8.256217704918035 16.893295081967217 6.29995005808e-05 0.0 0.0 0.0
222 1 10.925466885245903 16.373986885245905 5.72905563516e-05 0.0 0.0 0.0
223 1 13.722561311475411 15.872956721311477 8.59472568101e-05 0.0 0.0 0.0
224 1 16.494106885245902 15.960761967213116 1.21530674698e-05 0.0 0.0 0.0
225 1 20.306137049180332 15.412723934426232 4.09224280396e-05 0.0 0.0 0.0
226 1 21.882895081967217 15.431052459016394 2.49923850115e-05 0.0 0.0 0.0
227 1 24.63399147540984 15.88048 6.2437341809e-05 0.0 0.0 0.0
228 1 27.51101442622951 16.36600918032787 2.64181553599e-05 0.0 0.0 0.0
229 1 32.40972918032787 16.765399344262296 1.46460554727e-05 0.0 0.0 0.0
230 1 33.94584131147541 16.87653180327869 1.11236394247e-05 0.0 0.0 0.0
231 1 36.31718885245902 16.911876065573775 9.75887050494e-05 0.0 0.0 0.0
232 1 38.63016786885247 17.08248786885246 8.59012342538e-05 0.0 0.0 0.0
233 1 40.51568327868853 18.395224262295084 8.17669714228e-05 0.0 0.0 0.0
234 1 43.14968918032787 17.22815672131148 5.80675506353e-05 0.0 0.0 0.0
235 1 45.074992131147546 16.434375081967215 5.85209489966e-05 0.0 0.0 0.0
236 1 49.00668786885247 16.921873442622953 3.60623458877e-05 0.0 0.0 0.0
237 1 51.66270819672132 16.707636721311477 2.67860091757e-05 0.0 0.0 0.0
238 1 54.25344262295083 17.135958688524592 1.06593589277e-06 0.0 0.0 0.0
239 1 57.542983606557385 16.593020327868853 3.03952559835e-05 0.0 0.0 0.0
240 1 59.05066885245902 16.50238754098361 3.88819612208e-05 0.0 0.0 0.0
241 1 61.08851803278689 15.886640000000002 9.7390870177e-06 0.0 0.0 0.0
242 1 64.58457049180329 17.20079016393443 6.93642310894e-05 0.0 0.0 0.0
243 1 66.98747540983607 17.233104918032787 9.9242314007e-05 0.0 0.0 0.0
244 1 69.38230163934428 18.46515540983607 8.63795982832e-05 0.0 0.0 0.0
245 1 71.95233442622951 18.77037836065574 4.1385219663e-05 0.0 0.0 0.0
246 1 74.71272131147542 18.0682393442623 4.79348981084e-05 0.0 0.0 0.0
247 1 76.63948852459018 19.606876065573772 5.67883604727e-05 0.0 0.0 0.0
248 1 80.44758032786886 19.14447213114754 8.88249594756e-05 0.0 0.0 0.0
249 1 2.269616655737705 19.655903606557377 2.91482879614e-05 0.0 0.0 0.0
250 1 4.578510885245903 19.348459016393445 6.36554520175e-05 0.0 0.0 0.0
251 1 7.092684590163935 19.05732327868853 8.77637515852e-05 0.0 0.0 0.0
252 1 9.938554098360656 18.815366557377054 4.47701831411e-05 0.0 0.0 0.0
253 1 12.620123278688526 18.239659016393446 7.77830467393e-05 0.0 0.0 0.0
254 1 15.253725245901641 18.124588196721312 9.39213255131e-05 0.0 0.0 0.0
255 1 17.726207868852462 18.304944918032792 6.87397787189e-05 0.0 0.0 0.0
256 1 20.403687213114758 19.151339016393443 3.26060474501e-05 0.0 0.0 0.0
257 1 23.221230819672133 17.965791475409837 9.42280216601e-05 0.0 0.0 0.0
258 1 26.80155409836066 17.956400000000002 8.24455430016e-05 0.0 0.0 0.0
259 1 28.312672786885248 17.667485901639346 9.32340790579e-05 0.0 0.0 0.0
260 1 31.758637377049183 19.28322360655738 8.29386793578e-05 0.0 0.0 0.0
261 1 35.45655606557377 19.374967213114758 1.65888903454e-05 0.0 0.0 0.0
262 1 36.990446557377055 19.49715737704918 6.89616753648e-05 0.0 0.0 0.0
263 1 40.25767016393443 19.878067540983608 7.83700436521e-05 0.0 0.0 0.0
264 1 41.76136655737705 19.71240393442623 5.63216116739e-05 0.0 0.0 0.0
265 1 45.53052918032787 18.978707540983606 3.79462831636e-05 0.0 0.0 0.0
266 1 46.78242295081967 18.097676065573772 6.59831918706e-05 0.0 0.0 0.0
267 1 50.4366662295082 19.06833049180328 9.6251613018e-05 0.0 0.0 0.0
268 1 53.098695081967215 19.203598032786886 5.06084878837e-05 0.0 0.0 0.0
269 1 55.96057049180329 19.461964590163937 6.94647260038e-05 0.0 0.0 0.0
270 1 57.50309508196722 19.395517377049185 3.18275672015e-06 0.0 0.0 0.0
271 1 60.38819672131148 18.894840655737706 4.11300082553e-05 0.0 0.0 0.0
272 1 63.10768524590165 19.329322622950823 2.27748709986e-05 0.0 0.0 0.0
273 1 65.83878688524591 19.70861704918033 3.00001398589e-05 0.0 0.0 0.0
274 1 68.64865573770493 19.81369049180328 6.78967217425e-05 0.0 0.0 0.0
275 1 71.44893114754099 20.197377704918036 6.41733027877e-05 0.0 0.0 0.0
276 1 73.68066885245902 21.703396721311478 9.90378728715e-05 0.0 0.0 0.0
277 1 78.12798688524592 19.233842622950824 7.83586914745e-05 0.0 0.0 0.0
278 1 79.8644 20.56293836065574 5.1725858398e-05 0.0 0.0 0.0
279 1 82.59651147540984 20.169556721311476 2.55487455082e-05 0.0 0.0 0.0
280 1 1.1606045901639346 22.342723934426232 3.50416907915e-05 0.0 0.0 0.0
281 1 3.6607011803278695 22.063150819672135 3.98365209955e-05 0.0 0.0 0.0
282 1 6.174794098360657 21.594233442622954 2.14006738917e-05 0.0 0.0 0.0
283 1 8.838135737704919 20.971921967213117 9.5915916863e-05 0.0 0.0 0.0
284 1 11.650377704918034 20.69608524590164 9.65641561933e-05 0.0 0.0 0.0
285 1 14.338712786885248 20.446756721311477 2.01098585922e-05 0.0 0.0 0.0
286 1 16.601300983606556 21.96469180327869 8.0476335356e-05 0.0 0.0 0.0
287 1 20.369251803278694 20.697902950819675 4.75719025013e-05 0.0 0.0 0.0
288 1 21.844420327868853 20.33779540983607 4.31339834198e-05 0.0 0.0 0.0
289 1 24.372797377049185 20.3896 2.69361464469e-05 0.0 0.0 0.0
290 1 26.96938885245902 20.484474098360657 6.5908358981e-05 0.0 0.0 0.0
291 1 29.695390819672134 21.104311475409837 3.01122206308e-05 0.0 0.0 0.0
292 1 32.26572655737705 21.47391147540984 4.62874952471e-05 0.0 0.0 0.0
293 1 34.75456852459016 22.144594098360656 4.4720220923e-05 0.0 0.0 0.0
294 1 37.48794229508197 22.40280918032787 4.77010388887e-05 0.0 0.0 0.0
295 1 40.165926557377055 22.23578229508197 5.20351919956e-05 0.0 0.0 0.0
296 1 42.80316393442623 21.877189508196725 5.14325625543e-05 0.0 0.0 0.0
297 1 45.08014229508197 22.953220327868856 9.58909789439e-05 0.0 0.0 0.0
298 1 48.90504786885246 21.17479803278689 4.55086905584e-05 0.0 0.0 0.0
299 1 51.39459672131148 21.36651540983607 6.02653571476e-05 0.0 0.0 0.0
300 1 53.85203278688525 22.339088524590167 4.81588667924e-05 0.0 0.0 0.0
301 1 56.06357377049181 22.331363278688528 4.06500139064e-05 0.0 0.0 0.0
302 1 58.77952786885247 21.221755409836067 3.44786595355e-05 0.0 0.0 0.0
303 1 61.48437377049181 21.46765049180328 5.59425392381e-05 0.0 0.0 0.0
304 1 64.78552786885247 21.82765704918033 3.79034545401e-05 0.0 0.0 0.0
305 1 67.33182950819673 21.97741573770492 4.32671265533e-05 0.0 0.0 0.0
306 1 69.78775081967214 22.088800655737707 1.39549872378e-05 0.0 0.0 0.0
307 1 72.54712786885247 22.706820327868854 6.37200003307e-05 0.0 0.0 0.0
308 1 75.09948852459017 22.239165245901642 4.96820890606e-05 0.0 0.0 0.0
309 1 77.48068196721312 23.49747147540984 7.98824777525e-05 0.0 0.0 0.0
310 1 80.36224918032788 21.99564327868853 6.43102506842e-05 0.0 0.0 0.0
311 1 1.425075606557377 23.846066885245904 5.59788498033e-05 0.0 0.0 0.0
312 1 4.8838499672131155 24.209052459016394 6.64591084128e-06 0.0 0.0 0.0
313 1 8.597693770491803 23.1656393442623 6.26306960452e-05 0.0 0.0 0.0
314 1 10.113255737704918 22.926712131147543 8.00910050563e-05 0.0 0.0 0.0
315 1 12.795077377049182 22.818053770491804 5.7952138894e-05 0.0 0.0 0.0
316 1 15.554555409836068 23.147967213114757 9.57858063561e-05 0.0 0.0 0.0
317 1 18.23556918032787 23.633698360655742 1.94175387391e-05 0.0 0.0 0.0
318 1 20.710929836065574 23.410827540983608 1.26309811503e-05 0.0 0.0 0.0
319 1 23.079803278688527 22.70273049180328 5.26188094773e-05 0.0 0.0 0.0
320 1 25.734510819672135 22.72903672131148 9.98050583837e-05 0.0 0.0 0.0
321 1 28.018356065573776 23.010629508196725 6.51142227486e-05 0.0 0.0 0.0
322 1 31.507996065573774 23.503076065573772 4.1280993992e-05 0.0 0.0 0.0
323 1 32.95180918032788 24.047327213114755 4.02878603512e-05 0.0 0.0 0.0
324 1 35.17890163934427 23.64712918032787 9.19955638669e-05 0.0 0.0 0.0
325 1 39.009613770491804 24.540581639344264 9.35237267207e-06 0.0 0.0 0.0
326 1 41.95545704918033 24.30316918032787 6.04486359911e-05 0.0 0.0 0.0
327 1 44.667220327868854 24.408545573770493 2.79085964292e-05 0.0 0.0 0.0
328 1 46.58181901639345 22.952059016393445 2.43118845002e-05 0.0 0.0 0.0
329 1 50.097411803278696 23.678131147540988 3.32199981196e-05 0.0 0.0 0.0
330 1 52.38676065573771 24.04874098360656 7.42339642602e-05 0.0 0.0 0.0
331 1 54.08580983606558 25.931327868852463 5.41521389566e-05 0.0 0.0 0.0
332 1 57.89996065573771 23.71226360655738 8.90246394808e-05 0.0 0.0 0.0
333 1 60.3952655737705 24.625458360655742 4.98705227873e-05 0.0 0.0 0.0
334 1 62.35687213114755 22.772964590163937 3.86034060058e-05 0.0 0.0 0.0
335 1 66.21343606557377 24.328415081967215 6.07220297112e-05 0.0 0.0 0.0
336 1 69.25758688524591 24.30897573770492 1.20028085186e-05 0.0 0.0 0.0
337 1 70.78041967213115 24.40440524590164 9.65451650212e-05 0.0 0.0 0.0
338 1 73.0848655737705 24.1187731147541 6.36663238265e-05 0.0 0.0 0.0
339 1 76.38803934426231 24.601828196721314 7.90243005989e-05 0.0 0.0 0.0
340 1 78.93787540983607 24.00486360655738 6.30435846504e-05 0.0 0.0 0.0
341 1 81.79116721311476 24.1581062295082 1.0755307999e-05 0.0 0.0 0.0
342 1 0.45760822295081977 26.569746229508198 8.30984816395e-05 0.0 0.0 0.0
343 1 3.2003472131147546 26.334757377049183 9.65312355102e-06 0.0 0.0 0.0
344 1 5.345062295081968 25.66624590163935 4.60476726748e-05 0.0 0.0 0.0
345 1 8.794460327868853 25.79767606557377 3.54617608754e-05 0.0 0.0 0.0
346 1 11.490874098360656 25.147341639344265 7.44326541121e-05 0.0 0.0 0.0
347 1 13.730135081967214 25.13360786885246 2.9891018301e-05 0.0 0.0 0.0
348 1 15.689015081967213 24.679636065573774 9.63267081662e-05 0.0 0.0 0.0
349 1 18.610117377049182 27.2828924590164 9.22205092233e-05 0.0 0.0 0.0
350 1 20.699670163934428 24.960925901639346 4.06632548379e-05 0.0 0.0 0.0
351 1 24.474790819672133 24.932600000000004 5.16066844257e-05 0.0 0.0 0.0
352 1 26.34717836065574 26.666640000000005 4.68590840216e-05 0.0 0.0 0.0
353 1 28.66712524590164 25.858771147540985 3.15360748253e-05 0.0 0.0 0.0
354 1 31.313602622950825 26.94843475409836 5.64419191194e-05 0.0 0.0 0.0
355 1 34.31155344262296 26.496432131147543 7.32545845453e-06 0.0 0.0 0.0
356 1 37.60730491803279 26.581510819672136 2.44139083706e-06 0.0 0.0 0.0
357 1 40.555571803278696 26.345108196721313 1.59355549694e-05 0.0 0.0 0.0
358 1 43.529337049180334 26.611906885245904 1.9465449601e-06 0.0 0.0 0.0
359 1 47.594280655737705 24.959057704918035 2.66756010955e-05 0.0 0.0 0.0
360 1 48.491166557377056 27.285720000000005 5.28732052106e-05 0.0 0.0 0.0
361 1 51.33501639344263 26.36303278688525 3.74897800422e-07 0.0 0.0 0.0
362 1 55.608137704918036 25.72779540983607 2.91895652347e-05 0.0 0.0 0.0
363 1 57.55510163934427 26.29209180327869 2.34870861976e-05 0.0 0.0 0.0
364 1 60.16704262295083 26.135213770491806 5.74418124171e-06 0.0 0.0 0.0
365 1 62.44573770491804 25.669527868852462 9.7760091472e-05 0.0 0.0 0.0
366 1 64.45581639344263 27.24113573770492 5.00815341142e-05 0.0 0.0 0.0
367 1 67.33283934426231 27.01781049180328 6.46846003648e-05 0.0 0.0 0.0
368 1 69.77563278688525 27.063404590163938 4.25956892532e-05 0.0 0.0 0.0
369 1 72.42695737704919 26.735763278688527 8.22390288982e-05 0.0 0.0 0.0
370 1 74.70363278688525 27.79508131147541 1.96020252402e-05 0.0 0.0 0.0
371 1 77.62205901639345 27.189836065573775 9.3858258672e-05 0.0 0.0 0.0
372 1 80.41980983606558 27.888794098360655 5.8651798476e-05 0.0 0.0 0.0
373 1 2.262461967213115 28.669346885245904 9.41406704968e-05 0.0 0.0 0.0
374 1 5.011589180327869 28.499542950819674 7.14247770736e-05 0.0 0.0 0.0
375 1 7.568822295081968 28.3630131147541 2.77638109952e-05 0.0 0.0 0.0
376 1 10.11012524590164 27.562011147540986 6.58659620627e-05 0.0 0.0 0.0
377 1 12.533075409836066 27.72823016393443 2.01751976757e-05 0.0 0.0 0.0
378 1 14.848124590163936 27.56564655737705 5.19912850664e-05 0.0 0.0 0.0
379 1 17.32510098360656 28.09707278688525 2.58372626204e-05 0.0 0.0 0.0
380 1 20.136080655737707 27.372262950819675 4.81690639866e-05 0.0 0.0 0.0
381 1 22.80714754098361 26.75989836065574 3.0131192813e-05 0.0 0.0 0.0
382 1 25.415150163934427 27.873545573770492 7.61100893783e-05 0.0 0.0 0.0
383 1 27.97382229508197 28.657683278688527 2.27496978352e-05 0.0 0.0 0.0
384 1 30.77091672131148 28.381745573770495 9.26019556862e-05 0.0 0.0 0.0
385 1 33.41365770491804 29.474438688524593 3.66965610979e-05 0.0 0.0 0.0
386 1 35.35668327868853 27.706821639344266 2.30744965703e-05 0.0 0.0 0.0
387 1 39.10236721311475 28.361447868852462 1.71838911172e-05 0.0 0.0 0.0
388 1 41.87436721311476 28.299443934426233 7.25341104997e-05 0.0 0.0 0.0
389 1 44.53336655737706 27.809572459016394 9.4212770804e-05 0.0 0.0 0.0
390 1 47.43452459016394 29.720889180327873 3.44445936033e-05 0.0 0.0 0.0
391 1 50.32401901639344 28.698985573770496 4.63746243287e-05 0.0 0.0 0.0
392 1 53.176957377049185 28.3130262295082 6.36140101722e-05 0.0 0.0 0.0
393 1 55.87978360655739 28.56472786885246 4.72167521993e-05 0.0 0.0 0.0
394 1 58.59068852459017 28.48161836065574 6.98127134229e-05 0.0 0.0 0.0
395 1 61.33188852459017 28.416332459016395 1.74672690899e-05 0.0 0.0 0.0
396 1 63.77417704918033 28.620167868852462 2.9335461754e-05 0.0 0.0 0.0
397 1 66.26645245901639 29.107615737704922 5.6366343753e-05 0.0 0.0 0.0
398 1 68.79457704918033 29.519780327868855 8.02643718453e-05 0.0 0.0 0.0
399 1 71.29695081967215 29.358358032786885 7.94774039577e-05 0.0 0.0 0.0
400 1 74.09419672131149 29.21657704918033 5.85341238162e-05 0.0 0.0 0.0
401 1 76.86670163934427 29.239247868852463 3.08485077969e-05 0.0 0.0 0.0
402 1 79.76493114754099 29.28963868852459 1.04315846042e-05 0.0 0.0 0.0
403 1 82.34910163934427 29.061718688524593 5.23860514063e-05 0.0 0.0 0.0
404 1 1.1708645245901639 31.192775737704924 1.99324818366e-05 0.0 0.0 0.0
405 1 3.9510492459016398 30.799848524590164 5.71760153279e-06 0.0 0.0 0.0
406 1 6.914751475409837 30.756476065573775 6.75351065228e-05 0.0 0.0 0.0
407 1 10.192628852459016 29.666156065573773 7.09591828873e-05 0.0 0.0 0.0
408 1 11.442200000000001 31.57479672131148 5.78524033918e-05 0.0 0.0 0.0
409 1 14.017180983606558 30.175113442622955 5.67585704158e-07 0.0 0.0 0.0
410 1 16.846186229508195 31.031706885245903 3.45660329531e-05 0.0 0.0 0.0
411 1 18.34109704918033 30.67841573770492 8.59413399151e-05 0.0 0.0 0.0
412 1 21.265986229508197 30.897853114754103 3.16770500068e-05 0.0 0.0 0.0