ITEM: TIMESTEP
0
ITEM: NUMBER OF ATOMS
2232
ITEM: BOX BOUNDS xy xz yz pp pp pp
0.0 82.68810555352132 0
0.0 83.16 0
-10.0 10.0 0
ITEM: ATOMS id type x y z vx vy vz
1 1 1.7638251147540986 0.5673259016393443 3.33082511617e-05 0.0 0.0 0.0
2 1 3.9942399344262296 0.26974942950819675 1.97226099473e-05 0.0 0.0 0.0
3 1 6.221145573770492 1.9771277377049181 8.64035465502e-05 0.0 0.0 0.0
4 1 9.045202622950821 2.0453421639344262 9.82623760193e-06 0.0 0.0 0.0
5 1 11.845932459016394 2.0397981639344263 1.68167437159e-05 0.0 0.0 0.0
6 1 14.34860918032787 1.7399222950819673 8.50443826086e-05 0.0 0.0 0.0
7 1 16.966710163934426 1.1768932459016395 4.73582282411e-05 0.0 0.0 0.0
8 1 19.643634098360657 0.8041324590163935 5.42927112804e-05 0.0 0.0 0.0
9 1 22.441031475409837 0.5822159344262295 2.02608602468e-05 0.0 0.0 0.0
10 1 26.630437377049184 0.809928918032787 1.33178674531e-05 0.0 0.0 0.0
11 1 29.420765901639346 0.36055843278688526 7.81876041902e-05 0.0 0.0 0.0
12 1 31.975752131147544 83.00600000000001 8.29601428714e-05 0.0 0.0 0.0
13 1 33.524335737704924 83.10243934426231 9.54435997994e-05 0.0 0.0 0.0
14 1 36.12299737704918 1.0200253114754099 2.13633434433e-05 0.0 0.0 0.0
15 1 38.968614426229514 1.3760278688524592 9.65564661531e-05 0.0 0.0 0.0
16 1 42.8437593442623 0.3941698163934427 6.95244955435e-05 0.0 0.0 0.0
17 1 44.42667737704918 0.35204753442622955 8.94733176038e-05 0.0 0.0 0.0
18 1 47.4682531147541 0.8291158032786886 7.90901885895e-06 0.0 0.0 0.0
19 1 48.98462295081968 0.49228447868852465 3.12268714883e-05 0.0 0.0 0.0
20 1 51.904563934426236 0.40560520000000005 3.97901837339e-05 0.0 0.0 0.0
21 1 54.762904918032795 0.4313055278688525 8.28399027526e-05 0.0 0.0 0.0
22 1 57.50713442622952 0.7268295081967214 3.6876807724e-05 0.0 0.0 0.0
23 1 60.16300327868853 0.7867430819672132 6.6886053201e-06 0.0 0.0 0.0
24 1 62.84411803278689 0.7766851147540985 6.00419057373e-05 0.0 0.0 0.0
25 1 65.61712786885246 0.8641066229508197 6.72920704589e-05 0.0 0.0 0.0
26 1 69.39240000000001 0.5337791475409837 5.67568620021e-05 0.0 0.0 0.0
27 1 70.94098360655738 0.6298196065573771 3.29171799579e-05 0.0 0.0 0.0
28 1 73.60139672131149 1.0478008524590166 7.43321003956e-05 0.0 0.0 0.0
29 1 76.44761967213115 1.0921831475409838 8.91521878174e-05 0.0 0.0 0.0
30 1 79.37513442622952 1.0944754754098363 8.90281710261e-05 0.0 0.0 0.0
31 1 0.2179998754098361 0.6538638032786886 4.07867850696e-05 0.0 0.0 0.0
32 1 0.3858326098360656 3.3904892459016396 9.65707361281e-05 0.0 0.0 0.0
33 1 3.769440327868853 2.8781741639344265 8.34345708552e-05 0.0 0.0 0.0
34 1 5.291742950819672 3.172288918032787 4.23101361858e-05 0.0 0.0 0.0
35 1 7.649104262295083 4.99739593442623 3.91481996843e-05 0.0 0.0 0.0
36 1 10.52249180327869 4.172768852459017 7.22665227495e-05 0.0 0.0 0.0
37 1 13.405624262295083 4.265648524590165 9.46024303857e-05 0.0 0.0 0.0
38 1 16.44947213114754 3.615864459016394 9.98902671164e-05 0.0 0.0 0.0
39 1 18.927205901639347 4.325486360655739 2.8291925592e-05 0.0 0.0 0.0
40 1 21.40534360655738 2.762972065573771 9.38728646144e-05 0.0 0.0 0.0
41 1 23.77174295081967 4.136096655737705 4.49482318702e-05 0.0 0.0 0.0
42 1 26.330112131147544 3.2000644590163936 5.34268566066e-05 0.0 0.0 0.0
43 1 28.917362622950822 2.5627468196721312 6.45143319156e-05 0.0 0.0 0.0
44 1 31.40999147540984 2.389883081967213 7.20966974479e-05 0.0 0.0 0.0
45 1 34.219506885245906 2.6228977049180333 3.87022265098e-05 0.0 0.0 0.0
46 1 37.664158688524594 4.439789704918033 1.93912734023e-06 0.0 0.0 0.0
47 1 40.417325245901644 3.4523871475409837 7.16044480376e-05 0.0 0.0 0.0
48 1 43.024419016393445 2.922016196721312 8.8336426001e-05 0.0 0.0 0.0
49 1 46.03115540983607 3.2731160000000004 2.14531524461e-06 0.0 0.0 0.0
50 1 48.530196721311476 3.033734360655738 6.33907865393e-05 0.0 0.0 0.0
51 1 50.9048262295082 3.7969886557377053 3.45129592611e-05 0.0 0.0 0.0
52 1 53.54453770491804 2.60745731147541 2.33989398611e-05 0.0 0.0 0.0
53 1 56.265036065573774 2.821148721311476 2.71804450439e-05 0.0 0.0 0.0
54 1 58.75175737704918 3.0847714754098363 2.20512227092e-05 0.0 0.0 0.0
55 1 61.31118688524591 3.0763090491803284 7.64850399777e-05 0.0 0.0 0.0
56 1 63.96251147540984 3.0176072786885246 6.22523079483e-05 0.0 0.0 0.0
57 1 66.61989508196723 3.2439519344262298 1.58328071986e-05 0.0 0.0 0.0
58 1 69.05561967213114 3.1229685245901644 5.41618926976e-05 0.0 0.0 0.0
59 1 71.79631475409836 3.155439803278689 9.05277394991e-05 0.0 0.0 0.0
60 1 74.9985049180328 3.2598972459016395 9.76307272197e-05 0.0 0.0 0.0
61 1 77.78817704918033 3.154667278688525 3.43424258033e-05 0.0 0.0 0.0
62 1 80.45111475409837 3.444066098360656 1.62901605252e-05 0.0 0.0 0.0
63 1 1.5885125245901641 5.781210491803279 2.08348514473e-05 0.0 0.0 0.0
64 1 4.188108262295082 5.666291147540985 7.70643139526e-05 0.0 0.0 0.0
65 1 7.0932904918032795 6.420234754098361 6.88819461616e-07 0.0 0.0 0.0
66 1 9.569408524590166 6.3539895081967215 9.00236414509e-08 0.0 0.0 0.0
67 1 12.282131147540985 6.2058465573770505 4.29675638652e-05 0.0 0.0 0.0
68 1 14.494429508196722 5.356321967213115 2.07850135314e-05 0.0 0.0 0.0
69 1 18.402646557377054 5.773131803278689 5.65653726607e-05 0.0 0.0 0.0
70 1 20.938142950819675 5.385657704918033 7.46224018215e-05 0.0 0.0 0.0
71 1 22.824971147540985 6.4671921311475415 3.0568273671e-05 0.0 0.0 0.0
72 1 26.611200000000004 5.0987632786885255 9.15993878066e-05 0.0 0.0 0.0
73 1 28.131306229508198 5.07816262295082 6.85186546336e-05 0.0 0.0 0.0
74 1 30.475741639344264 4.910858032786886 3.66414633271e-05 0.0 0.0 0.0
75 1 33.074605245901644 4.656864065573771 9.04001181128e-05 0.0 0.0 0.0
76 1 35.218335737704926 3.8083038688524593 3.93312488058e-05 0.0 0.0 0.0
77 1 39.15033442622951 5.892040000000001 7.21788396263e-05 0.0 0.0 0.0
78 1 42.17191540983607 5.424788852459017 4.91897633053e-05 0.0 0.0 0.0
79 1 44.80915278688525 5.011503344262296 4.53744704298e-05 0.0 0.0 0.0
80 1 47.428415081967216 5.539203278688525 2.81709834681e-05 0.0 0.0 0.0
81 1 50.11988065573771 5.132845245901639 8.43877114031e-05 0.0 0.0 0.0
82 1 53.463750819672136 4.851393836065575 9.5195789968e-05 0.0 0.0 0.0
83 1 54.994157377049184 4.962172852459017 7.41651306872e-05 0.0 0.0 0.0
84 1 57.51016393442624 5.418780327868853 8.94076638593e-05 0.0 0.0 0.0
85 1 59.92771147540984 5.485934426229509 1.04183046227e-05 0.0 0.0 0.0
86 1 62.567927868852465 5.354352786885246 3.5981111002e-05 0.0 0.0 0.0
87 1 65.21622295081968 5.39964393442623 2.63456248712e-06 0.0 0.0 0.0
88 1 67.95540327868852 5.62564524590164 9.42033494304e-05 0.0 0.0 0.0
89 1 70.33154754098362 5.373186229508197 6.38389993761e-06 0.0 0.0 0.0
90 1 72.55015737704919 4.505939016393443 7.24041115768e-05 0.0 0.0 0.0
91 1 76.25171147540985 5.349758032786886 5.82101873497e-05 0.0 0.0 0.0
92 1 78.90808524590165 5.560106885245903 7.42672067753e-05 0.0 0.0 0.0
93 1 81.62959344262296 5.73228393442623 3.4316564186e-05 0.0 0.0 0.0
94 1 0.16284666885245902 8.056825573770492 3.86684295004e-05 0.0 0.0 0.0
95 1 2.9669084590163934 8.07156918032787 8.48390733595e-05 0.0 0.0 0.0
96 1 5.85508 8.068034754098361 6.49380831191e-05 0.0 0.0 0.0
97 1 9.361584262295084 8.484642622950819 8.51832563817e-05 0.0 0.0 0.0
98 1 10.912591475409837 8.465102295081968 3.38025491686e-05 0.0 0.0 0.0
99 1 13.765529836065575 8.230365901639345 7.42310001e-05 0.0 0.0 0.0
100 1 16.634120655737707 7.900452459016394 5.07038802269e-05 0.0 0.0 0.0
101 1 19.353558688524593 7.960588196721313 1.58492925791e-05 0.0 0.0 0.0
102 1 22.345803934426232 7.905653114754099 6.1306912525e-05 0.0 0.0 0.0
103 1 24.847723278688527 7.990479344262296 7.20072384916e-05 0.0 0.0 0.0
104 1 27.197056393442626 8.982340327868853 8.04654825037e-05 0.0 0.0 0.0
105 1 29.52775803278689 7.528933770491804 9.0227643355e-05 0.0 0.0 0.0
106 1 32.0483593442623 7.127675409836066 2.3704974418e-05 0.0 0.0 0.0
107 1 34.676962622950825 6.804729836065575 5.47845347359e-05 0.0 0.0 0.0
108 1 37.17246950819673 7.432140983606558 4.29502135836e-05 0.0 0.0 0.0
109 1 39.97193704918033 7.169432131147541 4.20013605111e-05 0.0 0.0 0.0
110 1 43.673945573770496 7.453448524590164 8.61894412338e-05 0.0 0.0 0.0
111 1 46.00919147540984 7.537466885245903 7.13708075929e-06 0.0 0.0 0.0
112 1 48.467687868852465 7.530196065573771 7.34862998611e-05 0.0 0.0 0.0
113 1 50.88109508196722 7.699293114754099 8.21255502409e-05 0.0 0.0 0.0
114 1 53.35216393442624 7.5223193442622955 2.31541489583e-05 0.0 0.0 0.0
115 1 56.182734426229516 7.626382950819673 2.94131158973e-05 0.0 0.0 0.0
116 1 58.9128262295082 8.000628196721312 8.17550377391e-05 0.0 0.0 0.0
117 1 61.40358688524591 7.732112786885247 1.33688348336e-05 0.0 0.0 0.0
118 1 63.956452459016404 7.669755409836066 9.1858377829e-05 0.0 0.0 0.0
119 1 66.45478688524591 7.699040655737706 9.45833217777e-05 0.0 0.0 0.0
120 1 69.14650491803279 8.016179672131148 1.65850463888e-05 0.0 0.0 0.0
121 1 71.89275409836065 7.3973016393442625 2.01582886898e-05 0.0 0.0 0.0
122 1 74.58043278688525 7.394070163934427 7.32241522764e-05 0.0 0.0 0.0
123 1 77.23074754098361 7.70504918032787 8.99252193461e-05 0.0 0.0 0.0
124 1 80.07040655737705 7.865663606557377 9.14737288135e-05 0.0 0.0 0.0
125 1 1.4686904262295084 10.235243934426231 9.91267544924e-05 0.0 0.0 0.0
126 1 5.0209655081967215 10.004597377049182 2.00669212799e-05 0.0 0.0 0.0
127 1 6.433413114754099 10.56753049180328 5.19177291516e-05 0.0 0.0 0.0
128 1 9.261862950819673 11.059876065573771 6.17889869225e-05 0.0 0.0 0.0
129 1 12.208110163934426 10.507950163934426 7.27216103516e-05 0.0 0.0 0.0
130 1 15.029491147540986 10.220853770491804 3.85081034855e-06 0.0 0.0 0.0
131 1 18.48984590163935 10.158243934426231 3.2931428015e-05 0.0 0.0 0.0
132 1 20.136585573770493 9.286099016393445 5.86451433452e-06 0.0 0.0 0.0
133 1 23.69348065573771 10.271598032786887 2.99020332618e-05 0.0 0.0 0.0
134 1 26.311632131147544 10.213582950819674 3.29430203566e-06 0.0 0.0 0.0
135 1 28.550337704918036 10.359150819672132 2.05865539702e-05 0.0 0.0 0.0
136 1 30.95112196721312 9.716087213114754 9.63453445e-05 0.0 0.0 0.0
137 1 33.47328852459017 9.292814426229508 2.09036632954e-05 0.0 0.0 0.0
138 1 36.018580327868854 9.500133770491805 2.6631726908e-05 0.0 0.0 0.0
139 1 38.03512196721312 8.700949508196722 4.15614913165e-05 0.0 0.0 0.0
140 1 41.95949639344263 9.502052459016394 9.17113370743e-05 0.0 0.0 0.0
141 1 44.59966229508197 9.977533770491805 1.74549414677e-06 0.0 0.0 0.0
142 1 46.96217377049181 9.959861639344263 2.01006463826e-06 0.0 0.0 0.0
143 1 49.55149442622951 10.042112786885246 6.50656710754e-05 0.0 0.0 0.0
144 1 52.08078032786886 9.987228196721313 2.86917727294e-05 0.0 0.0 0.0
145 1 54.60587540983607 9.622222950819673 7.50858101641e-05 0.0 0.0 0.0
146 1 56.77399344262295 9.076558032786885 1.16419208112e-05 0.0 0.0 0.0
147 1 60.41546229508197 10.279727213114755 1.66626249219e-05 0.0 0.0 0.0
148 1 62.88047213114755 10.05125180327869 2.38189933196e-05 0.0 0.0 0.0
149 1 65.32932459016394 10.076447213114756 6.57550912763e-05 0.0 0.0 0.0
150 1 67.69284590163936 10.058320655737706 7.28399290811e-05 0.0 0.0 0.0
151 1 69.78118688524592 9.432626229508198 6.99252372711e-05 0.0 0.0 0.0
152 1 72.81473442622952 11.012110819672133 8.35945200932e-05 0.0 0.0 0.0
153 1 75.63116721311475 9.84908262295082 9.84213380283e-05 0.0 0.0 0.0
154 1 78.35217049180328 9.867562622950821 2.19049299253e-05 0.0 0.0 0.0
155 1 81.05651147540983 10.102652459016396 7.51431913766e-05 0.0 0.0 0.0
156 1 81.7931868852459 11.43639344262295 8.1707559278e-05 0.0 0.0 0.0
157 1 2.476673442622951 12.546556721311477 6.29381454471e-05 0.0 0.0 0.0
158 1 4.913660327868853 12.635927213114755 2.34789978077e-05 0.0 0.0 0.0
159 1 6.973271475409837 12.008718032786886 6.36769822947e-05 0.0 0.0 0.0
160 1 10.79696524590164 12.755794754098362 7.15249018631e-05 0.0 0.0 0.0
161 1 13.745787540983608 12.550444590163936 1.21674012453e-05 0.0 0.0 0.0
162 1 16.213675409836068 12.566955409836066 2.17822180809e-05 0.0 0.0 0.0
163 1 17.799219016393444 11.510060983606559 9.84487044829e-05 0.0 0.0 0.0
164 1 22.22613836065574 12.167918688524592 7.48958924172e-05 0.0 0.0 0.0
165 1 24.812328524590168 12.498185573770494 5.81327621229e-05 0.0 0.0 0.0
166 1 26.953635409836068 13.874137704918034 7.02659878369e-05 0.0 0.0 0.0
167 1 29.685645901639347 12.408158688524592 8.38695620107e-05 0.0 0.0 0.0
168 1 32.48884983606558 11.865624262295084 1.73532958268e-05 0.0 0.0 0.0
169 1 35.24236983606558 12.653902295081968 9.93054533792e-05 0.0 0.0 0.0
170 1 38.545796065573775 11.27749573770492 7.31782604995e-05 0.0 0.0 0.0
171 1 40.10129704918033 11.344599344262296 2.15944900476e-05 0.0 0.0 0.0
172 1 42.83628655737705 11.942422295081968 9.56850425702e-05 0.0 0.0 0.0
173 1 45.63832918032788 12.484300327868853 1.50385153087e-05 0.0 0.0 0.0
174 1 48.327472131147545 12.314445901639345 4.80650609032e-05 0.0 0.0 0.0
175 1 51.0972 12.347619016393443 8.42885163848e-05 0.0 0.0 0.0
176 1 53.860111475409845 12.069156721311476 1.35795169083e-06 0.0 0.0 0.0
177 1 56.065593442622955 13.1978 8.93840749944e-05 0.0 0.0 0.0
178 1 58.883036065573776 12.408259672131148 2.00419542642e-06 0.0 0.0 0.0
179 1 62.60226229508197 12.361201311475412 7.73982603861e-06 0.0 0.0 0.0
180 1 64.1564 12.497226229508199 8.86129152939e-05 0.0 0.0 0.0
181 1 66.82640655737706 12.51984655737705 2.88629522482e-05 0.0 0.0 0.0
182 1 69.21769836065575 13.62480918032787 8.17442620643e-05 0.0 0.0 0.0
183 1 72.09219672131148 12.424619016393443 5.01631665047e-05 0.0 0.0 0.0
184 1 74.71322622950821 12.157416393442624 4.27049202498e-05 0.0 0.0 0.0
185 1 77.3736393442623 12.05900786885246 9.91374872908e-05 0.0 0.0 0.0
186 1 79.75432786885247 12.190185573770494 5.34121838806e-05 0.0 0.0 0.0
187 1 1.2007102295081968 14.493066229508198 9.47421285756e-05 0.0 0.0 0.0
188 1 3.692006098360656 14.979352786885247 5.73947231566e-05 0.0 0.0 0.0
189 1 6.317736393442623 14.898111475409838 3.17088665703e-05 0.0 0.0 0.0
190 1 8.377751475409838 13.93896918032787 7.7811027496e-05 0.0 0.0 0.0
191 1 11.748533770491804 13.933263606557377 6.87574847848e-05 0.0 0.0 0.0
192 1 15.418227540983608 14.874077377049183 8.60075487365e-06 0.0 0.0 0.0
193 1 17.21265573770492 13.700041967213116 9.19079127017e-05 0.0 0.0 0.0
194 1 20.76611737704918 13.717865573770494 4.64635686897e-05 0.0 0.0 0.0
195 1 23.156702295081967 14.682612459016395 1.61738370792e-06 0.0 0.0 0.0
196 1 25.843421639344264 14.979100327868853 6.72964445997e-05 0.0 0.0 0.0
197 1 29.093175081967214 14.721036721311478 1.79334976408e-05 0.0 0.0 0.0
198 1 30.867760000000004 15.65993180327869 6.46010435913e-06 0.0 0.0 0.0
199 1 35.258880655737705 14.1758262295082 7.7509504467e-05 0.0 0.0 0.0
200 1 36.75177180327869 14.419701639344263 6.50986437128e-05 0.0 0.0 0.0
201 1 39.01971213114755 14.176785573770493 8.58253454922e-05 0.0 0.0 0.0
202 1 41.66053442622951 13.818293770491804 5.71444874288e-05 0.0 0.0 0.0
203 1 44.049200655737714 15.347135081967213 1.4526502367e-05 0.0 0.0 0.0
204 1 47.98831868852459 14.403948196721313 8.21716607413e-05 0.0 0.0 0.0
205 1 49.54770754098361 14.498418360655739 5.93860627855e-05 0.0 0.0 0.0
206 1 52.330714754098366 14.379257704918034 2.93827927817e-05 0.0 0.0 0.0
207 1 55.15724590163935 14.452470819672133 3.22645791019e-05 0.0 0.0 0.0
208 1 57.542983606557385 14.844792131147543 2.23745785023e-05 0.0 0.0 0.0
209 1 59.97012459016394 14.95733836065574 4.38356204425e-05 0.0 0.0 0.0
210 1 62.42907540983607 14.855496393442625 1.18210296015e-06 0.0 0.0 0.0
211 1 65.29448524590165 14.930426229508198 7.18993057946e-05 0.0 0.0 0.0
212 1 68.58049180327869 15.098866885245904 1.86836864625e-05 0.0 0.0 0.0
213 1 71.02278032786886 14.865594754098362 4.82405394406e-05 0.0 0.0 0.0
214 1 74.49661639344264 14.229347540983607 2.35631885823e-05 0.0 0.0 0.0
215 1 76.03207213114754 14.350325901639346 5.10533513826e-05 0.0 0.0 0.0
216 1 78.83487213114755 14.583093114754101 4.30562874913e-05 0.0 0.0 0.0
217 1 81.4084393442623 14.32275737704918 2.53179601169e-05 0.0 0.0 0.0
218 1 82.66871475409837 16.813619016393446 5.43226045397e-05 0.0 0.0 0.0
219 1 2.60345331147541 17.05522229508197 8.14642914469e-07 0.0 0.0 0.0
220 1 5.328702950819673 18.01239540983607 3.65329762182e-05 0.0 0.0 0.0
221 1 8.187195409836066 16.89708196721312 4.88985295841e-05 0.0 0.0 0.0
222 1 11.05295868852459 16.657801311475414 8.48966965307e-05 0.0 0.0 0.0
223 1 13.950834754098361 16.865575081967215 3.01270673752e-06 0.0 0.0 0.0
224 1 17.93372918032787 16.310316721311477 8.64007564477e-05 0.0 0.0 0.0
225 1 19.393750163934428 15.76470229508197 9.22872326719e-05 0.0 0.0 0.0
226 1 21.461490491803282 17.811539016393443 8.93031345024e-05 0.0 0.0 0.0
227 1 24.27898360655738 17.156306885245904 4.0392462897e-05 0.0 0.0 0.0
228 1 26.616804590163937 16.28704 8.14595529242e-05 0.0 0.0 0.0
229 1 30.087762622950823 16.957924590163937 3.00831130002e-05 0.0 0.0 0.0
230 1 32.00468393442623 16.641946885245904 4.69099074857e-05 0.0 0.0 0.0
231 1 35.34496918032787 16.978323278688528 2.81139808824e-05 0.0 0.0 0.0
232 1 38.06647737704919 16.854062950819674 4.49919490799e-05 0.0 0.0 0.0
233 1 40.58672524590165 16.331119344262294 9.13943398903e-05 0.0 0.0 0.0
234 1 43.134945573770494 16.586910819672134 9.19356471034e-05 0.0 0.0 0.0
235 1 45.49993114754099 17.152419016393445 9.81302792972e-05 0.0 0.0 0.0
236 1 48.034316721311484 16.92621573770492 9.97468146514e-05 0.0 0.0 0.0
237 1 51.678360655737706 16.504407213114757 8.71827711566e-05 0.0 0.0 0.0
238 1 53.22896393442624 16.483756065573772 5.58489847128e-05 0.0 0.0 0.0
239 1 55.88281311475411 17.07334885245902 2.11067909208e-05 0.0 0.0 0.0
240 1 58.61139016393443 17.358829508196724 2.15460503564e-05 0.0 0.0 0.0
241 1 61.28392131147541 17.342773114754102 1.56862874936e-05 0.0 0.0 0.0
242 1 63.91605901639345 17.010537049180332 7.54695149761e-05 0.0 0.0 0.0
243 1 66.0927606557377 16.28704 9.43093738411e-05 0.0 0.0 0.0
244 1 69.57568524590164 17.386347540983607 4.5912289866e-05 0.0 0.0 0.0
245 1 71.98161967213116 17.24158754098361 5.4746669392e-05 0.0 0.0 0.0
246 1 74.7404918032787 16.736720000000002 8.57398004907e-05 0.0 0.0 0.0
247 1 77.52360000000002 16.618518688524592 5.35822245061e-05 0.0 0.0 0.0
248 1 81.1393180327869 16.542629508196722 8.64417554447e-05 0.0 0.0 0.0
249 1 1.3672624918032787 19.344975081967213 3.85132180376e-05 0.0 0.0 0.0
250 1 4.44275862295082 19.286051147540984 9.99300074073e-05 0.0 0.0 0.0
251 1 7.198969836065574 19.31503344262295 8.04081984454e-06 0.0 0.0 0.0
252 1 10.699768524590164 18.61986229508197 8.31801058601e-05 0.0 0.0 0.0
253 1 12.245575081967214 18.802440655737705 3.04578067417e-05 0.0 0.0 0.0
254 1 14.872865573770493 19.0460131147541 6.74947870958e-05 0.0 0.0 0.0
255 1 17.64037180327869 18.81041836065574 9.30795770131e-05 0.0 0.0 0.0
256 1 20.5883862295082 19.12695147540984 9.75783221185e-05 0.0 0.0 0.0
257 1 23.347763278688525 19.623841311475413 3.63473308729e-05 0.0 0.0 0.0
258 1 26.689765245901643 18.845106229508197 1.08182991597e-05 0.0 0.0 0.0
259 1 28.23415803278689 18.802541639344263 9.27532898346e-05 0.0 0.0 0.0
260 1 31.097194754098364 19.446665573770492 4.25725982573e-05 0.0 0.0 0.0
261 1 34.67156 19.190268196721316 9.71747170358e-05 0.0 0.0 0.0
262 1 35.938853770491804 18.360485901639347 9.63450159165e-05 0.0 0.0 0.0
263 1 39.23152524590164 18.91776393442623 5.33477350817e-05 0.0 0.0 0.0
264 1 41.594996065573774 18.846822950819675 6.62420133737e-06 0.0 0.0 0.0
265 1 43.91221639344263 19.24767737704918 7.00281736669e-05 0.0 0.0 0.0
266 1 46.5513724590164 19.339875409836065 1.8570486292e-05 0.0 0.0 0.0
267 1 48.9326668852459 19.356941639344264 5.99205161322e-05 0.0 0.0 0.0
268 1 51.468314754098365 19.170222950819674 3.34117705247e-05 0.0 0.0 0.0
269 1 54.16558688524591 19.014859672131152 6.66688763925e-05 0.0 0.0 0.0
270 1 56.90123278688525 19.426973770491802 1.61483500383e-05 0.0 0.0 0.0
271 1 60.2372262295082 19.627476721311478 3.92240491358e-05 0.0 0.0 0.0
272 1 62.915816393442626 19.46262098360656 1.04014737301e-06 0.0 0.0 0.0
273 1 65.33992786885247 19.227682622950823 7.22838587626e-05 0.0 0.0 0.0
274 1 67.94379016393442 19.514678032786886 5.58295704959e-05 0.0 0.0 0.0
275 1 70.99349508196723 19.768853770491805 7.21504171822e-05 0.0 0.0 0.0
276 1 73.71500327868853 19.034702950819675 8.61175425548e-07 0.0 0.0 0.0
277 1 76.46731147540984 18.79542229508197 9.37790706227e-05 0.0 0.0 0.0
278 1 78.81921967213115 19.103321311475412 6.00907853435e-05 0.0 0.0 0.0
279 1 81.22262950819673 20.510729836065575 7.92228877334e-05 0.0 0.0 0.0
280 1 0.22152521311475412 21.863354754098363 8.00507683098e-05 0.0 0.0 0.0
281 1 2.967246754098361 21.254171147540983 7.32792065767e-05 0.0 0.0 0.0
282 1 5.770809180327869 21.53167409836066 7.10702011963e-06 0.0 0.0 0.0
283 1 8.45540786885246 21.400041967213117 4.09464160637e-05 0.0 0.0 0.0
284 1 11.096836065573772 21.301885901639345 6.164953278e-05 0.0 0.0 0.0
285 1 13.693629508196723 21.30335016393443 1.63673817771e-06 0.0 0.0 0.0
286 1 16.358283934426233 21.091940983606563 7.88590295351e-06 0.0 0.0 0.0
287 1 19.0360662295082 20.96990229508197 7.02884754511e-05 0.0 0.0 0.0
288 1 21.024281967213117 20.62332655737705 8.50418689361e-05 0.0 0.0 0.0
289 1 24.438790163934428 21.91778491803279 5.64847845014e-05 0.0 0.0 0.0
290 1 26.82114491803279 21.714656393442628 6.73584417526e-05 0.0 0.0 0.0
291 1 29.390420327868856 21.11925704918033 7.26430872887e-05 0.0 0.0 0.0
292 1 32.186252459016394 21.62599278688525 5.70579844388e-05 0.0 0.0 0.0
293 1 34.68292065573771 21.899809836065575 9.93534875385e-06 0.0 0.0 0.0
294 1 37.399935081967215 21.18131147540984 5.66751419211e-05 0.0 0.0 0.0
295 1 40.04419081967214 21.330767213114758 2.1019313028e-05 0.0 0.0 0.0
296 1 42.61972721311476 21.53399672131148 3.1574167745e-05 0.0 0.0 0.0
297 1 45.29791344262295 21.541923934426233 2.31519870987e-05 0.0 0.0 0.0
298 1 47.43018229508198 22.946201967213117 4.11282554741e-05 0.0 0.0 0.0
299 1 50.187388196721315 21.631041967213115 1.78454085253e-05 0.0 0.0 0.0
300 1 53.02295737704919 21.363940327868857 6.57246802343e-05 0.0 0.0 0.0
301 1 55.437475409836075 21.400445901639348 6.84245085269e-05 0.0 0.0 0.0
302 1 57.814629508196724 20.658923278688526 2.3473005528e-05 0.0 0.0 0.0
303 1 61.69038032786886 21.803118032786887 7.59567431684e-05 0.0 0.0 0.0
304 1 64.06551475409836 21.85542754098361 6.04124337002e-05 0.0 0.0 0.0
305 1 66.4972 21.73904393442623 6.39309671508e-05 0.0 0.0 0.0
306 1 68.6375475409836 20.943192131147544 1.63554951806e-05 0.0 0.0 0.0
307 1 73.62159344262295 20.965761967213115 5.2889888707e-05 0.0 0.0 0.0
308 1 75.13079344262296 21.03660196721312 7.13443590998e-05 0.0 0.0 0.0
309 1 77.59125901639345 21.41180655737705 5.30407223579e-08 0.0 0.0 0.0
310 1 80.27388852459018 21.763936393442627 1.88730937857e-05 0.0 0.0 0.0
311 1 2.4889278032786883 23.523676721311478 7.66095223946e-05 0.0 0.0 0.0
312 1 4.049038688524591 23.50898360655738 3.74138026925e-05 0.0 0.0 0.0
313 1 8.085504918032788 23.408252459016396 9.07745994747e-05 0.0 0.0 0.0
314 1 9.607075409836067 23.600676721311476 2.14918157317e-07 0.0 0.0 0.0
315 1 12.405937049180329 23.735944262295085 8.35737632534e-05 0.0 0.0 0.0
316 1 16.132636065573774 23.131658360655738 2.2399381562e-05 0.0 0.0 0.0
317 1 17.67076786885246 23.272379016393444 3.61819528285e-05 0.0 0.0 0.0
318 1 20.231611147540985 23.525847868852463 2.15107181187e-05 0.0 0.0 0.0
319 1 22.742921967213118 23.945737704918034 8.98785533325e-06 0.0 0.0 0.0
320 1 25.457967213114756 24.2850931147541 5.89423825936e-05 0.0 0.0 0.0
321 1 29.218798688524593 23.402950819672135 1.52346860191e-05 0.0 0.0 0.0
322 1 30.757233442622955 23.40855540983607 2.48551038891e-05 0.0 0.0 0.0
323 1 32.86647803278689 25.163448524590166 2.9564507447e-05 0.0 0.0 0.0
324 1 36.81771409836066 23.63910098360656 1.37036639969e-05 0.0 0.0 0.0
325 1 38.37260918032787 23.542560655737706 8.14170373677e-05 0.0 0.0 0.0
326 1 41.072254426229506 23.772803278688528 4.19214169377e-05 0.0 0.0 0.0
327 1 43.93958295081968 23.813853114754103 4.77904162105e-05 0.0 0.0 0.0
328 1 46.703403278688526 24.317003934426232 7.25336146697e-05 0.0 0.0 0.0
329 1 49.245110163934434 23.950685901639346 9.88778762875e-05 0.0 0.0 0.0
330 1 52.00201311475411 23.546902950819675 9.25655236958e-08 0.0 0.0 0.0
331 1 54.55184918032787 23.857225573770492 6.34137369512e-05 0.0 0.0 0.0
332 1 57.175908196721316 23.37154491803279 1.46658120427e-05 0.0 0.0 0.0
333 1 60.04889180327869 23.65399606557377 5.37342065073e-05 0.0 0.0 0.0
334 1 62.57196721311476 24.36052786885246 1.22293549695e-05 0.0 0.0 0.0
335 1 65.23793442622951 24.311954754098362 9.44891993533e-05 0.0 0.0 0.0
336 1 67.999331147541 23.93367016393443 9.45942242256e-05 0.0 0.0 0.0
337 1 71.8028786885246 23.591032786885247 3.55181501437e-05 0.0 0.0 0.0
338 1 73.33530491803279 23.648845901639348 4.37133569243e-05 0.0 0.0 0.0
339 1 76.10881967213116 23.60148459016394 7.27096711165e-05 0.0 0.0 0.0
340 1 78.06234754098362 24.96653049180328 2.61779490548e-05 0.0 0.0 0.0
341 1 81.03681967213116 24.09685967213115 1.443850104e-05 0.0 0.0 0.0
342 1 82.23953442622953 26.187371803278694 7.89767693364e-05 0.0 0.0 0.0
343 1 2.0046104262295086 25.915523934426233 8.94560523926e-05 0.0 0.0 0.0
344 1 5.827309508196722 25.698207213114756 7.01682442844e-05 0.0 0.0 0.0
345 1 7.338579672131148 25.904971147540987 3.28133786212e-05 0.0 0.0 0.0
346 1 11.02256262295082 25.820851803278693 4.24126597542e-05 0.0 0.0 0.0
347 1 13.253643934426231 25.05771868852459 6.35663463894e-05 0.0 0.0 0.0
348 1 17.175897704918036 25.67780852459017 4.83858124083e-05 0.0 0.0 0.0
349 1 18.725137704918037 25.820397377049183 7.79401312016e-05 0.0 0.0 0.0
350 1 21.13193049180328 26.196157377049182 9.07542386145e-05 0.0 0.0 0.0
351 1 23.680453770491805 26.373585573770495 9.53262848976e-05 0.0 0.0 0.0
352 1 27.458856393442627 26.293758032786887 8.08914430614e-05 0.0 0.0 0.0
353 1 28.975781639344262 26.104110819672133 1.74480865481e-05 0.0 0.0 0.0
354 1 31.760051147540988 26.273510819672136 5.87593302265e-05 0.0 0.0 0.0
355 1 34.347503606557375 26.75419278688525 4.99463177629e-05 0.0 0.0 0.0
356 1 36.912588196721316 26.222817049180332 7.77440782845e-05 0.0 0.0 0.0
357 1 39.76370885245902 25.96399606557377 1.11288907813e-05 0.0 0.0 0.0
358 1 42.70743147540984 25.870333770491804 6.01128882603e-05 0.0 0.0 0.0
359 1 45.12775606557378 27.291880000000003 5.40293392657e-05 0.0 0.0 0.0
360 1 49.16851409836066 26.082550819672132 6.07225564715e-05 0.0 0.0 0.0
361 1 50.7200262295082 25.849985573770493 9.26475472272e-06 0.0 0.0 0.0
362 1 53.214321311475416 27.035836065573775 9.34794406874e-05 0.0 0.0 0.0
363 1 56.98302950819672 25.612674098360657 4.55694484033e-05 0.0 0.0 0.0
364 1 58.538177049180334 25.535068196721312 8.89907942884e-05 0.0 0.0 0.0
365 1 60.24984918032787 27.567767213114756 6.21362824494e-07 0.0 0.0 0.0
366 1 63.92716721311476 26.779337704918035 9.79120165644e-06 0.0 0.0 0.0
367 1 66.79712131147542 26.390348852459017 9.20715534788e-05 0.0 0.0 0.0
368 1 69.9700262295082 26.23937836065574 1.12790266076e-05 0.0 0.0 0.0
369 1 71.49336393442623 26.058668196721314 8.14347711673e-05 0.0 0.0 0.0
370 1 74.27243278688526 25.84937967213115 4.87056368477e-05 0.0 0.0 0.0
371 1 76.99242622950821 26.137940327868854 7.0564834849e-05 0.0 0.0 0.0
372 1 79.55135081967214 26.350611803278692 8.75679321724e-05 0.0 0.0 0.0
373 1 0.9769356065573771 28.438346885245902 7.08565930045e-05 0.0 0.0 0.0
374 1 3.4358005901639346 28.2883862295082 6.06679670977e-05 0.0 0.0 0.0
375 1 5.855887868852459 27.828254426229513 3.35157366931e-06 0.0 0.0 0.0
376 1 8.47777573770492 26.97201442622951 2.81888551043e-05 0.0 0.0 0.0
377 1 12.270114098360658 27.91111147540984 5.57452336704e-05 0.0 0.0 0.0
378 1 14.82873573770492 28.85212721311476 8.03165477308e-05 0.0 0.0 0.0
379 1 17.245677377049184 29.02763672131148 3.60494408942e-05 0.0 0.0 0.0
380 1 19.85171081967213 28.64384852459017 3.15797566285e-05 0.0 0.0 0.0
381 1 22.277589508196723 28.742408524590168 2.28963218364e-05 0.0 0.0 0.0
382 1 24.737398688524593 28.84354360655738 5.37128236549e-05 0.0 0.0 0.0
383 1 27.2480531147541 28.666771803278692 5.76398651746e-05 0.0 0.0 0.0
384 1 29.95764524590164 28.425774426229513 3.21255832039e-05 0.0 0.0 0.0
385 1 32.611342950819676 28.762150819672133 4.58819656395e-05 0.0 0.0 0.0
386 1 35.493768524590166 28.7603331147541 8.34289210351e-05 0.0 0.0 0.0
387 1 38.59467213114755 28.28111540983607 1.37206898857e-05 0.0 0.0 0.0
388 1 41.337437377049184 27.99376655737705 3.46083736082e-05 0.0 0.0 0.0
389 1 44.15023475409836 28.495301639344262 7.4931462557e-05 0.0 0.0 0.0
390 1 46.84629508196722 29.03904786885246 8.95202420965e-05 0.0 0.0 0.0
391 1 49.319181639344265 28.37886754098361 3.86132706879e-05 0.0 0.0 0.0
392 1 52.25901639344263 28.249659016393444 8.84876445473e-05 0.0 0.0 0.0
393 1 54.81541639344263 28.68560524590164 1.87020892638e-07 0.0 0.0 0.0
394 1 57.37030163934427 28.133275409836067 1.5492649007e-05 0.0 0.0 0.0
395 1 59.40714098360656 29.860751475409838 1.7707747554e-05 0.0 0.0 0.0
396 1 61.58838688524591 28.40078098360656 6.31923045312e-05 0.0 0.0 0.0
397 1 65.4383868852459 28.64107147540984 9.44999174712e-06 0.0 0.0 0.0
398 1 67.92712786885247 28.951444590163938 4.22480925478e-05 0.0 0.0 0.0
399 1 70.41586885245903 28.908425573770497 2.41567131325e-05 0.0 0.0 0.0
400 1 73.0889049180328 28.214365245901643 7.10075252277e-05 0.0 0.0 0.0
401 1 75.48221639344263 29.396529836065575 9.21154869915e-05 0.0 0.0 0.0
402 1 78.21836721311476 28.596285245901644 1.07658648198e-05 0.0 0.0 0.0
403 1 80.96562622950822 28.485455737704918 9.80755829838e-06 0.0 0.0 0.0
404 1 0.004868692327868853 30.625146885245904 5.63152335957e-05 0.0 0.0 0.0
405 1 2.7679505573770493 30.671548852459022 5.36048682932e-05 0.0 0.0 0.0
406 1 6.051240655737706 29.790113442622953 9.33897765909e-05 0.0 0.0 0.0
407 1 7.100056393442624 28.699187540983612 3.14014121076e-05 0.0 0.0 0.0
408 1 10.114669508196721 31.037412459016394 8.73606911421e-05 0.0 0.0 0.0
409 1 12.997549508196723 30.569706885245903 9.88334065767e-05 0.0 0.0 0.0
410 1 15.785100983606558 31.343493770491808 5.73934434155e-05 0.0 0.0 0.0
411 1 18.556343606557377 31.226150819672135 8.90895060273e-05 0.0 0.0 0.0
412 1 21.378582950819673 31.263413770491805 3.87624740149e-07 0.0 0.0 0.0