ITEM: TIMESTEP
0
ITEM: NUMBER OF ATOMS
2232
ITEM: BOX BOUNDS xy xz yz pp pp pp
0.0 82.68810555352132 0
0.0 83.16 0
-10.0 10.0 0
ITEM: ATOMS id type x y z vx vy vz
1 1 0.5382224262295082 0.6702635409836066 8.0355716062e-05 0.0 0.0 0.0
2 1 4.053244655737705 0.6893040000000001 9.81057992959e-05 0.0 0.0 0.0
3 1 6.180752131147542 0.20402525901639346 2.52821124132e-05 0.0 0.0 0.0
4 1 8.53311475409836 1.516940393442623 7.37068936006e-05 0.0 0.0 0.0
5 1 11.472899016393445 1.0638471475409836 9.40443186122e-05 0.0 0.0 0.0
6 1 15.084224262295084 0.3047569114754099 4.59727741492e-05 0.0 0.0 0.0
7 1 16.61049049180328 0.3574451081967213 2.42039983463e-05 0.0 0.0 0.0
8 1 20.13597967213115 0.011371107540983609 2.03243302987e-05 0.0 0.0 0.0
9 1 22.322224262295084 0.9780918688524591 4.94537591283e-06 0.0 0.0 0.0
10 1 26.161873442622955 0.5099268196721312 1.82073978958e-05 0.0 0.0 0.0
11 1 27.71096196721312 0.5536779672131148 8.42724145487e-05 0.0 0.0 0.0
12 1 30.56531409836066 1.3449451147540985 1.83208903934e-05 0.0 0.0 0.0
13 1 33.750740983606555 1.2054968524590164 8.22174614465e-05 0.0 0.0 0.0
14 1 36.61347475409836 1.3056675409836067 5.48443553546e-05 0.0 0.0 0.0
15 1 39.25293377049181 1.3672624918032787 9.65624090689e-05 0.0 0.0 0.0
16 1 41.96989770491804 1.427776918032787 2.66504658481e-05 0.0 0.0 0.0
17 1 45.51528065573771 83.10092459016394 2.96727549442e-05 0.0 0.0 0.0
18 1 46.06801442622952 2.2371857704918034 6.00076519816e-05 0.0 0.0 0.0
19 1 49.492570491803285 0.39284541639344267 3.97852665223e-05 0.0 0.0 0.0
20 1 52.192872131147546 0.2900047213114754 3.53804928371e-05 0.0 0.0 0.0
21 1 54.3933049180328 2.1508296393442623 1.91904931559e-05 0.0 0.0 0.0
22 1 57.22387540983607 1.5427114098360657 5.39152347902e-05 0.0 0.0 0.0
23 1 59.808045901639346 1.3212846557377051 9.30143218258e-05 0.0 0.0 0.0
24 1 62.563888524590176 0.9323866885245903 6.04274248243e-06 0.0 0.0 0.0
25 1 64.41693770491804 2.244300065573771 3.96975179209e-05 0.0 0.0 0.0
26 1 67.53531147540984 1.0629584918032788 6.88631456788e-05 0.0 0.0 0.0
27 1 70.18916065573771 0.7364481967213116 9.99600167551e-05 0.0 0.0 0.0
28 1 72.83998032786886 0.6429121311475411 8.35968774202e-05 0.0 0.0 0.0
29 1 76.61878688524591 0.33216133770491807 1.76531066592e-05 0.0 0.0 0.0
30 1 78.17040000000001 0.4033421573770492 5.11360712286e-05 0.0 0.0 0.0
31 1 80.8540393442623 0.3973942229508197 5.29902317805e-05 0.0 0.0 0.0
32 1 81.52457049180329 2.9408597377049186 9.21606415459e-05 0.0 0.0 0.0
33 1 1.3833744262295082 3.0952788196721315 7.83900223272e-05 0.0 0.0 0.0
34 1 3.174091475409836 1.9173000000000002 7.73741131525e-05 0.0 0.0 0.0
35 1 7.486672131147542 2.6381664262295086 1.69970865968e-05 0.0 0.0 0.0
36 1 9.941684590163934 3.2259213114754104 2.05880651463e-05 0.0 0.0 0.0
37 1 12.498993442622952 3.340896196721312 3.92600772059e-05 0.0 0.0 0.0
38 1 15.611611147540986 2.464010098360656 8.41536223821e-05 0.0 0.0 0.0
39 1 17.02331147540984 1.8385075409836067 2.66758723451e-05 0.0 0.0 0.0
40 1 21.13995868852459 1.9602988196721314 2.53536553937e-06 0.0 0.0 0.0
41 1 23.28525442622951 3.2695613770491807 9.29061236705e-05 0.0 0.0 0.0
42 1 25.537744262295085 3.27536793442623 2.26187984448e-05 0.0 0.0 0.0
43 1 28.39492393442623 2.8872828852459023 6.23935243719e-05 0.0 0.0 0.0
44 1 31.463310819672134 2.617818229508197 2.0137023408e-05 0.0 0.0 0.0
45 1 34.408851147540986 3.115273573770492 4.21530762009e-05 0.0 0.0 0.0
46 1 37.890008524590165 3.612239147540984 6.78167465844e-05 0.0 0.0 0.0
47 1 40.651758688524595 3.6394340327868857 6.38598113009e-05 0.0 0.0 0.0
48 1 43.11060852459017 3.477148327868853 5.0941963949e-05 0.0 0.0 0.0
49 1 45.69048721311476 3.7008371147540986 8.78210995473e-05 0.0 0.0 0.0
50 1 47.558128524590174 2.5638323934426235 5.53382959947e-05 0.0 0.0 0.0
51 1 50.99874098360657 2.6043419672131147 2.62634937626e-05 0.0 0.0 0.0
52 1 53.62078032786886 3.476522229508197 6.07521095063e-05 0.0 0.0 0.0
53 1 56.24786885245903 3.8496162622950827 6.8945758679e-05 0.0 0.0 0.0
54 1 58.69470163934427 3.775100459016394 4.36599422447e-05 0.0 0.0 0.0
55 1 61.277862295081974 3.360254754098361 6.13530584146e-05 0.0 0.0 0.0
56 1 63.721160655737705 3.572012327868853 4.79690557159e-05 0.0 0.0 0.0
57 1 65.71154754098362 3.0023234098360656 8.35932014405e-06 0.0 0.0 0.0
58 1 68.9692786885246 3.124473180327869 2.01621207113e-05 0.0 0.0 0.0
59 1 71.57415081967213 2.9911546229508197 5.45415307368e-05 0.0 0.0 0.0
60 1 73.9053573770492 3.2622905573770495 7.30909703214e-05 0.0 0.0 0.0
61 1 76.49104262295083 2.72989993442623 4.15937010706e-05 0.0 0.0 0.0
62 1 79.25041967213116 2.7106979016393447 4.51264151952e-05 0.0 0.0 0.0
63 1 0.4360224721311476 5.28719868852459 8.91242832658e-05 0.0 0.0 0.0
64 1 2.9999099016393442 4.899290360655738 8.78417378538e-05 0.0 0.0 0.0
65 1 5.551775737704919 4.405591606557378 3.04289780086e-05 0.0 0.0 0.0
66 1 8.083687213114754 5.2154498360655746 8.32763247239e-06 0.0 0.0 0.0
67 1 10.989894426229508 5.61948524590164 8.45592635469e-05 0.0 0.0 0.0
68 1 13.355132459016394 5.822260327868853 3.79614631089e-05 0.0 0.0 0.0
69 1 15.740112786885248 5.300982950819672 4.79872009311e-05 0.0 0.0 0.0
70 1 18.277578360655742 4.055996459016394 8.37055360209e-05 0.0 0.0 0.0
71 1 20.952432131147543 4.66191324590164 3.98452179728e-05 0.0 0.0 0.0
72 1 24.05262885245902 5.877094426229508 1.30157297949e-05 0.0 0.0 0.0
73 1 27.502834754098366 5.10972 5.9041447662e-05 0.0 0.0 0.0
74 1 29.007339016393445 5.372529836065574 3.57267267542e-05 0.0 0.0 0.0
75 1 32.79316393442623 6.353838032786886 4.42317161437e-05 0.0 0.0 0.0
76 1 35.131994754098365 4.4595976393442625 9.62329918917e-05 0.0 0.0 0.0
77 1 39.08575540983607 5.78232131147541 4.36933520193e-05 0.0 0.0 0.0
78 1 41.94778229508197 6.0180675409836075 1.29896952174e-05 0.0 0.0 0.0
79 1 44.420113442622956 5.8950695081967215 8.54183379532e-05 0.0 0.0 0.0
80 1 47.21059344262295 5.570609180327869 3.12382894914e-05 0.0 0.0 0.0
81 1 49.60759081967214 4.852297639344263 8.96872794436e-05 0.0 0.0 0.0
82 1 52.02069508196722 6.163029508196722 5.0471201882e-05 0.0 0.0 0.0
83 1 54.97800000000001 5.933443278688525 6.2789296064e-05 0.0 0.0 0.0
84 1 57.76110819672132 6.259569836065574 4.54020134574e-05 0.0 0.0 0.0
85 1 60.28872786885247 5.867400000000001 8.58003062249e-06 0.0 0.0 0.0
86 1 63.370747540983615 5.576971147540983 5.49771137934e-05 0.0 0.0 0.0
87 1 64.87843278688526 5.831298360655738 9.2132116015e-05 0.0 0.0 0.0
88 1 67.34748196721313 5.429989508196722 7.00761468465e-06 0.0 0.0 0.0
89 1 70.07353442622951 5.327844590163935 5.93010011634e-05 0.0 0.0 0.0
90 1 71.48225573770493 6.938129180327869 5.47774483748e-05 0.0 0.0 0.0
91 1 76.47236065573772 4.854125442622951 9.64655989656e-06 0.0 0.0 0.0
92 1 78.01488524590164 4.953629639344263 9.24210532963e-05 0.0 0.0 0.0
93 1 80.54906885245902 5.373236721311476 7.12366988652e-05 0.0 0.0 0.0
94 1 0.27887683278688524 7.289653114754099 8.62991816817e-05 0.0 0.0 0.0
95 1 1.82575331147541 7.397655081967214 4.09511025627e-05 0.0 0.0 0.0
96 1 4.2014027540983605 6.975341639344263 5.49537567816e-06 0.0 0.0 0.0
97 1 6.41528655737705 8.141500327868854 4.12028943461e-05 0.0 0.0 0.0
98 1 9.324826229508197 7.338680655737705 4.07727425823e-05 0.0 0.0 0.0
99 1 11.999478032786886 8.219964590163936 4.85232140953e-05 0.0 0.0 0.0
100 1 14.708767213114756 7.994771147540985 2.16222327019e-05 0.0 0.0 0.0
101 1 17.289049836065576 6.784230163934427 8.47297734004e-05 0.0 0.0 0.0
102 1 19.720432131147543 6.5329324590163935 9.70556788151e-05 0.0 0.0 0.0
103 1 22.225633442622954 8.155638032786886 1.89633254986e-05 0.0 0.0 0.0
104 1 25.486545573770492 8.261822295081968 4.72545348248e-05 0.0 0.0 0.0
105 1 28.040370491803284 7.509191475409836 8.38080856365e-05 0.0 0.0 0.0
106 1 30.13098360655738 6.414377704918033 5.51537872396e-05 0.0 0.0 0.0
107 1 34.83040721311475 6.973877377049181 5.99119496028e-06 0.0 0.0 0.0
108 1 37.19317114754099 7.983107540983608 5.7198708973e-05 0.0 0.0 0.0
109 1 40.2534793442623 7.983309508196722 6.53699335675e-05 0.0 0.0 0.0
110 1 44.010826885245905 8.228699672131148 2.3821324291e-06 0.0 0.0 0.0
111 1 45.5025062295082 7.821533770491804 2.18750490112e-05 0.0 0.0 0.0
112 1 48.23557704918033 7.64496393442623 1.23184223767e-05 0.0 0.0 0.0
113 1 52.15702295081968 7.676369836065575 2.84562105541e-05 0.0 0.0 0.0
114 1 53.65915409836066 7.860917377049181 7.44271926676e-05 0.0 0.0 0.0
115 1 55.71518032786886 7.277838032786886 1.00985760273e-06 0.0 0.0 0.0
116 1 59.27384262295082 8.395928524590165 3.11330372134e-05 0.0 0.0 0.0
117 1 61.49952131147542 8.504182950819674 8.72518146638e-05 0.0 0.0 0.0
118 1 64.08975081967213 9.549060327868853 8.92864821735e-05 0.0 0.0 0.0
119 1 66.5512262295082 8.012089836065575 1.51825695819e-05 0.0 0.0 0.0
120 1 69.21769836065575 8.377095081967214 6.19837211614e-05 0.0 0.0 0.0
121 1 72.95156721311476 7.281675409836066 5.15957035356e-05 0.0 0.0 0.0
122 1 74.82632786885246 8.025874098360656 1.66173945629e-05 0.0 0.0 0.0
123 1 77.07472786885246 8.882265573770493 9.90474071241e-05 0.0 0.0 0.0
124 1 79.57508196721312 7.572457704918034 1.85735514126e-05 0.0 0.0 0.0
125 1 0.5745512786885246 9.893313442622953 4.38685297277e-05 0.0 0.0 0.0
126 1 3.279013442622951 9.752996721311476 7.61622868825e-05 0.0 0.0 0.0
127 1 5.932584918032787 9.57728524590164 2.71596932299e-05 0.0 0.0 0.0
128 1 8.56436918032787 9.23161836065574 9.56693207509e-05 0.0 0.0 0.0
129 1 10.046152131147542 11.25553180327869 7.65111652177e-05 0.0 0.0 0.0
130 1 12.529389508196722 9.670998032786887 2.34649646986e-06 0.0 0.0 0.0
131 1 16.43068918032787 9.413893770491805 2.70191646024e-05 0.0 0.0 0.0
132 1 18.501913442622953 10.427213770491804 3.71498468613e-05 0.0 0.0 0.0
133 1 21.153036065573772 9.270295081967214 7.77020699434e-05 0.0 0.0 0.0
134 1 23.153925245901643 9.361533770491805 5.28912315966e-05 0.0 0.0 0.0
135 1 26.570453114754102 9.33012786885246 9.28922952044e-05 0.0 0.0 0.0
136 1 30.02474885245902 10.87972131147541 1.89539159065e-05 0.0 0.0 0.0
137 1 33.44420524590164 9.297358688524591 9.77187572963e-05 0.0 0.0 0.0
138 1 36.064982295081975 9.012332459016394 6.47914696758e-05 0.0 0.0 0.0
139 1 38.68035672131148 9.580617704918033 3.14675793864e-05 0.0 0.0 0.0
140 1 41.098106229508204 9.274334426229508 5.83580632812e-06 0.0 0.0 0.0
141 1 44.24970360655738 11.107439344262296 5.19142871383e-05 0.0 0.0 0.0
142 1 46.72925508196722 9.978796065573771 3.39175208829e-05 0.0 0.0 0.0
143 1 48.975988852459025 8.998396721311476 4.25780435482e-05 0.0 0.0 0.0
144 1 52.62760655737706 10.465991475409838 4.785308533e-05 0.0 0.0 0.0
145 1 55.41727868852459 10.080688524590165 7.98965154962e-05 0.0 0.0 0.0
146 1 58.04487213114755 10.596563278688524 8.57775903228e-05 0.0 0.0 0.0
147 1 60.43666885245902 11.004234098360657 6.05970635511e-05 0.0 0.0 0.0
148 1 63.2596655737705 10.84432655737705 8.91504572222e-05 0.0 0.0 0.0
149 1 65.78577049180328 10.824230819672133 8.79147518804e-05 0.0 0.0 0.0
150 1 68.39619672131148 9.652063606557377 5.01316513992e-05 0.0 0.0 0.0
151 1 71.01268196721313 9.832470819672134 2.55939737658e-05 0.0 0.0 0.0
152 1 73.68723278688525 10.185913442622953 8.54561800509e-05 0.0 0.0 0.0
153 1 76.35370491803279 10.231103606557378 5.18900323908e-05 0.0 0.0 0.0
154 1 78.5172786885246 10.276142295081968 8.3024329455e-05 0.0 0.0 0.0
155 1 80.91765901639344 10.066045901639345 9.61780757437e-05 0.0 0.0 0.0
156 1 82.39605901639345 12.452641967213117 8.81113326599e-05 0.0 0.0 0.0
157 1 2.1255281967213118 12.081224262295082 7.32157103346e-05 0.0 0.0 0.0
158 1 4.109159278688526 11.08956524590164 9.86387175011e-05 0.0 0.0 0.0
159 1 8.617335081967214 11.953025573770494 1.66212358114e-05 0.0 0.0 0.0
160 1 9.710028196721312 13.846670163934428 8.75013956729e-05 0.0 0.0 0.0
161 1 12.25996524590164 12.302378360655739 7.94536394259e-05 0.0 0.0 0.0
162 1 15.013687213114755 11.974232131147541 1.53097560383e-06 0.0 0.0 0.0
163 1 18.316558032786887 11.951359344262295 7.66569928557e-05 0.0 0.0 0.0
164 1 20.752131147540986 13.016180983606558 3.23915126721e-05 0.0 0.0 0.0
165 1 23.137565901639345 12.74004131147541 2.7224559609e-05 0.0 0.0 0.0
166 1 26.028373114754103 12.101067540983609 2.23377845355e-06 0.0 0.0 0.0
167 1 29.524728524590167 12.347114098360658 5.14895771462e-05 0.0 0.0 0.0
168 1 31.456494426229508 11.441745573770492 9.23549921313e-05 0.0 0.0 0.0
169 1 34.92755344262296 11.455428852459017 3.83938376159e-05 0.0 0.0 0.0
170 1 37.136569836065576 11.448511475409838 9.63685389913e-05 0.0 0.0 0.0
171 1 39.8123324590164 11.801651147540985 5.68284358829e-05 0.0 0.0 0.0
172 1 41.99797114754099 11.922831475409836 4.13767566796e-05 0.0 0.0 0.0
173 1 46.18752852459017 12.674300983606559 6.1798925383e-05 0.0 0.0 0.0
174 1 48.59770426229509 11.807457704918033 6.93322365688e-05 0.0 0.0 0.0
175 1 50.68771147540984 13.394061639344264 7.48037829225e-05 0.0 0.0 0.0
176 1 54.92599344262295 12.195790163934427 7.09538715762e-05 0.0 0.0 0.0
177 1 56.44024262295083 12.607399344262296 4.95188497043e-05 0.0 0.0 0.0
178 1 59.133980327868855 13.308780983606558 8.87542242749e-05 0.0 0.0 0.0
179 1 62.41089836065574 12.940241311475411 4.11662821384e-05 0.0 0.0 0.0
180 1 63.780236065573774 12.272083278688525 3.78496161039e-05 0.0 0.0 0.0
181 1 67.96196721311476 12.042093114754099 2.69919065398e-05 0.0 0.0 0.0
182 1 69.46409836065574 11.979786229508198 9.49297010284e-05 0.0 0.0 0.0
183 1 71.42469508196722 11.32026229508197 9.42574547529e-05 0.0 0.0 0.0
184 1 74.37745573770493 13.754472131147542 5.07719283155e-05 0.0 0.0 0.0
185 1 77.15349508196722 12.82981573770492 9.02584078301e-05 0.0 0.0 0.0
186 1 79.62052459016394 12.583365245901641 6.35800577557e-06 0.0 0.0 0.0
187 1 1.2336662295081968 14.709171147540983 4.78991680431e-05 0.0 0.0 0.0
188 1 3.9641114754098363 14.07216655737705 1.61037001601e-05 0.0 0.0 0.0
189 1 7.014523278688525 14.403342295081968 3.7770224854e-05 0.0 0.0 0.0
190 1 9.677107540983608 15.362939016393444 7.6185274334e-05 0.0 0.0 0.0
191 1 11.858302950819674 14.711039344262296 7.93659336252e-05 0.0 0.0 0.0
192 1 13.820010491803279 15.76853967213115 5.24253360036e-05 0.0 0.0 0.0
193 1 16.1846931147541 14.607228196721312 3.18990268113e-05 0.0 0.0 0.0
194 1 17.610076721311476 13.32488786885246 8.8160298419e-05 0.0 0.0 0.0
195 1 22.35671016393443 14.043941639344263 5.56290765832e-05 0.0 0.0 0.0
196 1 24.933256393442626 14.234800655737706 9.19018388112e-05 0.0 0.0 0.0
197 1 27.018062950819672 13.27530491803279 5.88251865796e-05 0.0 0.0 0.0
198 1 30.391824262295085 13.606026229508197 6.81234190406e-05 0.0 0.0 0.0
199 1 33.800626885245904 14.99773180327869 1.39038895794e-05 0.0 0.0 0.0
200 1 38.26915147540984 14.511445245901642 9.91015880026e-05 0.0 0.0 0.0
201 1 37.31000918032787 13.337106885245904 5.96606433709e-05 0.0 0.0 0.0
202 1 40.88720196721312 15.235093770491805 3.38761813082e-05 0.0 0.0 0.0
203 1 43.88631409836066 13.912915409836067 5.84452304438e-06 0.0 0.0 0.0
204 1 48.01336262295082 14.525179016393443 8.11155557225e-05 0.0 0.0 0.0
205 1 52.20398032786886 13.572701639344263 3.07065053422e-05 0.0 0.0 0.0
206 1 52.82502950819672 14.955015737704919 8.06382104273e-05 0.0 0.0 0.0
207 1 55.061816393442626 15.52325049180328 2.19743529642e-05 0.0 0.0 0.0
208 1 57.90500983606558 15.218481967213116 8.09933286372e-05 0.0 0.0 0.0
209 1 60.60430163934427 15.98408918032787 3.3071100603e-05 0.0 0.0 0.0
210 1 63.21169836065574 16.92939672131148 7.01128732449e-05 0.0 0.0 0.0
211 1 66.38914754098361 15.196063606557379 5.47485559772e-05 0.0 0.0 0.0
212 1 67.87764590163934 14.865039344262296 1.43901214958e-06 0.0 0.0 0.0
213 1 70.54664262295083 14.230862295081968 2.56876161069e-05 0.0 0.0 0.0
214 1 73.25502295081968 14.808589508196723 3.0208158514e-05 0.0 0.0 0.0
215 1 76.346131147541 15.166475409836067 1.79665282941e-05 0.0 0.0 0.0
216 1 79.01310819672132 15.022674754098363 9.64021031183e-06 0.0 0.0 0.0
217 1 81.23070819672131 15.79237180327869 5.80939345558e-05 0.0 0.0 0.0
218 1 0.26872444590163935 18.495652459016394 1.16488424406e-05 0.0 0.0 0.0
219 1 2.583185901639345 16.61023803278689 9.15024278716e-05 0.0 0.0 0.0
220 1 5.137944918032788 16.127889836065577 1.90534662843e-05 0.0 0.0 0.0
221 1 7.910096393442624 16.95272393442623 9.21410303165e-05 0.0 0.0 0.0
222 1 11.753784918032789 17.389427540983608 4.22383497523e-05 0.0 0.0 0.0
223 1 13.279091803278689 17.20336524590164 9.1711375625e-05 0.0 0.0 0.0
224 1 15.756825573770493 17.326312786885246 3.70682499364e-05 0.0 0.0 0.0
225 1 18.15200524590164 16.39115409836066 3.6478363032e-05 0.0 0.0 0.0
226 1 20.612773770491803 16.06987475409836 7.28643395453e-05 0.0 0.0 0.0
227 1 23.22143278688525 16.36924065573771 1.67674719054e-05 0.0 0.0 0.0
228 1 26.15707672131148 16.160558032786888 1.12797654867e-05 0.0 0.0 0.0
229 1 29.386532459016397 16.34131868852459 5.75639279038e-06 0.0 0.0 0.0
230 1 32.997201311475415 16.349952786885247 8.7457217511e-05 0.0 0.0 0.0
231 1 35.19248393442623 16.810438032786887 6.46141888891e-05 0.0 0.0 0.0
232 1 37.29940590163935 16.73343803278689 6.17611433486e-05 0.0 0.0 0.0
233 1 40.0878662295082 16.512586885245902 3.28549802101e-05 0.0 0.0 0.0
234 1 42.21655016393443 16.00140786885246 8.14635180507e-05 0.0 0.0 0.0
235 1 45.67145180327869 15.505022950819672 8.37317542884e-06 0.0 0.0 0.0
236 1 48.90272524590164 16.666586885245902 3.67501017049e-05 0.0 0.0 0.0
237 1 51.278970491803285 16.777113442622955 9.67826278548e-05 0.0 0.0 0.0
238 1 54.170636065573774 17.609773770491806 4.74121091208e-05 0.0 0.0 0.0
239 1 56.660891803278695 17.361505573770494 5.65007903171e-05 0.0 0.0 0.0
240 1 58.605836065573776 16.62634491803279 2.37703444006e-05 0.0 0.0 0.0
241 1 62.648209836065575 18.357860327868856 4.21197285608e-05 0.0 0.0 0.0
242 1 65.2692393442623 18.697266229508198 6.30682697484e-05 0.0 0.0 0.0
243 1 67.25760655737706 17.83759278688525 5.8183268216e-05 0.0 0.0 0.0
244 1 69.61506885245902 16.71480655737705 9.51349674954e-05 0.0 0.0 0.0
245 1 71.82307540983608 17.890407213114756 3.34787375484e-05 0.0 0.0 0.0
246 1 73.73822950819672 16.24942360655738 8.1033874764e-05 0.0 0.0 0.0
247 1 77.31910819672132 16.323899016393444 4.41934523343e-05 0.0 0.0 0.0
248 1 80.71821639344263 17.231438688524594 4.57063224626e-05 0.0 0.0 0.0
249 1 1.9247273442622952 19.369918032786885 1.67882363012e-05 0.0 0.0 0.0
250 1 3.939728983606558 18.700750163934426 8.39639290271e-05 0.0 0.0 0.0
251 1 6.368985573770492 18.494541639344263 8.40439020046e-06 0.0 0.0 0.0
252 1 8.580223606557379 18.327110819672132 6.03107539448e-05 0.0 0.0 0.0
253 1 12.284706229508199 21.271035409836067 7.26426067343e-05 0.0 0.0 0.0
254 1 14.821161967213117 19.66085180327869 8.02149571422e-05 0.0 0.0 0.0
255 1 17.434314754098363 19.182088524590164 1.61196896182e-05 0.0 0.0 0.0
256 1 19.818537704918032 18.68913704918033 3.97981403105e-05 0.0 0.0 0.0
257 1 22.240579016393443 18.45500655737705 7.54003569589e-05 0.0 0.0 0.0
258 1 24.925682622950823 18.10307868852459 8.14760988543e-05 0.0 0.0 0.0
259 1 28.648493770491807 17.692226885245905 3.24039374805e-05 0.0 0.0 0.0
260 1 30.446102950819675 17.449613770491805 5.2764368321e-05 0.0 0.0 0.0
261 1 33.51408590163935 19.054142295081967 3.31404483267e-05 0.0 0.0 0.0
262 1 36.01055213114754 19.342551475409838 3.69079256398e-05 0.0 0.0 0.0
263 1 39.47110885245902 18.497470163934427 9.08383277949e-05 0.0 0.0 0.0
264 1 40.82312786885246 17.834159344262297 3.74390901458e-05 0.0 0.0 0.0
265 1 44.61536524590164 18.20052786885246 1.70838294303e-06 0.0 0.0 0.0
266 1 47.39781704918033 18.869140327868855 7.76102419031e-05 0.0 0.0 0.0
267 1 49.95068262295082 19.12028655737705 3.98082506522e-05 0.0 0.0 0.0
268 1 51.984845901639346 18.119589508196725 9.54745020482e-05 0.0 0.0 0.0
269 1 55.510183606557376 19.820102950819674 1.61878331406e-05 0.0 0.0 0.0
270 1 57.91005901639345 19.574460327868856 5.81222499246e-05 0.0 0.0 0.0
271 1 60.037278688524594 18.985574426229512 8.25742959972e-05 0.0 0.0 0.0
272 1 63.450019672131155 20.727541639344263 1.32293727244e-05 0.0 0.0 0.0
273 1 67.46714754098362 20.621811803278693 8.23332278632e-05 0.0 0.0 0.0
274 1 69.50954098360656 19.38491409836066 3.60736088696e-05 0.0 0.0 0.0
275 1 71.03338360655738 19.195923278688525 2.45502893674e-05 0.0 0.0 0.0
276 1 74.39260327868854 18.81693180327869 7.68250335417e-06 0.0 0.0 0.0
277 1 75.9225049180328 18.836825573770493 5.85433367394e-07 0.0 0.0 0.0
278 1 78.64451803278689 19.396931147540982 2.04095850083e-05 0.0 0.0 0.0
279 1 82.16884590163934 19.812781639344266 8.7334131878e-05 0.0 0.0 0.0
280 1 0.8444249180327871 21.95772393442623 6.3285622182e-05 0.0 0.0 0.0
281 1 3.325930426229508 21.599131147540987 2.70684368374e-05 0.0 0.0 0.0
282 1 5.729860327868853 20.900425573770494 3.86175763969e-05 0.0 0.0 0.0
283 1 7.937664918032788 22.268248524590167 5.63712699489e-05 0.0 0.0 0.0
284 1 9.827573114754099 20.948089836065577 6.29086932702e-05 0.0 0.0 0.0
285 1 13.751341639344263 22.196752131147544 6.58643054446e-05 0.0 0.0 0.0
286 1 16.48269573770492 21.711727868852464 5.10006508164e-05 0.0 0.0 0.0
287 1 19.15305573770492 21.375906885245904 9.1100315271e-05 0.0 0.0 0.0
288 1 21.78756655737705 20.90441442622951 5.13500417338e-05 0.0 0.0 0.0
289 1 24.308470819672134 20.34259213114754 7.11500268877e-05 0.0 0.0 0.0
290 1 27.21659672131148 20.176524590163936 7.00323380995e-06 0.0 0.0 0.0
291 1 29.6381331147541 20.344056393442624 4.94744679035e-05 0.0 0.0 0.0
292 1 31.993171803278692 21.743184262295085 3.70784491701e-05 0.0 0.0 0.0
293 1 34.69867409836066 21.579792786885246 8.93481440067e-05 0.0 0.0 0.0
294 1 37.19301967213115 21.687390819672135 8.46093534125e-05 0.0 0.0 0.0
295 1 39.57093114754098 21.081186229508198 2.70206245902e-05 0.0 0.0 0.0
296 1 43.02305573770492 20.30487475409836 3.52013585939e-05 0.0 0.0 0.0
297 1 45.23919147540984 19.63171803278689 9.67455735668e-05 0.0 0.0 0.0
298 1 49.558007868852464 20.972881311475412 2.68356506694e-05 0.0 0.0 0.0
299 1 51.082052459016396 20.993936393442624 8.41508560131e-05 0.0 0.0 0.0
300 1 53.691468852459025 21.623720655737706 9.10779306313e-05 0.0 0.0 0.0
301 1 56.31148852459017 22.07163344262295 2.65070806613e-05 0.0 0.0 0.0
302 1 58.83001967213115 21.898042622950822 8.23236447301e-05 0.0 0.0 0.0
303 1 61.22333114754099 22.26425967213115 4.78745689672e-05 0.0 0.0 0.0
304 1 63.8256786885246 22.814569836065576 6.75580945691e-06 0.0 0.0 0.0
305 1 66.49316065573771 23.127669508196725 4.20984394238e-05 0.0 0.0 0.0
306 1 70.13664918032788 22.012558032786888 8.19187448001e-05 0.0 0.0 0.0
307 1 71.69331147540984 21.75444393442623 5.52817531186e-05 0.0 0.0 0.0
308 1 74.56124590163934 21.327232786885247 9.14476944646e-05 0.0 0.0 0.0
309 1 77.31052459016395 21.959137704918035 9.12316916973e-05 0.0 0.0 0.0
310 1 79.57407213114756 20.64892590163935 4.0582618881e-06 0.0 0.0 0.0
311 1 2.210086819672131 24.171739016393445 8.01199677601e-05 0.0 0.0 0.0
312 1 5.641600655737705 23.31297442622951 6.89142882624e-05 0.0 0.0 0.0
313 1 7.142620983606558 23.560737704918036 7.5233453932e-05 0.0 0.0 0.0
314 1 9.439543606557377 24.046569836065576 2.24676756457e-05 0.0 0.0 0.0
315 1 11.943735081967215 24.27403540983607 3.07842509585e-05 0.0 0.0 0.0
316 1 14.848023606557378 23.982647213114756 3.31634228988e-05 0.0 0.0 0.0
317 1 17.09107147540984 23.123781639344266 1.84368842213e-05 0.0 0.0 0.0
318 1 20.665133770491806 23.39729573770492 1.82635990036e-05 0.0 0.0 0.0
319 1 24.298372459016395 22.562868196721315 7.50545889354e-05 0.0 0.0 0.0
320 1 25.816459016393445 22.236388196721315 3.96220605139e-05 0.0 0.0 0.0
321 1 27.346714098360657 24.07221967213115 3.57939647313e-05 0.0 0.0 0.0
322 1 31.845230819672132 23.260513442622955 8.75569524081e-05 0.0 0.0 0.0
323 1 33.23860262295082 23.889540327868854 3.32407262303e-05 0.0 0.0 0.0
324 1 36.45028524590164 23.924228196721312 2.32626243967e-05 0.0 0.0 0.0
325 1 39.77456459016393 23.184977704918037 5.15905884466e-05 0.0 0.0 0.0
326 1 40.752186885245905 22.01866754098361 5.39903990933e-05 0.0 0.0 0.0
327 1 44.373156065573774 22.465267540983607 1.54587401097e-06 0.0 0.0 0.0
328 1 47.00251672131148 23.223654426229512 4.61842193601e-05 0.0 0.0 0.0
329 1 49.57896196721312 23.445919344262297 1.93207071907e-05 0.0 0.0 0.0
330 1 52.29840000000001 23.502874098360657 8.70088542416e-05 0.0 0.0 0.0
331 1 54.1544786885246 25.180110819672134 1.61071509455e-05 0.0 0.0 0.0
332 1 57.017363934426236 24.337049180327874 4.85274884489e-06 0.0 0.0 0.0
333 1 59.48338360655739 24.54881180327869 3.31443236081e-05 0.0 0.0 0.0
334 1 61.95596721311476 24.755171803278692 2.56092418177e-05 0.0 0.0 0.0
335 1 64.82844590163936 25.15764196721312 7.83068470216e-05 0.0 0.0 0.0
336 1 67.30860327868854 24.424046557377054 4.58687802343e-05 0.0 0.0 0.0
337 1 70.68398032786887 24.85650885245902 1.86627473621e-05 0.0 0.0 0.0
338 1 73.2696655737705 23.672324590163935 5.32722194933e-05 0.0 0.0 0.0
339 1 76.82630819672133 23.393155409836066 7.7369528817e-05 0.0 0.0 0.0
340 1 79.46147540983607 23.428651147540986 1.77674346567e-05 0.0 0.0 0.0
341 1 82.11380983606557 23.712011147540984 1.2078108857e-05 0.0 0.0 0.0
342 1 0.8502617704918033 26.09073049180328 5.71198891873e-05 0.0 0.0 0.0
343 1 4.2068053770491804 26.41609967213115 3.19985096991e-05 0.0 0.0 0.0
344 1 5.663867540983607 25.942335081967215 2.1350829535e-06 0.0 0.0 0.0
345 1 7.616587540983607 27.555699672131148 8.78439846478e-05 0.0 0.0 0.0
346 1 10.40656262295082 26.63897049180328 5.91630318647e-05 0.0 0.0 0.0
347 1 14.33437049180328 25.82771868852459 2.71030725416e-05 0.0 0.0 0.0
348 1 15.863615737704919 25.930822950819675 3.59890950067e-05 0.0 0.0 0.0
349 1 18.887519344262298 25.65150229508197 2.033248662e-05 0.0 0.0 0.0
350 1 21.580701639344266 25.49634098360656 5.19508882298e-05 0.0 0.0 0.0
351 1 24.188350819672134 25.318559344262297 2.77585525723e-06 0.0 0.0 0.0
352 1 26.71642491803279 25.488110819672134 2.84420575277e-05 0.0 0.0 0.0
353 1 28.420068852459018 25.146129836065576 7.46959613282e-05 0.0 0.0 0.0
354 1 31.77343147540984 25.946929836065575 5.11518563383e-05 0.0 0.0 0.0
355 1 33.85500655737705 25.326688524590164 2.83561436322e-05 0.0 0.0 0.0
356 1 37.11455540983607 27.162065573770494 1.32418938843e-05 0.0 0.0 0.0
357 1 40.7384531147541 25.424945573770493 6.44641618325e-05 0.0 0.0 0.0
358 1 43.1740262295082 24.46075409836066 7.05188160994e-05 0.0 0.0 0.0
359 1 44.63243147540984 23.97280131147541 8.1533442457e-05 0.0 0.0 0.0
360 1 48.396696393442625 25.647059016393445 2.22119003234e-05 0.0 0.0 0.0
361 1 51.231003278688526 25.682807213114756 8.65749959472e-06 0.0 0.0 0.0
362 1 53.33853114754099 27.347269508196725 4.11875821333e-05 0.0 0.0 0.0
363 1 56.026209836065576 26.701529836065575 6.74847683879e-05 0.0 0.0 0.0
364 1 58.078196721311485 28.273743606557378 4.83422013283e-05 0.0 0.0 0.0
365 1 60.570977049180335 27.112381639344264 5.72712788188e-05 0.0 0.0 0.0
366 1 63.21826229508197 26.934902950819676 8.56543364932e-05 0.0 0.0 0.0
367 1 66.14022295081968 27.079713442622953 3.21909651125e-06 0.0 0.0 0.0
368 1 69.5620524590164 27.567868196721314 2.31271525274e-05 0.0 0.0 0.0
369 1 73.30349508196723 25.82054885245902 1.53890083788e-05 0.0 0.0 0.0
370 1 74.36584262295082 24.730026885245902 6.99703927745e-05 0.0 0.0 0.0
371 1 77.94924590163934 26.67476918032787 1.34240517254e-05 0.0 0.0 0.0
372 1 80.79597377049181 25.872302950819677 2.06213288504e-05 0.0 0.0 0.0
373 1 1.4112913442622952 28.627842622950823 3.23900603631e-05 0.0 0.0 0.0
374 1 3.653314229508197 29.21011409836066 3.93481436388e-05 0.0 0.0 0.0
375 1 6.602914098360656 28.757556065573773 2.10207140725e-05 0.0 0.0 0.0
376 1 9.204302295081968 29.181535737704923 3.77567474004e-05 0.0 0.0 0.0
377 1 12.587354098360658 28.600980983606558 7.09540264426e-05 0.0 0.0 0.0
378 1 14.074741639344264 28.26783606557377 4.80053322936e-05 0.0 0.0 0.0
379 1 16.4526531147541 27.356156065573774 7.56529964063e-05 0.0 0.0 0.0
380 1 20.326737704918035 27.801695737704918 6.48823317507e-05 0.0 0.0 0.0
381 1 22.97760786885246 27.68243409836066 4.62469540246e-05 0.0 0.0 0.0
382 1 25.701741639344263 27.766099016393447 6.37280395058e-05 0.0 0.0 0.0
383 1 28.258242622950824 28.05657836065574 6.38093510941e-06 0.0 0.0 0.0
384 1 30.782176393442626 28.28823475409836 8.91948586934e-05 0.0 0.0 0.0
385 1 32.658552786885245 29.603748196721316 3.15462926941e-05 0.0 0.0 0.0
386 1 36.646950819672135 28.602344262295084 3.78569731388e-05 0.0 0.0 0.0
387 1 38.150344262295086 28.732360655737708 2.74667108286e-06 0.0 0.0 0.0
388 1 41.34667737704918 27.590942950819674 6.03101347566e-06 0.0 0.0 0.0
389 1 42.82633967213115 27.21366819672131 9.50427667089e-05 0.0 0.0 0.0
390 1 46.530367868852466 27.270673442622954 3.83365645844e-05 0.0 0.0 0.0
391 1 49.36795672131148 27.782357377049184 9.10693492629e-05 0.0 0.0 0.0
392 1 52.25093770491804 28.430369180327872 2.41110190595e-05 0.0 0.0 0.0
393 1 54.98254426229509 29.233037377049182 9.78520371751e-05 0.0 0.0 0.0
394 1 57.52531147540984 29.73204786885246 2.06614603129e-05 0.0 0.0 0.0
395 1 60.04131803278689 29.810461639344265 8.53819795194e-05 0.0 0.0 0.0
396 1 62.428570491803285 29.22203016393443 4.34804670029e-05 0.0 0.0 0.0
397 1 64.95467540983607 28.888531803278692 1.26392926802e-05 0.0 0.0 0.0
398 1 67.45200000000001 29.69554229508197 2.30220961152e-05 0.0 0.0 0.0
399 1 70.63702295081967 28.6648531147541 7.15890709461e-05 0.0 0.0 0.0
400 1 74.23961311475409 28.389066885245903 4.81874835736e-05 0.0 0.0 0.0
401 1 77.07573770491804 27.92580459016394 4.06712327748e-05 0.0 0.0 0.0
402 1 79.49732459016394 28.177708196721316 6.68454098452e-05 0.0 0.0 0.0
403 1 82.6712393442623 28.093083934426232 4.20065175531e-05 0.0 0.0 0.0
404 1 0.1482913967213115 32.124198032786886 2.81317111831e-05 0.0 0.0 0.0
405 1 2.6745407213114754 32.33232524590164 1.46351741199e-05 0.0 0.0 0.0
406 1 5.321785573770492 31.042966557377053 5.43811644009e-05 0.0 0.0 0.0
407 1 7.722822295081968 32.31056327868853 2.78597316286e-05 0.0 0.0 0.0
408 1 10.532287213114756 31.466491803278693 4.29962696792e-05 0.0 0.0 0.0
409 1 13.228801967213116 31.09653836065574 7.04892805169e-05 0.0 0.0 0.0
410 1 15.716078688524592 30.23262360655738 4.24708651851e-05 0.0 0.0 0.0
411 1 18.482524590163933 29.621470819672133 6.69441606517e-05 0.0 0.0 0.0