ITEM: TIMESTEP
0
ITEM: NUMBER OF ATOMS
2232
ITEM: BOX BOUNDS xy xz yz pp pp pp
0.0 82.68810555352132 0
0.0 83.16 0
-10.0 10.0 0
ITEM: ATOMS id type x y z vx vy vz
1 1 1.785481049180328 82.61064918032787 6.51760255672e-05 0.0 0.0 0.0
2 1 3.01494131147541 81.70937049180328 7.28282479411e-05 0.0 0.0 0.0
3 1 6.524146885245902 83.11354754098362 5.26864417541e-05 0.0 0.0 0.0
4 1 9.097461639344264 0.5031124459016394 9.78484978323e-05 0.0 0.0 0.0
5 1 11.703343606557377 0.3733015540983607 9.83706501711e-05 0.0 0.0 0.0
6 1 14.500589508196722 0.314716924590164 7.69654204175e-05 0.0 0.0 0.0
7 1 18.44925049180328 0.1707249049180328 5.86103068024e-05 0.0 0.0 0.0
8 1 20.020706885245904 0.2029780590163935 9.07504476266e-05 0.0 0.0 0.0
9 1 23.790980327868855 0.5354251803278689 4.63893060628e-05 0.0 0.0 0.0
10 1 25.323103606557382 0.5222266229508198 1.88776096214e-05 0.0 0.0 0.0
11 1 28.058042622950822 0.45834944262295085 3.78742305849e-05 0.0 0.0 0.0
12 1 30.618734426229512 0.6737777704918033 7.1586442613e-05 0.0 0.0 0.0
13 1 32.597508196721314 2.511336065573771 2.53682617054e-05 0.0 0.0 0.0
14 1 35.59116721311476 2.024494098360656 6.17578486459e-07 0.0 0.0 0.0
15 1 38.311766557377055 1.8196438032786886 9.77981810626e-05 0.0 0.0 0.0
16 1 42.600085901639346 1.673651803278689 3.73841883548e-06 0.0 0.0 0.0
17 1 44.16730098360656 1.5793230163934429 6.12038224239e-05 0.0 0.0 0.0
18 1 47.4682531147541 0.5391565245901639 3.04207311542e-06 0.0 0.0 0.0
19 1 49.01618032786886 0.39870902950819676 1.05314604479e-05 0.0 0.0 0.0
20 1 51.587475409836074 0.7672835409836066 3.94211164305e-05 0.0 0.0 0.0
21 1 55.133514754098364 0.7279504262295082 2.39383430009e-05 0.0 0.0 0.0
22 1 56.649783606557385 0.5607316721311476 8.14296151748e-05 0.0 0.0 0.0
23 1 61.002681967213114 0.9755622295081968 2.25851994246e-05 0.0 0.0 0.0
24 1 63.34752131147542 1.4181329836065575 3.00043789968e-05 0.0 0.0 0.0
25 1 64.84106885245903 1.2875864262295083 1.51107448839e-06 0.0 0.0 0.0
26 1 66.97232786885246 2.3772904262295085 8.47636121627e-05 0.0 0.0 0.0
27 1 70.72437377049181 0.5455538360655738 9.63754019481e-05 0.0 0.0 0.0
28 1 72.22499016393444 0.9195314754098362 7.80385052938e-05 0.0 0.0 0.0
29 1 74.67182295081969 1.0705272131147543 5.03126460402e-05 0.0 0.0 0.0
30 1 77.27568524590164 2.186239540983607 2.35171272713e-05 0.0 0.0 0.0
31 1 81.05752131147541 0.5858160000000001 9.37896156218e-05 0.0 0.0 0.0
32 1 82.49603278688525 2.650572262295082 5.14609739593e-05 0.0 0.0 0.0
33 1 2.0955512131147547 2.2010235409836065 3.35777900916e-05 0.0 0.0 0.0
34 1 4.7474110163934435 1.6676685245901641 6.09512541611e-05 0.0 0.0 0.0
35 1 7.460214426229509 2.4932398032786884 6.69087921781e-05 0.0 0.0 0.0
36 1 10.274930491803278 2.7214829508196723 1.55655385464e-06 0.0 0.0 0.0
37 1 13.007344918032787 2.4803038032786886 5.49566668917e-05 0.0 0.0 0.0
38 1 15.51173836065574 2.6742882622950823 1.44900576855e-05 0.0 0.0 0.0
39 1 17.884903606557376 3.965717114754099 8.73494211582e-05 0.0 0.0 0.0
40 1 20.664224918032787 2.7467641967213114 2.02809802756e-05 0.0 0.0 0.0
41 1 23.37795737704918 3.0692906885245903 8.83841306554e-05 0.0 0.0 0.0
42 1 27.21841442622951 2.607654229508197 9.64020774249e-05 0.0 0.0 0.0
43 1 28.730694426229512 2.8399316721311476 3.7545944029e-05 0.0 0.0 0.0
44 1 32.1585324590164 3.991972852459017 3.00364161604e-05 0.0 0.0 0.0
45 1 34.89286557377049 4.8478846557377056 8.67600161082e-05 0.0 0.0 0.0
46 1 37.645830163934434 4.009958032786885 5.37767783703e-05 0.0 0.0 0.0
47 1 39.786480655737705 3.9202492459016396 7.1352636765e-05 0.0 0.0 0.0
48 1 42.02372196721312 5.322643934426231 3.52325585731e-05 0.0 0.0 0.0
49 1 46.01186754098361 3.8531910819672133 7.75553056209e-05 0.0 0.0 0.0
50 1 48.31954491803279 2.922435278688525 3.40789551445e-05 0.0 0.0 0.0
51 1 49.88211475409837 2.9416272131147543 8.81327408639e-05 0.0 0.0 0.0
52 1 52.36555409836066 3.3647485245901643 2.17937951696e-05 0.0 0.0 0.0
53 1 54.963862295081974 3.243310688524591 7.84729485776e-05 0.0 0.0 0.0
54 1 57.62023606557377 2.8082632131147545 6.0753919644e-05 0.0 0.0 0.0
55 1 59.89994098360656 4.246219278688525 4.13421899598e-05 0.0 0.0 0.0
56 1 62.69264262295083 3.5504624262295086 3.86232535969e-05 0.0 0.0 0.0
57 1 66.46539016393443 3.8013612459016395 4.44656016399e-05 0.0 0.0 0.0
58 1 67.97610491803279 3.789995540983607 1.08402628907e-05 0.0 0.0 0.0
59 1 70.58905573770492 3.1700066885245906 8.23765344637e-05 0.0 0.0 0.0
60 1 73.32520655737706 3.5334517377049184 8.01377616114e-05 0.0 0.0 0.0
61 1 77.08381639344263 3.7087744262295086 7.76485926644e-05 0.0 0.0 0.0
62 1 78.80912131147542 2.071436327868853 7.40023839659e-05 0.0 0.0 0.0
63 1 1.2683339016393445 4.905430163934426 9.31126381153e-05 0.0 0.0 0.0
64 1 3.6797113442622957 4.172218491803279 7.21582947083e-05 0.0 0.0 0.0
65 1 6.154496393442623 5.169704262295082 2.46848021713e-05 0.0 0.0 0.0
66 1 9.152144262295083 4.703478098360656 5.97273447194e-05 0.0 0.0 0.0
67 1 12.02477442622951 4.7518492459016395 4.06167662917e-05 0.0 0.0 0.0
68 1 14.603542295081969 5.992064262295083 2.85759369516e-05 0.0 0.0 0.0
69 1 17.349791475409837 5.413327213114754 8.2211334052e-05 0.0 0.0 0.0
70 1 19.716544262295084 5.07200262295082 9.96042463293e-05 0.0 0.0 0.0
71 1 21.496329836065577 6.454973114754099 1.28266577475e-05 0.0 0.0 0.0
72 1 25.207881311475415 5.389899016393443 6.81854283486e-05 0.0 0.0 0.0
73 1 27.476881967213117 4.809707803278689 4.14309630383e-05 0.0 0.0 0.0
74 1 29.850754098360657 5.611053114754099 3.35919897614e-05 0.0 0.0 0.0
75 1 34.9895068852459 6.348940327868853 9.31125022991e-05 0.0 0.0 0.0
76 1 36.48931540983607 6.3343481967213116 4.41951033661e-05 0.0 0.0 0.0
77 1 38.94054098360656 6.572568524590165 7.11732685586e-05 0.0 0.0 0.0
78 1 41.381112786885254 6.71712655737705 7.76602446841e-05 0.0 0.0 0.0
79 1 43.76558819672132 8.126756721311475 3.5953580176e-05 0.0 0.0 0.0
80 1 45.96329442622951 6.203826885245902 2.36352395136e-05 0.0 0.0 0.0
81 1 48.50813180327869 5.434129836065574 4.56349435991e-05 0.0 0.0 0.0
82 1 51.38348852459017 5.596713442622952 9.02016504861e-05 0.0 0.0 0.0
83 1 53.979777049180335 5.601510163934426 5.77851686886e-05 0.0 0.0 0.0
84 1 56.58565901639345 5.28179606557377 3.452645511e-05 0.0 0.0 0.0
85 1 59.340491803278695 5.6611914754098365 2.97697416756e-05 0.0 0.0 0.0
86 1 61.85750819672132 5.81079868852459 7.39258438102e-05 0.0 0.0 0.0
87 1 63.89030819672132 7.463698360655738 8.11191689719e-05 0.0 0.0 0.0
88 1 66.39672131147542 6.052351475409837 8.60824187603e-05 0.0 0.0 0.0
89 1 69.3812918032787 5.652860327868853 4.60958296261e-05 0.0 0.0 0.0
90 1 71.8336786885246 6.338135081967214 3.93420801306e-05 0.0 0.0 0.0
91 1 74.24062295081968 4.810909508196722 9.72148794794e-05 0.0 0.0 0.0
92 1 79.10904262295082 4.960920655737706 1.2492685537e-05 0.0 0.0 0.0
93 1 81.4973049180328 4.810884262295082 3.27505826095e-05 0.0 0.0 0.0
94 1 0.080042131147541 7.3266131147541 6.23379593087e-05 0.0 0.0 0.0
95 1 2.6169952131147545 6.938028196721312 1.34037891149e-05 0.0 0.0 0.0
96 1 5.299266229508198 6.437906885245902 3.11611901884e-05 0.0 0.0 0.0
97 1 7.751350163934426 6.681782295081968 3.29326346734e-05 0.0 0.0 0.0
98 1 10.531883278688525 6.8354288524590165 4.82860608802e-05 0.0 0.0 0.0
99 1 13.713826229508198 7.231840000000001 6.6116272323e-05 0.0 0.0 0.0
100 1 16.61311606557377 7.81052655737705 4.28567064137e-05 0.0 0.0 0.0
101 1 18.81319540983607 7.709896393442624 2.58132485034e-05 0.0 0.0 0.0
102 1 21.151016393442625 7.9331711475409845 8.40909023282e-05 0.0 0.0 0.0
103 1 22.932165245901643 6.89844262295082 5.84449445851e-05 0.0 0.0 0.0
104 1 26.253061639344267 6.530155409836066 3.24386852405e-05 0.0 0.0 0.0
105 1 29.586580983606563 8.51938098360656 5.36053070423e-05 0.0 0.0 0.0
106 1 32.27163409836066 8.193910819672132 9.86087247111e-05 0.0 0.0 0.0
107 1 35.248731803278694 8.996579016393444 9.39393776957e-05 0.0 0.0 0.0
108 1 38.01270360655738 9.422477377049182 5.91990599649e-05 0.0 0.0 0.0
109 1 40.307354098360655 10.349809836065575 9.42743124401e-05 0.0 0.0 0.0
110 1 43.652789508196726 9.633684590163934 1.22043630106e-05 0.0 0.0 0.0
111 1 46.08184918032788 8.652325901639344 1.88317496324e-06 0.0 0.0 0.0
112 1 48.293238688524596 7.8150203278688535 5.1762946561e-05 0.0 0.0 0.0
113 1 50.51906885245902 9.009000000000002 3.23373338396e-07 0.0 0.0 0.0
114 1 53.7692262295082 7.711360655737706 6.98648479397e-05 0.0 0.0 0.0
115 1 55.339521311475416 7.758217049180328 1.53882087405e-05 0.0 0.0 0.0
116 1 57.90551475409837 7.624918688524591 6.82182843963e-05 0.0 0.0 0.0
117 1 60.73558032786886 8.084798032786885 7.23707473677e-05 0.0 0.0 0.0
118 1 63.312681967213116 8.897211147540984 5.09494679658e-05 0.0 0.0 0.0
119 1 65.72972459016394 8.709230163934427 7.45760313975e-05 0.0 0.0 0.0
120 1 68.25633442622951 7.763821639344263 1.13802846724e-05 0.0 0.0 0.0
121 1 71.11921967213117 7.666877377049181 7.86108228788e-05 0.0 0.0 0.0
122 1 73.87809180327869 7.399270819672132 6.63926906983e-05 0.0 0.0 0.0
123 1 76.75965901639346 5.21560131147541 7.71979790476e-05 0.0 0.0 0.0
124 1 79.96235409836066 8.299539672131148 9.87272966464e-05 0.0 0.0 0.0
125 1 1.5919156721311478 9.557896393442624 2.6065939139e-05 0.0 0.0 0.0
126 1 4.667573377049181 8.780272131147543 5.725064173e-05 0.0 0.0 0.0
127 1 6.184892459016394 8.916398032786885 6.86685371237e-05 0.0 0.0 0.0
128 1 8.883729836065575 8.826118688524591 7.24382524922e-05 0.0 0.0 0.0
129 1 11.064470819672131 8.267729836065575 7.63025715889e-05 0.0 0.0 0.0
130 1 14.496903606557378 8.51816918032787 3.92147845353e-05 0.0 0.0 0.0
131 1 17.966498360655738 10.356020327868855 4.46955679267e-05 0.0 0.0 0.0
132 1 20.81469049180328 11.028571147540985 5.65675860532e-05 0.0 0.0 0.0
133 1 23.498531803278688 9.580617704918033 3.99650625898e-05 0.0 0.0 0.0
134 1 25.987777704918035 10.490227540983607 9.78614734126e-05 0.0 0.0 0.0
135 1 28.932762622950825 9.93032393442623 3.93021879753e-05 0.0 0.0 0.0
136 1 31.57626098360656 10.523754098360657 4.20728353118e-06 0.0 0.0 0.0
137 1 35.52325573770492 10.498710163934428 5.10402950787e-05 0.0 0.0 0.0
138 1 37.05447016393443 10.613881967213116 5.83685079393e-05 0.0 0.0 0.0
139 1 39.51301704918033 11.645328524590166 2.20131591491e-05 0.0 0.0 0.0
140 1 41.380658360655744 11.440483278688527 9.3001719546e-05 0.0 0.0 0.0
141 1 45.07322491803279 11.338085901639346 8.70963242529e-06 0.0 0.0 0.0
142 1 47.28304918032787 10.621203278688526 7.27675767633e-05 0.0 0.0 0.0
143 1 49.853334426229516 10.396363278688526 1.97874961702e-05 0.0 0.0 0.0
144 1 51.9212262295082 11.003830163934426 2.34867594011e-05 0.0 0.0 0.0
145 1 54.336249180327876 10.5359731147541 4.42508497098e-05 0.0 0.0 0.0
146 1 57.68739016393443 9.80136786885246 2.23019821793e-05 0.0 0.0 0.0
147 1 59.24253770491804 9.88144786885246 9.59109219276e-05 0.0 0.0 0.0
148 1 61.51769836065574 11.678249180327871 2.7661294336e-05 0.0 0.0 0.0
149 1 65.25964590163935 11.14808524590164 3.39016308862e-05 0.0 0.0 0.0
150 1 67.52824262295083 10.39348524590164 8.74627990088e-05 0.0 0.0 0.0
151 1 70.07656393442625 9.703868196721311 3.53863901169e-05 0.0 0.0 0.0
152 1 72.84805901639345 9.614851147540985 9.27801934585e-05 0.0 0.0 0.0
153 1 75.6988262295082 9.01632131147541 3.84765720609e-05 0.0 0.0 0.0
154 1 79.13580327868853 9.600511475409837 1.77210692278e-06 0.0 0.0 0.0
155 1 81.81237377049182 9.72704393442623 5.54952086583e-07 0.0 0.0 0.0
156 1 0.19840703606557378 12.081022295081969 1.66017004288e-06 0.0 0.0 0.0
157 1 3.3081017704918034 13.099896393442625 6.09470129142e-05 0.0 0.0 0.0
158 1 5.4963862295081976 11.04336524590164 8.12696235849e-05 0.0 0.0 0.0
159 1 8.293935081967215 10.894919344262297 7.00672686614e-05 0.0 0.0 0.0
160 1 10.788381639344262 12.232851147540984 6.67436068352e-05 0.0 0.0 0.0
161 1 14.273679344262296 10.771668852459017 8.51194699822e-05 0.0 0.0 0.0
162 1 15.093312786885248 13.0985331147541 2.49677555486e-05 0.0 0.0 0.0
163 1 17.005639344262296 11.58544524590164 5.04998561353e-05 0.0 0.0 0.0
164 1 22.624064262295086 11.915207213114755 3.94876944126e-05 0.0 0.0 0.0
165 1 25.195813770491803 11.812759344262295 6.9667671106e-05 0.0 0.0 0.0
166 1 27.49839147540984 12.146156721311478 6.62337509664e-05 0.0 0.0 0.0
167 1 30.03201967213115 12.474403934426231 4.44060258328e-05 0.0 0.0 0.0
168 1 32.657038032786886 12.892577049180328 3.39196016279e-05 0.0 0.0 0.0
169 1 35.14805114754099 12.949733770491806 8.43921375955e-05 0.0 0.0 0.0
170 1 38.04198885245902 13.301661639344264 6.2034254132e-05 0.0 0.0 0.0
171 1 41.334407868852466 14.059695081967215 1.71398088867e-05 0.0 0.0 0.0
172 1 42.86526885245902 13.828190163934428 7.71891711219e-05 0.0 0.0 0.0
173 1 46.87896327868853 13.367300983606558 2.86071122506e-06 0.0 0.0 0.0
174 1 48.30682098360656 12.795784262295085 5.52738863276e-05 0.0 0.0 0.0
175 1 50.34234754098361 14.461104918032788 7.65151096672e-05 0.0 0.0 0.0
176 1 52.910865573770494 13.144531147540986 4.34574500783e-05 0.0 0.0 0.0
177 1 55.6248 12.712523278688526 3.34973339753e-05 0.0 0.0 0.0
178 1 58.22512786885247 12.539790819672133 5.20652169814e-05 0.0 0.0 0.0
179 1 60.821416393442625 13.044961311475411 1.80207423457e-05 0.0 0.0 0.0
180 1 63.18847213114755 13.702667540983608 7.33469618562e-05 0.0 0.0 0.0
181 1 64.47803278688525 12.456125901639345 2.62303964503e-05 0.0 0.0 0.0
182 1 69.04047213114754 12.276223606557378 7.4128643617e-05 0.0 0.0 0.0
183 1 71.63575081967214 11.773779672131148 6.88027732878e-05 0.0 0.0 0.0
184 1 74.21739672131149 11.24851344262295 3.13670083633e-05 0.0 0.0 0.0
185 1 76.42136393442624 10.41428786885246 7.97915343017e-05 0.0 0.0 0.0
186 1 80.08252459016394 11.850375737704919 4.91279283809e-05 0.0 0.0 0.0
187 1 1.1788220327868855 13.2710131147541 6.72464288378e-05 0.0 0.0 0.0
188 1 5.116334426229508 13.554524590163934 5.62869217714e-05 0.0 0.0 0.0
189 1 7.590735737704919 12.998306885245903 3.88101187606e-05 0.0 0.0 0.0
190 1 10.039436721311475 13.574165901639345 4.32424775882e-05 0.0 0.0 0.0
191 1 12.592403278688526 13.998650491803279 6.7746603527e-05 0.0 0.0 0.0
192 1 14.753200000000001 15.630141639344265 5.74819241241e-05 0.0 0.0 0.0
193 1 17.404827540983607 14.513161967213117 3.51129695224e-05 0.0 0.0 0.0
194 1 21.494815081967214 14.004709508196722 5.53057784085e-05 0.0 0.0 0.0
195 1 23.048498360655742 13.939979016393444 4.01662593259e-06 0.0 0.0 0.0
196 1 25.616208524590167 14.361030163934428 7.89896430809e-05 0.0 0.0 0.0
197 1 28.324639344262295 14.621365901639345 4.30909380308e-05 0.0 0.0 0.0
198 1 31.046601967213117 14.94380655737705 6.9374116479e-05 0.0 0.0 0.0
199 1 33.80128327868853 15.334512131147543 3.17942775773e-05 0.0 0.0 0.0
200 1 37.34520196721312 14.914369836065575 1.25614853633e-05 0.0 0.0 0.0
201 1 37.9205055737705 17.08056918032787 1.8680697419e-05 0.0 0.0 0.0
202 1 41.12148393442624 16.541821639344263 4.06347412391e-05 0.0 0.0 0.0
203 1 43.935341639344266 16.063058360655738 4.67993714468e-05 0.0 0.0 0.0
204 1 46.61090229508197 15.806156065573772 3.55350151188e-05 0.0 0.0 0.0
205 1 49.527611803278695 15.765459672131149 3.54529212203e-05 0.0 0.0 0.0
206 1 52.16611147540984 15.772276065573772 3.77776927035e-05 0.0 0.0 0.0
207 1 54.64020983606557 15.048223606557379 7.53663840588e-05 0.0 0.0 0.0
208 1 57.32940327868853 14.87604655737705 6.52455462199e-05 0.0 0.0 0.0
209 1 59.74543606557378 15.122497049180328 6.70175622849e-05 0.0 0.0 0.0
210 1 62.29577704918034 15.662203934426232 6.8418314547e-05 0.0 0.0 0.0
211 1 65.20965901639345 15.457409180327872 7.35487399528e-05 0.0 0.0 0.0
212 1 68.16645901639345 14.336390163934427 2.30353088755e-05 0.0 0.0 0.0
213 1 70.98895081967214 14.176735081967214 8.55311384808e-05 0.0 0.0 0.0
214 1 73.5201049180328 13.699991475409837 7.36478142633e-06 0.0 0.0 0.0
215 1 75.56098360655739 14.601775081967215 3.06428453988e-05 0.0 0.0 0.0
216 1 78.34510163934426 13.549475409836067 8.6038635645e-06 0.0 0.0 0.0
217 1 81.22616393442624 14.040558688524593 9.22626029777e-05 0.0 0.0 0.0
218 1 82.4021180327869 15.022472786885249 5.36275691187e-05 0.0 0.0 0.0
219 1 4.7122283278688535 15.78318229508197 5.09262732254e-05 0.0 0.0 0.0
220 1 6.228870819672132 15.53057180327869 4.91186202176e-05 0.0 0.0 0.0
221 1 7.911055737704919 16.95272393442623 6.57551418608e-05 0.0 0.0 0.0
222 1 10.786160000000002 16.04366950819672 9.3481498929e-05 0.0 0.0 0.0
223 1 13.671514098360657 16.717129180327873 8.32018242876e-05 0.0 0.0 0.0
224 1 16.43265836065574 17.11222754098361 9.42853971471e-06 0.0 0.0 0.0
225 1 18.961085901639343 16.76903475409836 7.34231987673e-05 0.0 0.0 0.0
226 1 21.177928524590165 16.425942950819675 6.76468049927e-05 0.0 0.0 0.0
227 1 23.853691147540985 16.444321967213117 5.85724187348e-05 0.0 0.0 0.0
228 1 26.529655737704918 16.666233442622953 8.43439372934e-05 0.0 0.0 0.0
229 1 29.27353180327869 16.952572459016395 2.98743671177e-05 0.0 0.0 0.0
230 1 31.89930754098361 17.257542950819673 2.84814052504e-05 0.0 0.0 0.0
231 1 34.57784721311476 17.615075409836066 8.01021338624e-05 0.0 0.0 0.0
232 1 37.17433770491804 18.38229836065574 8.85944928214e-05 0.0 0.0 0.0
233 1 39.141245901639344 18.01229442622951 8.15417327447e-05 0.0 0.0 0.0
234 1 42.852191475409846 18.403100983606556 8.43135518187e-05 0.0 0.0 0.0
235 1 45.45923475409836 18.19017704918033 6.45330512151e-05 0.0 0.0 0.0
236 1 48.15726426229509 17.86647409836066 7.73310459525e-05 0.0 0.0 0.0
237 1 50.93663606557377 18.067835409836068 4.09277382285e-07 0.0 0.0 0.0
238 1 54.7124131147541 17.262794098360658 2.663589767e-05 0.0 0.0 0.0
239 1 56.241809836065585 17.140502950819673 5.547722316e-05 0.0 0.0 0.0
240 1 58.716413114754104 18.493279344262298 7.05080961584e-05 0.0 0.0 0.0
241 1 61.209193442622954 17.714645245901643 1.09161708946e-05 0.0 0.0 0.0
242 1 63.92413770491804 17.580589508196724 8.30345921578e-05 0.0 0.0 0.0
243 1 66.49114098360657 16.386407868852462 9.2194479543e-05 0.0 0.0 0.0
244 1 69.39189508196722 16.317032131147542 9.96296909494e-05 0.0 0.0 0.0
245 1 71.98161967213116 16.270024262295085 6.06991088789e-06 0.0 0.0 0.0
246 1 74.66929836065574 15.874521967213116 6.29884318851e-05 0.0 0.0 0.0
247 1 77.3468786885246 15.956520655737707 1.29063043513e-06 0.0 0.0 0.0
248 1 79.9992131147541 15.756623606557378 7.66252157163e-05 0.0 0.0 0.0
249 1 1.8649400000000003 17.792907540983606 1.7090345598e-05 0.0 0.0 0.0
250 1 4.0352392786885245 18.198407213114756 7.2159812672e-05 0.0 0.0 0.0
251 1 6.658808524590165 17.89641573770492 9.48735407773e-05 0.0 0.0 0.0
252 1 10.3642 18.01492 4.67464889678e-05 0.0 0.0 0.0
253 1 11.856636721311476 18.240971803278693 6.57313650248e-05 0.0 0.0 0.0
254 1 13.996024918032788 18.20906098360656 6.22677281384e-05 0.0 0.0 0.0
255 1 17.581700327868855 19.27130754098361 6.07706784963e-05 0.0 0.0 0.0
256 1 20.880531803278693 19.022130491803278 6.76205987982e-05 0.0 0.0 0.0
257 1 22.38821704918033 18.728116721311476 8.53959396515e-05 0.0 0.0 0.0
258 1 24.820306229508198 18.78118360655738 8.54503648219e-06 0.0 0.0 0.0
259 1 27.422047868852463 18.926852459016395 1.43307362433e-05 0.0 0.0 0.0
260 1 30.028939672131152 19.323516065573774 2.41249045504e-05 0.0 0.0 0.0
261 1 33.34246426229508 19.6305062295082 7.71655035618e-05 0.0 0.0 0.0
262 1 36.1523331147541 20.08932524590164 1.60081137328e-06 0.0 0.0 0.0
263 1 38.104396721311474 22.06698819672131 3.36643927564e-05 0.0 0.0 0.0
264 1 41.73652459016394 20.830999344262295 6.34300216031e-07 0.0 0.0 0.0
265 1 44.38259803278689 20.61711606557377 8.75284983728e-05 0.0 0.0 0.0
266 1 46.75066360655738 20.262916065573773 9.83275107819e-06 0.0 0.0 0.0
267 1 49.490752786885245 20.138453770491804 4.74980182242e-05 0.0 0.0 0.0
268 1 52.58771803278689 20.240952131147544 4.01404184394e-05 0.0 0.0 0.0
269 1 54.9512393442623 19.508619016393446 6.8905008043e-05 0.0 0.0 0.0
270 1 57.94742295081968 19.802380327868853 3.41958598169e-05 0.0 0.0 0.0
271 1 60.70831475409837 20.32158754098361 7.09642199555e-05 0.0 0.0 0.0
272 1 63.01629508196722 19.84332918032787 9.80357363725e-05 0.0 0.0 0.0
273 1 65.48736393442624 19.724824918032787 1.41149272572e-06 0.0 0.0 0.0
274 1 67.80948196721312 19.15108655737705 9.92602533319e-05 0.0 0.0 0.0
275 1 70.56532459016394 18.719381639344263 4.73291191278e-05 0.0 0.0 0.0
276 1 73.19392786885246 18.33917836065574 9.53936496677e-05 0.0 0.0 0.0
277 1 75.84828196721313 18.14276524590164 7.56715358831e-05 0.0 0.0 0.0
278 1 78.72984918032788 18.10090754098361 3.62295316633e-06 0.0 0.0 0.0
279 1 81.8739737704918 17.672585573770494 4.0237251538e-06 0.0 0.0 0.0
280 1 0.07615527213114755 21.303653114754102 2.84066666218e-05 0.0 0.0 0.0
281 1 2.844092196721312 20.614793442622954 6.95252304734e-05 0.0 0.0 0.0
282 1 5.209744262295082 20.41651213114754 6.95848955289e-05 0.0 0.0 0.0
283 1 7.583313442622952 20.496794098360656 7.0982468517e-05 0.0 0.0 0.0
284 1 10.036558688524591 21.57428918032787 6.37386574819e-05 0.0 0.0 0.0
285 1 12.734891147540985 20.82544524590164 1.03060387168e-05 0.0 0.0 0.0
286 1 15.400959344262295 21.080226885245903 1.38817649734e-05 0.0 0.0 0.0
287 1 17.868493770491806 21.644119344262297 4.33333128396e-06 0.0 0.0 0.0
288 1 20.451048524590167 21.92399540983607 1.65390752211e-05 0.0 0.0 0.0
289 1 24.174920000000004 21.1311731147541 5.52638784881e-05 0.0 0.0 0.0
290 1 25.709416393442623 21.112945573770492 4.38061525828e-05 0.0 0.0 0.0
291 1 28.339382950819676 21.363233442622953 6.87339948153e-05 0.0 0.0 0.0
292 1 30.66907475409836 20.701336393442627 8.61189244308e-05 0.0 0.0 0.0
293 1 34.493475409836066 21.878047868852462 7.31474339661e-05 0.0 0.0 0.0
294 1 36.94581180327869 23.065160655737706 2.21504725585e-05 0.0 0.0 0.0
295 1 39.50993704918034 22.68465442622951 7.30737118835e-05 0.0 0.0 0.0
296 1 43.451882622950826 22.99189704918033 6.36941492859e-05 0.0 0.0 0.0
297 1 45.93557442622951 22.916664262295082 8.04047389858e-06 0.0 0.0 0.0
298 1 48.324947540983615 22.352317377049182 4.4302040342e-06 0.0 0.0 0.0
299 1 50.36794688524591 21.38519737704918 5.50267464438e-05 0.0 0.0 0.0
300 1 54.13731147540984 22.218261639344266 8.53242282792e-05 0.0 0.0 0.0
301 1 56.30795409836066 21.37646229508197 5.05537659682e-05 0.0 0.0 0.0
302 1 58.7012655737705 21.128749508196723 2.32449062453e-05 0.0 0.0 0.0
303 1 62.239226229508205 22.543681311475414 1.81104477792e-05 0.0 0.0 0.0
304 1 64.82036721311475 22.09294098360656 6.01454945665e-05 0.0 0.0 0.0
305 1 67.29648524590165 23.02007147540984 9.77431134133e-05 0.0 0.0 0.0
306 1 69.61254426229509 21.199185573770492 3.10427506055e-05 0.0 0.0 0.0
307 1 72.32395409836066 20.84251147540984 3.27157506454e-05 0.0 0.0 0.0
308 1 74.95760655737706 20.460641967213117 1.07085609584e-05 0.0 0.0 0.0
309 1 77.54026229508197 20.07831803278689 5.84947954403e-06 0.0 0.0 0.0
310 1 79.69575737704919 19.27418557377049 5.13146094e-06 0.0 0.0 0.0
311 1 1.6232104918032788 23.04844786885246 5.56904575706e-05 0.0 0.0 0.0
312 1 4.342153704918033 23.08783147540984 3.37242115929e-05 0.0 0.0 0.0
313 1 7.290107540983607 22.625881967213118 6.87612127856e-05 0.0 0.0 0.0
314 1 8.804104262295082 22.462288524590168 3.60267903771e-05 0.0 0.0 0.0
315 1 11.075427540983608 23.23430819672131 8.24321126612e-05 0.0 0.0 0.0
316 1 13.562401311475412 23.158116065573772 6.39507812174e-06 0.0 0.0 0.0
317 1 16.08810229508197 23.677676721311478 8.84428011095e-05 0.0 0.0 0.0
318 1 18.94750360655738 24.06994754098361 2.60353382892e-05 0.0 0.0 0.0
319 1 21.09431409836066 23.323577704918034 3.27564684062e-05 0.0 0.0 0.0
320 1 24.512306229508198 23.952251147540984 8.51208674478e-05 0.0 0.0 0.0
321 1 27.163580327868857 23.52095016393443 9.28564714575e-05 0.0 0.0 0.0
322 1 29.92644131147541 23.441980983606562 8.51568508505e-06 0.0 0.0 0.0
323 1 32.6861718032787 23.360638688524592 4.79500929466e-06 0.0 0.0 0.0
324 1 33.69802754098361 25.330323934426232 9.96042462805e-05 0.0 0.0 0.0
325 1 37.585240000000006 24.443081967213114 1.61603145825e-06 0.0 0.0 0.0
326 1 41.7178931147541 24.86150754098361 4.69327842284e-05 0.0 0.0 0.0
327 1 45.081707540983615 25.38470360655738 8.63536332144e-05 0.0 0.0 0.0
328 1 48.49293377049181 24.551134426229513 5.41924362808e-05 0.0 0.0 0.0
329 1 50.012535081967215 24.286102950819675 3.63855612914e-05 0.0 0.0 0.0
330 1 52.89571803278689 24.32432524590164 3.67022276053e-05 0.0 0.0 0.0
331 1 57.28396065573771 24.916341639344264 6.60181308582e-05 0.0 0.0 0.0
332 1 56.86588852459017 23.466318032786887 6.62659621974e-05 0.0 0.0 0.0
333 1 60.2064262295082 24.516598032786888 9.53653254051e-05 0.0 0.0 0.0
334 1 63.88172459016394 24.64439278688525 5.50271473653e-05 0.0 0.0 0.0
335 1 66.5668786885246 24.399305573770494 1.88934075547e-05 0.0 0.0 0.0
336 1 69.74836721311476 23.70302360655738 1.9572508751e-05 0.0 0.0 0.0
337 1 71.22676721311477 23.280558688524593 9.4172205463e-05 0.0 0.0 0.0
338 1 74.76573770491804 22.599323278688527 7.40794670498e-05 0.0 0.0 0.0
339 1 77.36202622950822 22.206648524590165 4.69318937992e-05 0.0 0.0 0.0
340 1 78.90455081967214 22.117681967213116 8.51905701718e-05 0.0 0.0 0.0
341 1 81.78056393442623 22.48985704918033 9.97103566353e-05 0.0 0.0 0.0
342 1 82.48795409836066 25.061758032786887 8.18138687482e-05 0.0 0.0 0.0
343 1 2.587523147540984 25.30189704918033 7.71732739228e-05 0.0 0.0 0.0
344 1 5.398179672131148 25.665892459016398 1.84915115535e-05 0.0 0.0 0.0
345 1 9.460598688524591 26.043116721311478 7.96130141575e-05 0.0 0.0 0.0
346 1 8.53932524590164 24.793495081967215 2.85197591339e-05 0.0 0.0 0.0
347 1 12.19836524590164 25.59681967213115 6.52516421608e-05 0.0 0.0 0.0
348 1 14.702354754098362 26.61675409836066 3.56702640495e-05 0.0 0.0 0.0
349 1 17.546558032786887 25.879826229508197 7.13106017199e-08 0.0 0.0 0.0
350 1 20.449988196721314 26.210547540983608 3.06012720378e-05 0.0 0.0 0.0
351 1 23.36695016393443 26.469520000000003 1.12068927056e-05 0.0 0.0 0.0
352 1 25.99030229508197 25.974750819672135 9.16418785445e-05 0.0 0.0 0.0
353 1 28.52019409836066 25.664832131147545 5.39145117608e-05 0.0 0.0 0.0
354 1 32.17595213114754 25.31628721311476 4.87812272519e-05 0.0 0.0 0.0
355 1 35.033131803278685 26.045489836065574 7.65638271485e-05 0.0 0.0 0.0
356 1 36.666794098360654 26.975750819672136 5.66799796646e-06 0.0 0.0 0.0
357 1 40.01076524590164 26.72526098360656 7.53818698062e-05 0.0 0.0 0.0
358 1 42.755146229508206 26.002268852459018 3.24717710718e-05 0.0 0.0 0.0
359 1 46.31971606557377 27.61538098360656 7.80268735579e-05 0.0 0.0 0.0
360 1 48.856929180327874 27.23770229508197 1.38880174193e-05 0.0 0.0 0.0
361 1 51.96818360655739 26.288759344262296 4.91990097278e-05 0.0 0.0 0.0
362 1 53.48647213114754 26.26406885245902 1.66909930366e-05 0.0 0.0 0.0
363 1 56.00348852459017 26.873858360655742 4.28018228052e-05 0.0 0.0 0.0
364 1 59.01027540983607 26.692643278688525 8.17157874279e-05 0.0 0.0 0.0
365 1 61.26372459016394 25.63408262295082 6.72213310945e-06 0.0 0.0 0.0
366 1 64.97790163934427 26.799130491803282 3.59074833548e-05 0.0 0.0 0.0
367 1 67.74182295081967 27.016497704918038 6.38204963444e-05 0.0 0.0 0.0
368 1 70.11695737704919 27.834161967213117 8.22886184639e-05 0.0 0.0 0.0
369 1 73.19594754098362 25.544156721311477 1.07333048759e-05 0.0 0.0 0.0
370 1 74.6935344262295 25.254030819672135 1.49003592838e-05 0.0 0.0 0.0
371 1 76.95253770491804 24.525181639344265 3.25515588686e-05 0.0 0.0 0.0
372 1 79.88358688524592 24.32240655737705 3.34884464569e-05 0.0 0.0 0.0
373 1 0.7797095737704919 27.35671147540984 1.14699992398e-05 0.0 0.0 0.0
374 1 3.6122542950819674 27.6046262295082 4.28055934813e-05 0.0 0.0 0.0
375 1 6.333792786885247 28.085611147540984 9.03142072385e-05 0.0 0.0 0.0
376 1 8.742453770491803 28.306765245901644 2.15068245246e-05 0.0 0.0 0.0
377 1 11.36711868852459 28.063697704918035 5.63883410547e-05 0.0 0.0 0.0
378 1 14.047021639344264 27.98488 2.88202411199e-05 0.0 0.0 0.0
379 1 16.530208524590165 28.103333770491805 6.20362079745e-05 0.0 0.0 0.0
380 1 18.924529836065577 27.98730360655738 7.20891941196e-05 0.0 0.0 0.0
381 1 21.151874754098362 27.595638688524595 5.72523241545e-05 0.0 0.0 0.0
382 1 24.87609967213115 28.46975278688525 5.39286911191e-05 0.0 0.0 0.0
383 1 27.32475016393443 28.181343606557377 8.26957921792e-05 0.0 0.0 0.0
384 1 29.878777049180332 27.930601311475414 2.36476528585e-05 0.0 0.0 0.0
385 1 31.912889836065574 29.50220918032787 1.77531989796e-05 0.0 0.0 0.0
386 1 35.28559081967213 29.066767868852462 7.48781220128e-05 0.0 0.0 0.0
387 1 37.616898360655746 28.137920655737705 7.5102261452e-05 0.0 0.0 0.0
388 1 41.72314426229509 28.376342950819673 8.04954666415e-05 0.0 0.0 0.0
389 1 44.89079803278689 29.616017704918033 8.50782690476e-05 0.0 0.0 0.0
390 1 48.47712983606558 29.562546885245904 1.75816015964e-05 0.0 0.0 0.0
391 1 50.01011147540984 29.587893770491807 9.70452555738e-05 0.0 0.0 0.0
392 1 52.90379672131148 28.68040459016394 3.63545581342e-05 0.0 0.0 0.0
393 1 54.42410491803279 28.820317377049182 9.37748917472e-05 0.0 0.0 0.0
394 1 56.71542295081967 28.22259540983607 5.00001032431e-05 0.0 0.0 0.0
395 1 60.630557377049186 28.484496393442626 8.05812037418e-05 0.0 0.0 0.0
396 1 63.21422295081968 28.620723278688526 6.35784205593e-05 0.0 0.0 0.0
397 1 65.46514754098361 28.26596786885246 4.47240825877e-05 0.0 0.0 0.0
398 1 69.12883278688525 29.017740327868854 9.37499554086e-05 0.0 0.0 0.0
399 1 72.67537704918034 28.82465967213115 2.10393344767e-05 0.0 0.0 0.0
400 1 74.05683278688525 28.206286557377055 5.91646240778e-05 0.0 0.0 0.0
401 1 77.1191606557377 27.006096393442625 1.17049178564e-05 0.0 0.0 0.0
402 1 78.53394098360657 26.393580327868857 2.22705279766e-05 0.0 0.0 0.0
403 1 80.6152131147541 28.060819672131153 3.11107086194e-05 0.0 0.0 0.0
404 1 82.0936131147541 29.713517377049182 6.36347840934e-05 0.0 0.0 0.0
405 1 2.009200131147541 29.583702950819674 8.4390325893e-06 0.0 0.0 0.0
406 1 4.918891278688525 30.018134426229512 4.86539437819e-05 0.0 0.0 0.0
407 1 7.560036721311476 30.64645442622951 6.60434729631e-05 0.0 0.0 0.0
408 1 9.9022 30.505531803278693 5.80144744472e-05 0.0 0.0 0.0
409 1 13.710493770491805 30.019952131147544 3.88599237476e-05 0.0 0.0 0.0
410 1 15.224389508196722 30.41393967213115 1.51104480403e-05 0.0 0.0 0.0
411 1 18.03052196721312 30.45438360655738 5.38774895743e-05 0.0 0.0 0.0
412 1 20.668466229508198 31.289921967213118 3.81905813245e-05 0.0 0.0 0.0