ITEM: TIMESTEP
0
ITEM: NUMBER OF ATOMS
2232
ITEM: BOX BOUNDS xy xz yz pp pp pp
0.0 82.68810555352132 0
0.0 83.16 0
-10.0 10.0 0
ITEM: ATOMS id type x y z vx vy vz
1 1 1.6824727213114756 0.5139863606557378 8.47491859835e-05 0.0 0.0 0.0
2 1 4.317993377049181 0.6590291147540984 8.94613478597e-05 0.0 0.0 0.0
3 1 6.907531147540984 0.2785370229508197 5.19521829738e-05 0.0 0.0 0.0
4 1 9.180268196721313 1.4679885901639345 6.4641813519e-05 0.0 0.0 0.0
5 1 11.843458360655738 0.45015260327868856 6.90468443209e-05 0.0 0.0 0.0
6 1 14.652973770491803 0.6636390163934427 2.53800858148e-05 0.0 0.0 0.0
7 1 17.14454229508197 1.1177269508196723 4.44937733515e-05 0.0 0.0 0.0
8 1 19.578701639344267 0.6755752786885246 3.60552063152e-05 0.0 0.0 0.0
9 1 22.321921311475414 0.4216302885245902 9.40620229257e-06 0.0 0.0 0.0
10 1 25.061960000000003 0.415378393442623 5.43498330081e-06 0.0 0.0 0.0
11 1 27.758828196721314 0.5656748196721312 3.57275326966e-05 0.0 0.0 0.0
12 1 30.428430819672133 0.7242342295081968 9.70254920359e-05 0.0 0.0 0.0
13 1 33.0322931147541 0.6818817049180328 7.9933259185e-05 0.0 0.0 0.0
14 1 35.58283606557377 0.5540970491803279 7.8330025266e-05 0.0 0.0 0.0
15 1 38.10560852459017 0.558176786885246 2.37113091415e-05 0.0 0.0 0.0
16 1 40.59540983606558 0.38842132459016393 7.29746765782e-05 0.0 0.0 0.0
17 1 43.44370295081968 0.6200999344262296 1.49494781966e-05 0.0 0.0 0.0
18 1 46.43695803278689 1.3100300327868852 1.03116025203e-05 0.0 0.0 0.0
19 1 49.09413967213115 1.5710120655737705 5.46907047343e-05 0.0 0.0 0.0
20 1 51.62332459016394 1.6971405901639345 7.69937263236e-05 0.0 0.0 0.0
21 1 54.231731147540984 1.3017594754098363 1.08715199797e-06 0.0 0.0 0.0
22 1 57.0572524590164 1.1587212459016394 7.28403772581e-05 0.0 0.0 0.0
23 1 59.83531147540984 1.5516636065573772 7.04130906865e-05 0.0 0.0 0.0
24 1 63.004177049180335 1.0922336393442624 5.26996730529e-05 0.0 0.0 0.0
25 1 65.44394098360657 2.087043344262295 9.42454801047e-05 0.0 0.0 0.0
26 1 68.09829508196722 1.144416918032787 8.96883237236e-05 0.0 0.0 0.0
27 1 70.74507540983608 0.953800262295082 7.44359956163e-05 0.0 0.0 0.0
28 1 73.5044524590164 0.7281725901639345 9.12728518641e-05 0.0 0.0 0.0
29 1 76.30876721311476 0.610264131147541 8.16895200546e-05 0.0 0.0 0.0
30 1 78.93939016393443 0.516480655737705 4.46681904969e-05 0.0 0.0 0.0
31 1 81.61343606557378 0.35071101639344265 7.35643521594e-06 0.0 0.0 0.0
32 1 0.23995320655737706 2.6954645245901645 2.48568423023e-05 0.0 0.0 0.0
33 1 2.9865750163934432 2.899496852459017 3.43200369466e-05 0.0 0.0 0.0
34 1 5.770758688524591 2.817210360655738 1.52727388207e-05 0.0 0.0 0.0
35 1 8.541950819672133 2.8828345573770493 1.50015388548e-05 0.0 0.0 0.0
36 1 10.996508852459018 3.0458877377049185 8.13661114706e-05 0.0 0.0 0.0
37 1 13.438948852459017 2.7219626229508203 6.58031900729e-05 0.0 0.0 0.0
38 1 15.976262950819674 3.217277114754099 6.63539679151e-05 0.0 0.0 0.0
39 1 18.538419016393444 3.2861933770491807 3.58935683078e-05 0.0 0.0 0.0
40 1 21.106735081967216 2.7873343606557377 2.03829474404e-05 0.0 0.0 0.0
41 1 23.771339016393444 2.6725816393442625 5.69369256789e-05 0.0 0.0 0.0
42 1 26.474064262295084 2.771020459016394 3.07734673777e-05 0.0 0.0 0.0
43 1 29.120087213114758 2.9462118688524592 9.18790747849e-05 0.0 0.0 0.0
44 1 31.710114754098363 3.057516 8.02551276915e-05 0.0 0.0 0.0
45 1 34.2472268852459 2.998662754098361 8.83578881285e-05 0.0 0.0 0.0
46 1 36.779087868852464 2.937401049180328 2.60635714149e-05 0.0 0.0 0.0
47 1 39.332306885245906 2.8551044590163936 1.02016834243e-06 0.0 0.0 0.0
48 1 41.763638688524594 2.549260459016394 1.89287101781e-05 0.0 0.0 0.0
49 1 43.98275344262296 2.091516918032787 6.68729710466e-05 0.0 0.0 0.0
50 1 47.58615147540984 3.7410235409836066 3.94787074739e-05 0.0 0.0 0.0
51 1 50.44848131147541 4.037253901639345 1.32422337259e-05 0.0 0.0 0.0
52 1 53.12293114754099 3.776529377049181 9.90686598857e-05 0.0 0.0 0.0
53 1 55.62076065573771 3.3839960000000002 7.50564858406e-05 0.0 0.0 0.0
54 1 58.277639344262305 3.5371073442622953 8.14993222115e-05 0.0 0.0 0.0
55 1 60.78455737704919 2.8160742950819673 7.12447813047e-05 0.0 0.0 0.0
56 1 64.71736393442625 3.4308170491803285 9.96702984165e-05 0.0 0.0 0.0
57 1 67.16066229508198 3.7080069508196725 4.76232483297e-05 0.0 0.0 0.0
58 1 69.67818360655738 3.363561967213115 8.09302077376e-05 0.0 0.0 0.0
59 1 72.26336393442624 3.041388918032787 7.00339104601e-05 0.0 0.0 0.0
60 1 74.93589508196722 2.8290860327868854 3.40666460762e-05 0.0 0.0 0.0
61 1 77.5735868852459 2.933346557377049 1.06169529564e-05 0.0 0.0 0.0
62 1 80.22238688524591 2.778498295081967 6.558347182e-05 0.0 0.0 0.0
63 1 1.6060079344262297 5.041147081967214 6.77872683548e-05 0.0 0.0 0.0
64 1 4.334029573770492 5.070538360655738 9.05777540333e-05 0.0 0.0 0.0
65 1 7.026994754098361 5.090381639344263 5.7070493942e-05 0.0 0.0 0.0
66 1 9.682459672131149 5.421102950819672 3.88988040152e-05 0.0 0.0 0.0
67 1 13.033297704918034 5.165614426229509 6.42634359741e-06 0.0 0.0 0.0
68 1 14.561331147540985 5.296489180327869 1.31793807076e-05 0.0 0.0 0.0
69 1 17.11475213114754 5.603782295081968 3.52826434492e-05 0.0 0.0 0.0
70 1 19.808792786885245 5.346577049180328 8.54675856937e-05 0.0 0.0 0.0
71 1 22.483495081967217 5.029730885245902 5.46413036736e-05 0.0 0.0 0.0
72 1 25.170365901639347 4.987130950819672 4.9945883464e-06 0.0 0.0 0.0
73 1 27.88293704918033 5.174500983606558 1.30382612835e-05 0.0 0.0 0.0
74 1 30.459634754098364 5.373792131147541 5.02119140442e-05 0.0 0.0 0.0
75 1 33.10818229508197 5.430999344262296 3.10876850373e-05 0.0 0.0 0.0
76 1 35.679578360655746 5.34652655737705 8.00713412035e-05 0.0 0.0 0.0
77 1 38.34569704918033 5.22065049180328 4.54309023827e-05 0.0 0.0 0.0
78 1 40.97142229508197 5.083868196721312 2.73961767683e-05 0.0 0.0 0.0
79 1 43.30601180327869 6.095925901639345 9.11458361803e-05 0.0 0.0 0.0
80 1 46.12931147540984 5.495073442622951 5.99775244349e-05 0.0 0.0 0.0
81 1 48.2069986885246 5.156222950819672 1.0296781106e-05 0.0 0.0 0.0
82 1 51.85811147540984 6.1416209836065585 8.98744755908e-05 0.0 0.0 0.0
83 1 54.45036065573771 5.956619016393443 2.95134641754e-05 0.0 0.0 0.0
84 1 57.02140327868853 5.721882622950821 6.42727652433e-05 0.0 0.0 0.0
85 1 59.171849180327875 4.784204393442623 7.68162554094e-05 0.0 0.0 0.0
86 1 62.857750819672134 5.197070819672131 8.2865063279e-06 0.0 0.0 0.0
87 1 65.47979016393442 5.954649836065575 1.82810384714e-05 0.0 0.0 0.0
88 1 68.66178360655738 5.917437377049181 6.23312415844e-05 0.0 0.0 0.0
89 1 71.37622295081968 5.515724590163935 3.04974516287e-05 0.0 0.0 0.0
90 1 73.9205049180328 5.1752583606557385 8.70429015857e-05 0.0 0.0 0.0
91 1 76.1416393442623 6.401199344262295 2.4252308351e-05 0.0 0.0 0.0
92 1 78.88182950819673 5.225093770491804 5.91397948371e-05 0.0 0.0 0.0
93 1 81.59626885245903 5.040354360655738 5.87560842811e-05 0.0 0.0 0.0
94 1 0.33560437377049185 7.332722622950821 9.37068419989e-05 0.0 0.0 0.0
95 1 2.9672417049180333 7.321462950819672 2.47434328664e-05 0.0 0.0 0.0
96 1 5.606205901639345 7.374630819672133 6.36778206444e-05 0.0 0.0 0.0
97 1 8.14508524590164 7.551958032786886 4.09558220024e-05 0.0 0.0 0.0
98 1 10.631503606557379 7.915549508196722 2.11325752456e-05 0.0 0.0 0.0
99 1 13.194215081967213 7.877983606557377 7.5908917828e-05 0.0 0.0 0.0
100 1 15.880328524590166 7.852737704918034 2.40819406288e-05 0.0 0.0 0.0
101 1 18.489795409836066 7.742110163934426 3.35094349276e-05 0.0 0.0 0.0
102 1 21.22321967213115 7.445975737704919 3.54664893879e-05 0.0 0.0 0.0
103 1 23.877220327868855 7.278292459016394 4.30363504278e-05 0.0 0.0 0.0
104 1 26.4858793442623 7.3198472131147545 1.07684714689e-05 0.0 0.0 0.0
105 1 29.123116721311476 7.662888524590165 9.77775457876e-05 0.0 0.0 0.0
106 1 31.898398688524594 7.7272150819672145 9.0649682123e-05 0.0 0.0 0.0
107 1 34.739370491803285 7.7420091803278694 6.61120861169e-05 0.0 0.0 0.0
108 1 37.422353442622956 7.509544918032788 2.45167993086e-06 0.0 0.0 0.0
109 1 40.019500327868855 8.450661639344263 8.68626210109e-07 0.0 0.0 0.0
110 1 42.775393442622956 7.533377049180329 2.46454174422e-05 0.0 0.0 0.0
111 1 45.197586229508204 7.765588852459016 6.36379555848e-05 0.0 0.0 0.0
112 1 47.762367868852465 7.976745573770493 6.38783316472e-05 0.0 0.0 0.0
113 1 50.36466491803279 8.290754098360658 4.60439095099e-05 0.0 0.0 0.0
114 1 53.12091147540984 8.380023606557378 1.66756707285e-05 0.0 0.0 0.0
115 1 55.92421639344263 8.173158688524591 9.98123131954e-05 0.0 0.0 0.0
116 1 58.68864262295082 7.6939409836065575 8.20505431418e-05 0.0 0.0 0.0
117 1 61.336937704918036 7.347516721311476 7.48446722858e-05 0.0 0.0 0.0
118 1 63.90444590163935 7.765689836065575 9.19002309938e-05 0.0 0.0 0.0
119 1 66.25938360655739 7.27036524590164 8.17953218773e-05 0.0 0.0 0.0
120 1 70.04172459016394 7.915347540983608 7.91812817441e-05 0.0 0.0 0.0
121 1 72.68749508196723 7.750643278688526 2.08523225801e-05 0.0 0.0 0.0
122 1 75.34184918032788 7.735344262295083 8.9363379975e-07 0.0 0.0 0.0
123 1 77.85028196721312 7.748472131147542 1.0480895908e-06 0.0 0.0 0.0
124 1 80.4460655737705 7.410580983606558 8.17013258754e-05 0.0 0.0 0.0
125 1 1.6762773770491806 9.66231344262295 1.52636916238e-06 0.0 0.0 0.0
126 1 4.3322219672131155 9.67165442622951 9.62934676e-07 0.0 0.0 0.0
127 1 6.892737049180329 9.85524262295082 1.4037038802e-05 0.0 0.0 0.0
128 1 9.370672786885248 10.125424262295082 7.55006975585e-05 0.0 0.0 0.0
129 1 11.900615081967215 10.244786885245903 6.48877561174e-05 0.0 0.0 0.0
130 1 14.587586885245901 10.18520655737705 9.22586069649e-05 0.0 0.0 0.0
131 1 17.570238688524594 10.146883278688525 3.49606822727e-05 0.0 0.0 0.0
132 1 20.166426229508197 9.778545573770492 9.40383243338e-05 0.0 0.0 0.0
133 1 22.768571803278693 9.632472786885247 9.58876259655e-05 0.0 0.0 0.0
134 1 25.333454426229512 9.618335081967214 8.24844794518e-05 0.0 0.0 0.0
135 1 27.68702885245902 10.874167213114756 5.55850647882e-05 0.0 0.0 0.0
136 1 30.575765901639347 9.933555409836067 3.40068910931e-05 0.0 0.0 0.0
137 1 33.4774793442623 9.89220262295082 3.93219681676e-05 0.0 0.0 0.0
138 1 36.35066491803279 9.960568524590165 6.6376872361e-05 0.0 0.0 0.0
139 1 40.15138491803279 9.970262950819674 9.01454613623e-05 0.0 0.0 0.0
140 1 41.677095737704924 9.949510819672133 3.57238023789e-05 0.0 0.0 0.0
141 1 44.15518295081967 10.061400655737707 6.73958511321e-05 0.0 0.0 0.0
142 1 46.4243855737705 11.40604786885246 5.62054458158e-05 0.0 0.0 0.0
143 1 49.134634098360664 10.559300327868854 4.22791565597e-05 0.0 0.0 0.0
144 1 51.86820983606558 10.588585573770493 6.26292587417e-05 0.0 0.0 0.0
145 1 54.62758688524591 10.441553442622952 4.58061311753e-05 0.0 0.0 0.0
146 1 57.473809836065584 10.108913442622953 2.11318324236e-05 0.0 0.0 0.0
147 1 60.165527868852465 9.862866885245902 8.89797641726e-05 0.0 0.0 0.0
148 1 62.735055737704926 9.922295737704918 4.21980396602e-05 0.0 0.0 0.0
149 1 65.44040655737706 9.985511475409837 3.42182760508e-06 0.0 0.0 0.0
150 1 68.24219672131149 9.9754131147541 2.93971251566e-05 0.0 0.0 0.0
151 1 71.0747868852459 10.12396 9.49917648339e-05 0.0 0.0 0.0
152 1 73.75792131147541 10.084525901639346 9.23307068784e-05 0.0 0.0 0.0
153 1 76.42035409836066 10.139965901639345 7.64504537684e-05 0.0 0.0 0.0
154 1 79.19992786885247 9.900281311475412 7.02029752027e-05 0.0 0.0 0.0
155 1 81.84620327868853 9.751380983606557 7.9616980638e-05 0.0 0.0 0.0
156 1 0.5845587540983607 12.129797377049181 7.9844808416e-05 0.0 0.0 0.0
157 1 3.079288065573771 11.95857967213115 8.54747258178e-05 0.0 0.0 0.0
158 1 5.675127213114754 12.129999344262297 5.9434002313e-05 0.0 0.0 0.0
159 1 8.181893770491804 12.409118032786886 7.36727535526e-05 0.0 0.0 0.0
160 1 10.763236721311477 12.56756131147541 7.39422343773e-05 0.0 0.0 0.0
161 1 13.293835409836067 12.459205901639345 3.15238698369e-05 0.0 0.0 0.0
162 1 15.444887213114756 11.468556721311476 7.59563988829e-05 0.0 0.0 0.0
163 1 19.24394098360656 12.244262295081969 9.44134122866e-05 0.0 0.0 0.0
164 1 21.762775081967213 12.004022295081969 3.71785820696e-05 0.0 0.0 0.0
165 1 23.97830491803279 13.209564590163936 3.24913425614e-05 0.0 0.0 0.0
166 1 26.84608786885246 12.182157377049181 7.10404197365e-06 0.0 0.0 0.0
167 1 29.514781639344264 12.227801967213116 1.04235395873e-05 0.0 0.0 0.0
168 1 32.2530531147541 11.99432786885246 7.19264351568e-05 0.0 0.0 0.0
169 1 34.937348852459024 12.070620983606558 2.0498993253e-05 0.0 0.0 0.0
170 1 37.506472786885254 12.422649836065576 4.97435182676e-05 0.0 0.0 0.0
171 1 39.98895278688525 12.463245245901641 8.65386862346e-06 0.0 0.0 0.0
172 1 42.69076918032787 12.446633442622952 4.97665258754e-05 0.0 0.0 0.0
173 1 45.499375737704916 12.635422295081968 1.34281475291e-05 0.0 0.0 0.0
174 1 48.01204983606558 13.130696393442625 5.38997143768e-05 0.0 0.0 0.0
175 1 50.72961967213116 12.868441967213116 9.92590195291e-05 0.0 0.0 0.0
176 1 53.5500918032787 12.7504931147541 4.56960957013e-05 0.0 0.0 0.0
177 1 56.24938360655739 12.368876065573772 6.83947918727e-05 0.0 0.0 0.0
178 1 58.96836721311476 12.271578360655738 8.31019745486e-06 0.0 0.0 0.0
179 1 61.50356065573771 12.30465049180328 8.2569468398e-05 0.0 0.0 0.0
180 1 64.08773114754099 12.273547540983607 4.00655439618e-05 0.0 0.0 0.0
181 1 66.71027540983607 12.20604 6.97925670989e-05 0.0 0.0 0.0
182 1 69.35604590163935 12.19952655737705 9.18604963426e-05 0.0 0.0 0.0
183 1 72.10380983606558 12.404927213114755 4.75458981477e-05 0.0 0.0 0.0
184 1 75.17371147540985 12.435626229508198 7.54946111995e-05 0.0 0.0 0.0
185 1 77.90784262295082 12.187610491803278 1.43241612207e-05 0.0 0.0 0.0
186 1 80.61369836065575 12.135099016393443 2.28342331264e-05 0.0 0.0 0.0
187 1 2.5609341639344265 14.331038032786886 7.64949152255e-05 0.0 0.0 0.0
188 1 4.104716 14.3528 8.38670799571e-05 0.0 0.0 0.0
189 1 6.777363278688526 14.673877377049182 2.44229735215e-05 0.0 0.0 0.0
190 1 9.567035409836068 14.844388196721313 6.13507113587e-05 0.0 0.0 0.0
191 1 12.348426885245901 14.888114098360658 5.31366106182e-05 0.0 0.0 0.0
192 1 15.041659672131148 14.358808524590165 3.03264018005e-05 0.0 0.0 0.0
193 1 17.805429508196724 14.39864655737705 6.67592724779e-05 0.0 0.0 0.0
194 1 20.393134426229512 14.548506229508199 5.86701923538e-05 0.0 0.0 0.0
195 1 23.09358754098361 14.500640000000002 5.44520352893e-05 0.0 0.0 0.0
196 1 25.693360000000002 14.544365901639345 3.79926038236e-05 0.0 0.0 0.0
197 1 28.27919672131148 14.465043278688526 1.65945129712e-05 0.0 0.0 0.0
198 1 31.026758688524595 14.29776393442623 1.26030046067e-05 0.0 0.0 0.0
199 1 33.70580327868853 14.302510163934427 3.86781099415e-05 0.0 0.0 0.0
200 1 36.28689377049181 14.583194098360657 8.39250686282e-05 0.0 0.0 0.0
201 1 38.911912131147545 14.862161311475411 1.8585644236e-05 0.0 0.0 0.0
202 1 41.49295213114755 14.789604590163936 8.09550210345e-05 0.0 0.0 0.0
203 1 43.99270032786885 14.718512131147543 3.2758483006e-05 0.0 0.0 0.0
204 1 45.86528983606558 16.355456393442623 2.7013645399e-05 0.0 0.0 0.0
205 1 49.58592983606558 15.285232131147543 1.41364065468e-05 0.0 0.0 0.0
206 1 52.39736393442624 15.003336393442625 7.45350449153e-05 0.0 0.0 0.0
207 1 55.93936393442623 14.538155409836067 1.19227425534e-05 0.0 0.0 0.0
208 1 57.49097704918033 14.554716721311477 3.94192003275e-05 0.0 0.0 0.0
209 1 60.1412918032787 14.71977442622951 3.97005222623e-05 0.0 0.0 0.0
210 1 62.79211147540985 14.697961967213116 5.13105905474e-05 0.0 0.0 0.0
211 1 65.36466885245902 14.617831475409838 3.63691012674e-05 0.0 0.0 0.0
212 1 67.96903606557377 14.542396721311476 5.91849379477e-05 0.0 0.0 0.0
213 1 70.61834098360656 14.501245901639345 8.59070085355e-05 0.0 0.0 0.0
214 1 72.83442622950821 13.760480655737707 3.29387793594e-05 0.0 0.0 0.0
215 1 76.53295081967214 14.506345573770494 1.8681892311e-05 0.0 0.0 0.0
216 1 79.11156721311475 14.400565245901642 2.71957855755e-05 0.0 0.0 0.0
217 1 81.85933114754098 14.434445245901642 2.72028747749e-06 0.0 0.0 0.0
218 1 82.55005901639345 18.082276065573772 5.0313255735e-06 0.0 0.0 0.0
219 1 2.5048276721311478 16.997611147540983 9.31692878219e-05 0.0 0.0 0.0
220 1 5.318453114754099 16.818920655737706 1.11864644727e-05 0.0 0.0 0.0
221 1 8.133320655737705 16.959136393442623 9.33470589462e-05 0.0 0.0 0.0
222 1 10.940664918032788 17.09793836065574 6.69713521123e-05 0.0 0.0 0.0
223 1 14.656457704918035 16.64366360655738 6.66245175832e-05 0.0 0.0 0.0
224 1 16.207515409836066 16.583376393442624 4.04917650745e-05 0.0 0.0 0.0
225 1 18.88772131147541 16.89536524590164 3.93683939088e-05 0.0 0.0 0.0
226 1 21.431649836065574 16.840935081967213 1.03278728817e-05 0.0 0.0 0.0
227 1 24.332050491803283 16.844772459016397 7.57304042032e-05 0.0 0.0 0.0
228 1 27.10026360655738 16.832452459016398 5.43510569891e-05 0.0 0.0 0.0
229 1 29.69700655737705 16.551465573770496 5.92675470818e-05 0.0 0.0 0.0
230 1 32.36948721311476 16.554394098360657 6.01166684233e-05 0.0 0.0 0.0
231 1 34.93578360655738 16.78297049180328 2.073023776e-05 0.0 0.0 0.0
232 1 37.57044590163935 17.038156065573773 5.78936246333e-05 0.0 0.0 0.0
233 1 40.16153377049181 17.22179475409836 6.20945286268e-05 0.0 0.0 0.0
234 1 42.62432196721312 17.26304655737705 4.34166083398e-06 0.0 0.0 0.0
235 1 45.05984459016394 17.65597377049181 3.58799324775e-05 0.0 0.0 0.0
236 1 47.25245114754099 16.98973442622951 4.19743861407e-05 0.0 0.0 0.0
237 1 50.93411147540984 17.27420524590164 1.04575871081e-05 0.0 0.0 0.0
238 1 53.51979672131148 17.393315409836067 1.5377607118e-05 0.0 0.0 0.0
239 1 56.0600393442623 17.19619540983607 5.10751765172e-05 0.0 0.0 0.0
240 1 58.81840655737705 17.0087193442623 5.94332416109e-06 0.0 0.0 0.0
241 1 61.532845901639355 17.07360131147541 5.97086139749e-05 0.0 0.0 0.0
242 1 64.17053770491803 17.081326557377054 6.15431520404e-06 0.0 0.0 0.0
243 1 66.7087606557377 16.958681967213117 7.70253939026e-05 0.0 0.0 0.0
244 1 69.4620786885246 16.828211147540987 8.70940983902e-06 0.0 0.0 0.0
245 1 72.21539672131148 16.617256393442627 6.80526324764e-05 0.0 0.0 0.0
246 1 74.92781639344263 16.62058885245902 9.84027246408e-05 0.0 0.0 0.0
247 1 77.69274754098362 16.79877442622951 2.5777718292e-05 0.0 0.0 0.0
248 1 80.3693180327869 16.608369836065574 5.81352356994e-05 0.0 0.0 0.0
249 1 1.568144131147541 19.560726557377052 8.17833330885e-05 0.0 0.0 0.0
250 1 4.082868196721312 19.097413770491805 1.89919266881e-05 0.0 0.0 0.0
251 1 6.7466642622950825 19.06954229508197 6.11128832183e-05 0.0 0.0 0.0
252 1 9.45055081967213 19.219856393442626 8.88551986962e-05 0.0 0.0 0.0
253 1 12.025683278688525 19.46226754098361 2.54463383678e-07 0.0 0.0 0.0
254 1 14.480544262295084 19.289737049180328 4.01339993519e-06 0.0 0.0 0.0
255 1 17.239113442622955 19.068986885245902 9.25579203771e-05 0.0 0.0 0.0
256 1 20.006771147540988 19.385570491803282 7.96642249448e-05 0.0 0.0 0.0
257 1 23.27601442622951 18.824101639344264 2.64334078069e-05 0.0 0.0 0.0
258 1 25.978941639344264 18.998853770491806 4.95872061372e-05 0.0 0.0 0.0
259 1 29.211123934426233 18.820264262295083 1.4954585098e-05 0.0 0.0 0.0
260 1 30.7339062295082 18.765531147540987 9.7258425665e-05 0.0 0.0 0.0
261 1 33.27823868852459 18.98204 3.52384282077e-05 0.0 0.0 0.0
262 1 36.06185180327869 19.204658360655742 7.20379343696e-05 0.0 0.0 0.0
263 1 38.66813770491804 19.492512131147542 2.96873216786e-05 0.0 0.0 0.0
264 1 41.24296721311476 19.743910819672134 8.00567376134e-05 0.0 0.0 0.0
265 1 43.606841967213114 19.941788196721316 7.88220172256e-05 0.0 0.0 0.0
266 1 46.50946426229508 19.8067731147541 7.2114782467e-05 0.0 0.0 0.0
267 1 49.34205442622951 19.427478688524594 7.11813979664e-05 0.0 0.0 0.0
268 1 52.08633442622951 19.6650931147541 7.83086663929e-05 0.0 0.0 0.0
269 1 54.85227540983607 19.663477377049183 1.69943359112e-05 0.0 0.0 0.0
270 1 57.54853770491804 19.361990819672133 8.95146890977e-05 0.0 0.0 0.0
271 1 60.23621639344263 19.354467540983606 4.87583239107e-05 0.0 0.0 0.0
272 1 62.9824655737705 19.460146885245905 2.66495792272e-05 0.0 0.0 0.0
273 1 65.62419672131148 19.47494098360656 4.3857850424e-05 0.0 0.0 0.0
274 1 68.1800918032787 19.11917573770492 7.38317775418e-05 0.0 0.0 0.0
275 1 70.91977704918034 18.962651147540985 2.36080422308e-05 0.0 0.0 0.0
276 1 73.58069508196722 18.924832786885247 8.26557513011e-05 0.0 0.0 0.0
277 1 76.23 18.936395409836067 2.66029301193e-06 0.0 0.0 0.0
278 1 79.05198688524591 18.99622819672131 2.14685620578e-05 0.0 0.0 0.0
279 1 81.7780393442623 19.400162622950823 6.4422478339e-05 0.0 0.0 0.0
280 1 0.2184886360655738 21.887944262295083 9.3923988537e-05 0.0 0.0 0.0
281 1 2.7907779016393444 21.680019016393445 8.47195564334e-05 0.0 0.0 0.0
282 1 5.421809836065574 21.38095606557377 4.22319259587e-05 0.0 0.0 0.0
283 1 8.075709508196722 21.403525901639345 3.69050952903e-05 0.0 0.0 0.0
284 1 10.773284590163936 21.69940786885246 8.5886838625e-05 0.0 0.0 0.0
285 1 13.23758754098361 21.815589508196723 8.23083145791e-05 0.0 0.0 0.0
286 1 15.66846491803279 21.423571147540986 8.45802734061e-05 0.0 0.0 0.0
287 1 18.8543462295082 22.608916721311477 6.19535932103e-05 0.0 0.0 0.0
288 1 21.189137704918036 20.454633442622953 6.30859868927e-06 0.0 0.0 0.0
289 1 24.017284590163936 20.993835409836066 7.84063384587e-05 0.0 0.0 0.0
290 1 26.536017704918038 21.5832262295082 9.17299595849e-05 0.0 0.0 0.0
291 1 29.09958754098361 21.582165901639346 8.1233335145e-07 0.0 0.0 0.0
292 1 31.668913442622955 21.22332065573771 9.09897020344e-06 0.0 0.0 0.0
293 1 34.34856393442624 21.211909508196722 8.64882473266e-05 0.0 0.0 0.0
294 1 37.01034032786886 21.66416459016394 5.51261821598e-05 0.0 0.0 0.0
295 1 39.60435672131148 21.9843331147541 8.29091973998e-05 0.0 0.0 0.0
296 1 42.91904262295082 23.581439344262296 3.19443323243e-05 0.0 0.0 0.0
297 1 45.348910163934434 21.929700983606562 8.86703116256e-05 0.0 0.0 0.0
298 1 48.100713442622954 21.730864262295086 3.82126009766e-05 0.0 0.0 0.0
299 1 50.69074098360657 21.776660327868854 9.51945803182e-05 0.0 0.0 0.0
300 1 53.44153442622951 21.868403934426233 3.39102663848e-05 0.0 0.0 0.0
301 1 56.18071475409836 21.779285901639348 6.42424581102e-05 0.0 0.0 0.0
302 1 58.82749508196722 21.680422950819672 8.65918106037e-06 0.0 0.0 0.0
303 1 61.53940983606558 21.686885901639346 1.11025533826e-05 0.0 0.0 0.0
304 1 64.36947540983607 21.88425836065574 8.13661551333e-05 0.0 0.0 0.0
305 1 67.79534426229509 21.51965704918033 7.36099842453e-05 0.0 0.0 0.0
306 1 69.32979016393443 21.24523409836066 9.27057074511e-05 0.0 0.0 0.0
307 1 72.14117377049182 21.271489836065577 4.47004026959e-05 0.0 0.0 0.0
308 1 74.93488524590164 21.282648524590165 4.13813150038e-05 0.0 0.0 0.0
309 1 77.62609836065575 21.114106885245903 9.94967522745e-05 0.0 0.0 0.0
310 1 80.33245901639344 21.408878032786888 4.56792131375e-05 0.0 0.0 0.0
311 1 1.5094827540983609 24.15472327868853 6.23736574909e-05 0.0 0.0 0.0
312 1 4.143524 23.816579672131148 8.92957360327e-05 0.0 0.0 0.0
313 1 6.694152786885247 23.685452459016396 1.76371355991e-05 0.0 0.0 0.0
314 1 9.328714098360656 23.785173770491806 1.01017700101e-05 0.0 0.0 0.0
315 1 12.03941704918033 24.22425049180328 7.4627514143e-05 0.0 0.0 0.0
316 1 14.877106885245905 24.040308852459017 1.81444686526e-05 0.0 0.0 0.0
317 1 16.81064 22.436891147540987 7.1793104558e-05 0.0 0.0 0.0
318 1 20.364404590163936 24.03768327868853 4.35880438137e-05 0.0 0.0 0.0
319 1 22.611037377049183 23.23552 1.34317673221e-05 0.0 0.0 0.0
320 1 25.2076793442623 23.62284262295082 2.44727936332e-05 0.0 0.0 0.0
321 1 27.900861639344267 23.929580327868855 4.91619992253e-06 0.0 0.0 0.0
322 1 30.606464918032792 23.74579016393443 9.12587983896e-05 0.0 0.0 0.0
323 1 33.11676590163935 23.46419737704918 2.8699663558e-05 0.0 0.0 0.0
324 1 35.40646819672131 24.678323278688527 4.19235546861e-05 0.0 0.0 0.0
325 1 38.288641311475416 24.157500327868856 6.70540002033e-05 0.0 0.0 0.0
326 1 40.53002295081968 23.2177468852459 9.3420034488e-05 0.0 0.0 0.0
327 1 45.34724393442623 24.275247213114756 7.41081864243e-05 0.0 0.0 0.0
328 1 46.84387147540984 24.015466885245903 6.70483194628e-05 0.0 0.0 0.0
329 1 49.26656918032788 24.111805245901643 7.68146083708e-05 0.0 0.0 0.0
330 1 51.944957377049185 24.039601967213116 9.26704510037e-05 0.0 0.0 0.0
331 1 54.73967868852459 24.062979672131153 8.97491505755e-05 0.0 0.0 0.0
332 1 57.333947540983615 24.061313442622954 2.74842727652e-05 0.0 0.0 0.0
333 1 59.95144262295083 23.969266885245904 7.0324949411e-05 0.0 0.0 0.0
334 1 62.569442622950824 23.94094098360656 4.48374020779e-05 0.0 0.0 0.0
335 1 65.26015081967213 24.40597049180328 6.96552248149e-05 0.0 0.0 0.0
336 1 68.00387540983607 24.30629967213115 8.20136887702e-05 0.0 0.0 0.0
337 1 70.67943606557378 23.467832786885246 2.41330375731e-05 0.0 0.0 0.0
338 1 73.47466229508197 23.502975081967215 6.49786351914e-05 0.0 0.0 0.0
339 1 77.12269508196722 23.287122622950825 3.58051895047e-05 0.0 0.0 0.0
340 1 78.66420983606558 23.466520000000003 5.62513902575e-06 0.0 0.0 0.0
341 1 81.40238032786885 23.97456852459017 1.81150899115e-05 0.0 0.0 0.0
342 1 0.02039232655737705 26.284164590163936 7.10334422132e-05 0.0 0.0 0.0
343 1 3.764815278688525 26.061748196721314 8.20366508927e-05 0.0 0.0 0.0
344 1 5.314615737704919 26.110472786885246 8.92977707168e-05 0.0 0.0 0.0
345 1 7.89868524590164 26.02342491803279 5.4198317395e-05 0.0 0.0 0.0
346 1 10.593786229508199 26.183837377049183 6.03738418935e-05 0.0 0.0 0.0
347 1 12.820979672131148 25.56758491803279 5.44948229915e-05 0.0 0.0 0.0
348 1 16.539448524590167 25.510428196721314 9.9424555655e-05 0.0 0.0 0.0
349 1 18.936496393442624 25.6388793442623 8.1758020664e-05 0.0 0.0 0.0
350 1 21.56550360655738 26.014740327868854 6.79890035434e-05 0.0 0.0 0.0
351 1 23.92528852459017 25.78384131147541 9.24908738963e-05 0.0 0.0 0.0
352 1 26.548842622950822 26.0269593442623 2.42439704436e-05 0.0 0.0 0.0
353 1 29.309885901639348 26.09340655737705 5.15854469384e-05 0.0 0.0 0.0
354 1 32.057952786885245 26.02302098360656 8.17372201468e-05 0.0 0.0 0.0
355 1 34.77754229508197 26.069321967213117 3.96307703847e-05 0.0 0.0 0.0
356 1 37.14878885245902 27.515306229508198 3.92489653779e-05 0.0 0.0 0.0
357 1 39.83646754098361 26.24215540983607 1.01018686316e-05 0.0 0.0 0.0
358 1 42.47956196721312 26.583126557377053 1.61025244739e-05 0.0 0.0 0.0
359 1 45.06034950819673 26.9393462295082 3.29392985213e-05 0.0 0.0 0.0
360 1 47.818110819672135 26.537481967213118 7.57272847261e-05 0.0 0.0 0.0
361 1 50.45433836065574 26.35197508196722 7.88103005687e-05 0.0 0.0 0.0
362 1 53.18301639344263 26.209184262295086 1.14374479408e-05 0.0 0.0 0.0
363 1 55.827272131147545 26.438518032786888 8.85494451908e-05 0.0 0.0 0.0
364 1 58.49071475409836 26.37000065573771 4.51750819209e-05 0.0 0.0 0.0
365 1 61.11931803278689 26.303553442622956 4.45107618674e-05 0.0 0.0 0.0
366 1 63.70348852459017 26.378180327868854 8.10345805576e-06 0.0 0.0 0.0
367 1 65.99834098360657 25.761120000000005 9.43057070989e-05 0.0 0.0 0.0
368 1 70.24874098360657 25.894973770491806 2.10525689495e-05 0.0 0.0 0.0
369 1 71.75996065573771 25.631255081967215 3.82469700661e-05 0.0 0.0 0.0
370 1 74.3052524590164 25.954958032786887 1.43785200533e-06 0.0 0.0 0.0
371 1 76.98182295081968 25.859225573770495 8.48321282008e-05 0.0 0.0 0.0
372 1 79.86238032786886 25.947384262295085 2.90102097301e-06 0.0 0.0 0.0
373 1 1.0079476721311476 28.66061180327869 9.40632861352e-05 0.0 0.0 0.0
374 1 3.7061286557377056 28.613452459016397 9.47846124986e-05 0.0 0.0 0.0
375 1 7.475260983606558 28.223403278688526 5.56624362447e-05 0.0 0.0 0.0
376 1 9.027076065573771 28.322114754098365 9.43449484851e-05 0.0 0.0 0.0
377 1 11.814274098360656 28.4146662295082 2.58368621405e-05 0.0 0.0 0.0
378 1 15.836855081967215 28.163065573770496 1.15704595298e-05 0.0 0.0 0.0
379 1 18.272024262295083 27.927521311475413 8.79651004027e-05 0.0 0.0 0.0
380 1 19.803137704918036 28.046126557377054 4.86352386959e-05 0.0 0.0 0.0
381 1 22.413311475409838 28.334434754098364 5.64266918132e-05 0.0 0.0 0.0
382 1 25.074936393442627 28.22951278688525 7.13478869303e-05 0.0 0.0 0.0
383 1 27.831485901639347 28.277379016393446 4.28912001827e-05 0.0 0.0 0.0
384 1 30.61257442622951 28.300504262295085 7.93633233519e-05 0.0 0.0 0.0
385 1 33.33433508196722 28.338171147540987 8.36405715099e-05 0.0 0.0 0.0
386 1 36.12971278688525 28.67379016393443 7.69607313989e-05 0.0 0.0 0.0
387 1 38.69696852459017 28.845209836065578 5.61506484817e-05 0.0 0.0 0.0
388 1 41.19474754098361 28.782347540983608 4.28177001737e-05 0.0 0.0 0.0
389 1 43.726810491803285 29.106706885245906 5.66474144726e-05 0.0 0.0 0.0
390 1 46.50537442622951 28.939932459016397 4.75525778226e-05 0.0 0.0 0.0
391 1 49.30645770491804 28.773208524590167 5.94380662172e-05 0.0 0.0 0.0
392 1 52.04089180327869 28.485304262295084 3.77216300422e-05 0.0 0.0 0.0
393 1 54.397344262295086 29.709427540983608 5.57036537158e-05 0.0 0.0 0.0
394 1 57.187521311475415 28.74109573770492 1.29305261729e-05 0.0 0.0 0.0
395 1 59.88327868852459 28.680505573770496 5.71442815723e-05 0.0 0.0 0.0
396 1 62.480072131147544 28.695804590163938 6.2767592933e-05 0.0 0.0 0.0
397 1 65.14149508196722 28.55139803278689 2.00213500033e-05 0.0 0.0 0.0
398 1 67.92308852459017 28.750133770491804 9.34516206356e-05 0.0 0.0 0.0
399 1 70.24217704918034 28.821125245901644 6.9939914251e-05 0.0 0.0 0.0
400 1 72.84502950819672 28.161803278688527 9.23126270561e-05 0.0 0.0 0.0
401 1 75.62258360655738 28.166852459016393 7.27922070817e-05 0.0 0.0 0.0
402 1 78.3208655737705 28.02002229508197 9.21558795313e-05 0.0 0.0 0.0
403 1 81.09539016393443 28.262685901639347 2.50291918906e-05 0.0 0.0 0.0
404 1 82.35314098360656 30.79045704918033 7.6065931016e-05 0.0 0.0 0.0
405 1 2.397618426229508 30.88260459016394 1.86411216141e-05 0.0 0.0 0.0
406 1 5.007827540983607 30.935721967213116 3.22264083495e-05 0.0 0.0 0.0
407 1 7.459255081967213 30.795708196721314 6.00986539486e-05 0.0 0.0 0.0
408 1 10.190508196721312 30.62656065573771 8.67176210132e-05 0.0 0.0 0.0
409 1 12.836884590163935 30.745670819672135 8.36026567925e-06 0.0 0.0 0.0
410 1 15.34233836065574 30.6168662295082 5.33933644193e-05 0.0 0.0 0.0
411 1 17.93797049180328 30.38197836065574 7.86584316979e-05 0.0 0.0 0.0
412 1 20.79005049180328 30.525072131147546 6.44325441891e-05 0.0 0.0 0.0
413 1 23.550790819672134 30.56945442622951 7.66805699869e-06 0.0 0.0 0.0