ITEM: TIMESTEP
0
ITEM: NUMBER OF ATOMS
2232
ITEM: BOX BOUNDS xy xz yz pp pp pp
0.0 82.68810555352132 0
0.0 83.16 0
-10.0 10.0 0
ITEM: ATOMS id type x y z vx vy vz
1 1 1.5121285245901641 0.8356595409836066 2.54754709964e-06 0.0 0.0 0.0
2 1 4.164675016393443 0.5449378360655739 8.46407895305e-06 0.0 0.0 0.0
3 1 7.42709180327869 0.832604786885246 5.52667682497e-05 0.0 0.0 0.0
4 1 8.909430163934427 1.1764741639344263 6.64234494051e-05 0.0 0.0 0.0
5 1 11.529853770491805 2.618939147540984 1.15040858264e-05 0.0 0.0 0.0
6 1 14.190418360655737 1.022524655737705 9.25736426555e-05 0.0 0.0 0.0
7 1 16.61215672131148 2.070583016393443 9.13449067292e-06 0.0 0.0 0.0
8 1 19.33260459016394 0.9135229508196723 1.28957190912e-05 0.0 0.0 0.0
9 1 21.974436721311477 0.8635512131147542 3.40552186784e-05 0.0 0.0 0.0
10 1 24.604100327868856 1.170748393442623 4.60407150582e-05 0.0 0.0 0.0
11 1 27.637546885245904 1.0285533770491804 8.48407416085e-05 0.0 0.0 0.0
12 1 30.300181639344267 0.6873701639344263 2.87434863014e-05 0.0 0.0 0.0
13 1 32.985790163934425 2.059681836065574 5.79742233075e-05 0.0 0.0 0.0
14 1 35.704723278688526 0.9767639344262297 3.86161168685e-05 0.0 0.0 0.0
15 1 38.06556852459017 1.9836916721311477 2.59384579216e-05 0.0 0.0 0.0
16 1 40.754156065573774 0.7914337704918034 8.32842051151e-05 0.0 0.0 0.0
17 1 43.3119193442623 0.2553446229508197 7.59070940484e-05 0.0 0.0 0.0
18 1 46.22802295081967 0.18260764590163936 4.7970383053e-05 0.0 0.0 0.0
19 1 48.83688393442623 1.115308393442623 3.57717262677e-05 0.0 0.0 0.0
20 1 51.68139016393443 0.41937431475409837 9.30576473349e-05 0.0 0.0 0.0
21 1 54.43218360655738 0.6021551475409836 8.99020068803e-05 0.0 0.0 0.0
22 1 57.105724590163945 0.9089988852459017 2.41864434366e-05 0.0 0.0 0.0
23 1 59.728268852459024 0.7634259672131148 1.90450401571e-05 0.0 0.0 0.0
24 1 62.73808524590165 0.6905410491803279 7.3020564878e-05 0.0 0.0 0.0
25 1 65.535331147541 0.9865088524590164 5.55750584268e-05 0.0 0.0 0.0
26 1 68.3724655737705 1.3199769180327872 3.99709944584e-05 0.0 0.0 0.0
27 1 70.9172524590164 1.0137794754098362 3.69237629993e-05 0.0 0.0 0.0
28 1 73.60139672131149 0.7570034098360656 5.59501600438e-05 0.0 0.0 0.0
29 1 75.8760524590164 0.18651621639344262 9.90411963286e-05 0.0 0.0 0.0
30 1 78.45668852459016 83.00398032786886 5.09880839078e-05 0.0 0.0 0.0
31 1 81.03580983606558 0.31320419016393447 7.59348653709e-06 0.0 0.0 0.0
32 1 81.54426229508198 1.7682179016393444 6.39794861239e-05 0.0 0.0 0.0
33 1 3.6211156065573773 2.8229613770491806 5.54687017419e-06 0.0 0.0 0.0
34 1 5.114163278688525 3.160095147540984 2.85790546365e-05 0.0 0.0 0.0
35 1 7.665261639344263 4.833731803278689 2.92471855171e-05 0.0 0.0 0.0
36 1 10.670685245901641 3.9290449180327873 4.80994708426e-05 0.0 0.0 0.0
37 1 13.392950819672132 3.6310321967213115 6.99389023932e-05 0.0 0.0 0.0
38 1 15.892749508196722 3.4152655737704922 2.35351899217e-05 0.0 0.0 0.0
39 1 18.249403934426233 3.368388983606558 2.60624890667e-05 0.0 0.0 0.0
40 1 20.641352131147542 3.184644262295082 6.46865844064e-05 0.0 0.0 0.0
41 1 23.595526557377053 3.2554438688524594 2.46717018655e-05 0.0 0.0 0.0
42 1 25.440749508196724 2.4718817704918035 5.2173034969e-05 0.0 0.0 0.0
43 1 29.30705836065574 3.041439409836066 5.14714182986e-05 0.0 0.0 0.0
44 1 32.898641311475416 3.56865462295082 8.35375388496e-05 0.0 0.0 0.0
45 1 34.422281967213124 3.4262121967213117 7.81371782133e-05 0.0 0.0 0.0
46 1 37.203824918032794 3.2537170491803282 3.53160715838e-05 0.0 0.0 0.0
47 1 39.92492918032787 3.2763121311475416 9.54945071866e-05 0.0 0.0 0.0
48 1 43.1870531147541 2.4918613770491804 1.33906517868e-05 0.0 0.0 0.0
49 1 44.715540983606566 2.3743417049180326 7.22517996913e-05 0.0 0.0 0.0
50 1 48.13262426229509 2.4702761311475414 8.07438340549e-05 0.0 0.0 0.0
51 1 50.66196065573771 2.748561704918033 7.04059664787e-06 0.0 0.0 0.0
52 1 53.215331147540994 2.7351763278688526 1.16125075613e-05 0.0 0.0 0.0
53 1 55.84797377049181 3.0341382950819678 4.30603108338e-05 0.0 0.0 0.0
54 1 58.48011147540984 3.1704914098360657 3.44067354711e-05 0.0 0.0 0.0
55 1 61.12638688524591 2.773358229508197 5.50402939382e-05 0.0 0.0 0.0
56 1 63.93221639344263 2.976628131147541 3.38190954954e-05 0.0 0.0 0.0
57 1 66.72138360655738 3.2741409836065576 7.95908220348e-05 0.0 0.0 0.0
58 1 70.84353442622951 3.217827475409836 7.4543150338e-05 0.0 0.0 0.0
59 1 72.39262295081969 3.1157633442622954 3.58119700584e-05 0.0 0.0 0.0
60 1 75.93714754098362 2.6202266885245904 6.39484575605e-05 0.0 0.0 0.0
61 1 77.43624918032788 2.277326754098361 8.60755987299e-05 0.0 0.0 0.0
62 1 80.37487213114754 2.802739409836066 1.89694471841e-05 0.0 0.0 0.0
63 1 0.8198606557377051 4.80714786885246 2.14622868933e-05 0.0 0.0 0.0
64 1 2.8519537704918037 6.713491147540984 6.53121406088e-05 0.0 0.0 0.0
65 1 7.13408786885246 6.322078688524591 1.16514480932e-06 0.0 0.0 0.0
66 1 9.535124590163935 6.18888131147541 9.22496353318e-05 0.0 0.0 0.0
67 1 12.343781639344263 5.959497049180328 9.64321374204e-05 0.0 0.0 0.0
68 1 15.346276721311476 5.804638688524591 7.91569253914e-05 0.0 0.0 0.0
69 1 16.876481311475413 5.838316721311476 2.91053651897e-06 0.0 0.0 0.0
70 1 19.498975081967213 5.719610491803279 3.40406735542e-05 0.0 0.0 0.0
71 1 21.452906885245905 4.461051803278689 8.28593225199e-05 0.0 0.0 0.0
72 1 25.00828721311476 5.496234754098362 5.35624621799e-05 0.0 0.0 0.0
73 1 28.590024262295085 4.950049770491804 4.31209027357e-05 0.0 0.0 0.0
74 1 28.41542360655738 7.493993442622952 8.19512415685e-05 0.0 0.0 0.0
75 1 32.41462688524591 5.621050491803279 2.86840318912e-05 0.0 0.0 0.0
76 1 35.43534950819673 5.467100983606558 3.54438917282e-05 0.0 0.0 0.0
77 1 38.33302360655738 5.434533770491804 6.44354411265e-05 0.0 0.0 0.0
78 1 41.01913704918033 5.636551475409837 3.57237650984e-06 0.0 0.0 0.0
79 1 43.57129573770492 5.181519344262296 5.32046435293e-05 0.0 0.0 0.0
80 1 45.56678229508197 3.6870074098360663 3.84739400309e-05 0.0 0.0 0.0
81 1 49.16710032786886 5.821957377049181 5.90287293821e-05 0.0 0.0 0.0
82 1 51.98333114754099 5.107851803278689 5.86323109127e-05 0.0 0.0 0.0
83 1 54.39179016393443 5.188941639344263 4.28039717969e-06 0.0 0.0 0.0
84 1 57.0380655737705 5.447156721311476 9.51630229621e-05 0.0 0.0 0.0
85 1 59.97113442622951 5.283209836065574 1.89712948555e-05 0.0 0.0 0.0
86 1 62.66083278688525 5.002525901639345 5.89933006517e-05 0.0 0.0 0.0
87 1 65.13442622950821 5.25947868852459 2.72827010454e-05 0.0 0.0 0.0
88 1 67.40403278688525 6.730355409836066 4.29887363131e-05 0.0 0.0 0.0
89 1 69.2116393442623 4.976078295081967 2.1730239816e-05 0.0 0.0 0.0
90 1 73.51354098360656 5.420648524590164 6.71071159464e-05 0.0 0.0 0.0
91 1 76.10377049180329 5.319715409836066 2.27386192609e-05 0.0 0.0 0.0
92 1 78.83184262295082 5.351373770491803 8.56829291048e-05 0.0 0.0 0.0
93 1 80.99996065573771 5.3714190163934425 4.24019142942e-06 0.0 0.0 0.0
94 1 0.1822784393442623 7.33428786885246 9.93820103539e-05 0.0 0.0 0.0
95 1 4.237494295081968 7.377104918032788 6.25321930247e-05 0.0 0.0 0.0
96 1 6.025287868852459 8.676713442622951 1.21216366504e-05 0.0 0.0 0.0
97 1 8.759721967213116 8.73452655737705 7.73046375775e-05 0.0 0.0 0.0
98 1 11.9196 7.852131803278689 3.93946530288e-05 0.0 0.0 0.0
99 1 12.937565245901641 9.740070819672132 6.62519608327e-05 0.0 0.0 0.0
100 1 15.740870163934428 8.502516721311476 7.26810807455e-06 0.0 0.0 0.0
101 1 18.520443934426233 8.05692655737705 9.06269774735e-05 0.0 0.0 0.0
102 1 22.234721967213115 6.825027540983607 8.74544192262e-05 0.0 0.0 0.0
103 1 22.135101639344263 9.556583606557378 1.26255370648e-05 0.0 0.0 0.0
104 1 26.171113442622953 8.091361967213114 2.90349703708e-05 0.0 0.0 0.0
105 1 29.937650491803282 7.409015737704919 8.50911739119e-05 0.0 0.0 0.0
106 1 31.981407213114757 7.790935737704919 4.58257584545e-05 0.0 0.0 0.0
107 1 33.70151147540984 8.852121967213115 2.66982159882e-05 0.0 0.0 0.0
108 1 37.71273180327869 7.240524590163935 7.1729048727e-05 0.0 0.0 0.0
109 1 39.168965901639346 7.695253770491805 5.3577472427e-05 0.0 0.0 0.0
110 1 42.35282754098361 7.721307540983607 9.9046230391e-05 0.0 0.0 0.0
111 1 45.696344262295085 6.620333770491804 5.8146907025e-05 0.0 0.0 0.0
112 1 49.21880393442624 7.34120524590164 6.52592871103e-06 0.0 0.0 0.0
113 1 50.73315409836066 7.419568524590164 2.63773233839e-05 0.0 0.0 0.0
114 1 53.179481967213114 7.632795409836066 1.82207167517e-06 0.0 0.0 0.0
115 1 55.651560655737704 7.590634754098361 9.87677220384e-06 0.0 0.0 0.0
116 1 57.83078688524591 6.766507540983607 6.05455026201e-05 0.0 0.0 0.0
117 1 61.58333770491804 7.3354996721311485 9.44439351536e-05 0.0 0.0 0.0
118 1 63.78579016393443 8.761539672131148 5.32572138488e-05 0.0 0.0 0.0
119 1 66.80318032786886 8.122111475409836 5.15815404134e-05 0.0 0.0 0.0
120 1 69.61860327868852 7.809415737704919 2.90516950791e-06 0.0 0.0 0.0
121 1 72.35626885245902 7.201544918032788 9.16627969994e-05 0.0 0.0 0.0
122 1 75.17674098360656 7.69692 2.08936438556e-05 0.0 0.0 0.0
123 1 77.78767213114754 7.606388196721312 3.82690092811e-06 0.0 0.0 0.0
124 1 80.28095737704918 7.89020262295082 3.42771359438e-05 0.0 0.0 0.0
125 1 1.998965442622951 9.187084590163936 7.75936610665e-05 0.0 0.0 0.0
126 1 4.627043606557377 11.062602622950822 6.54236274493e-05 0.0 0.0 0.0
127 1 7.216894426229509 10.920316721311476 3.66009564666e-05 0.0 0.0 0.0
128 1 9.610205901639345 11.26280262295082 4.39549898235e-05 0.0 0.0 0.0
129 1 12.684096393442623 11.242959344262296 2.7004966866e-05 0.0 0.0 0.0
130 1 15.332492459016395 10.620950819672132 6.9985879534e-05 0.0 0.0 0.0
131 1 18.379319344262296 10.080335081967215 2.32138352864e-05 0.0 0.0 0.0
132 1 19.922752786885248 10.047868852459017 5.06355549911e-05 0.0 0.0 0.0
133 1 23.660408524590167 9.657718688524591 7.71066113547e-06 0.0 0.0 0.0
134 1 25.473821639344266 10.71072524590164 8.77228742742e-05 0.0 0.0 0.0
135 1 28.142616393442626 10.18556 6.75938361995e-05 0.0 0.0 0.0
136 1 30.747892459016395 10.202373770491803 1.03447019944e-05 0.0 0.0 0.0
137 1 33.054862950819675 10.230093770491804 6.74809645589e-05 0.0 0.0 0.0
138 1 35.683163278688525 10.191114098360657 9.29499550339e-05 0.0 0.0 0.0
139 1 38.22789967213115 10.686640655737705 6.23319645061e-05 0.0 0.0 0.0
140 1 39.998192786885255 8.980270163934426 8.90338242221e-05 0.0 0.0 0.0
141 1 43.50348524590164 8.703777049180328 4.96556491337e-05 0.0 0.0 0.0
142 1 45.84433573770492 10.358898360655738 5.51603608218e-05 0.0 0.0 0.0
143 1 48.71383540983607 9.897958688524591 3.22155351444e-05 0.0 0.0 0.0
144 1 51.678865573770494 9.953600655737706 5.46519129074e-05 0.0 0.0 0.0
145 1 54.603855737704926 10.047616393442624 9.77330942085e-05 0.0 0.0 0.0
146 1 57.23245901639345 9.646055081967214 9.95315776707e-05 0.0 0.0 0.0
147 1 59.945383606557385 9.521188852459018 7.21770429533e-05 0.0 0.0 0.0
148 1 62.6320524590164 9.816666885245903 2.9441709967e-05 0.0 0.0 0.0
149 1 66.01096393442623 10.009293114754099 5.28513157597e-05 0.0 0.0 0.0
150 1 68.69056393442624 10.027419672131149 3.37818085799e-05 0.0 0.0 0.0
151 1 71.98919344262295 9.375772459016394 1.74444779632e-05 0.0 0.0 0.0
152 1 73.50697704918034 9.54608131147541 4.81912583177e-05 0.0 0.0 0.0
153 1 77.11158688524591 9.9176 9.38855716364e-05 0.0 0.0 0.0
154 1 79.47056393442624 10.10780262295082 1.04798124886e-06 0.0 0.0 0.0
155 1 82.07644590163936 9.841963278688526 9.19106988816e-05 0.0 0.0 0.0
156 1 0.41644225573770494 11.747826885245903 1.15351013813e-05 0.0 0.0 0.0
157 1 3.9969412459016396 12.442998032786885 6.63023498644e-05 0.0 0.0 0.0
158 1 5.338195409836066 13.15786098360656 8.37715443095e-05 0.0 0.0 0.0
159 1 8.03965836065574 13.532055737704919 8.41010678448e-05 0.0 0.0 0.0
160 1 10.229235409836066 12.669706229508199 8.48459293456e-05 0.0 0.0 0.0
161 1 14.957641311475411 12.843196065573771 1.32587475051e-05 0.0 0.0 0.0
162 1 16.45305704918033 12.900706229508199 1.94184332299e-05 0.0 0.0 0.0
163 1 18.58365967213115 13.066723278688526 6.99422913887e-05 0.0 0.0 0.0
164 1 21.906424262295083 12.255118032786886 2.82162138217e-05 0.0 0.0 0.0
165 1 23.42648 12.53029836065574 7.06130655772e-05 0.0 0.0 0.0
166 1 26.3226393442623 11.977110163934428 9.39263409204e-05 0.0 0.0 0.0
167 1 29.105899016393444 12.458549508196722 6.05601531073e-05 0.0 0.0 0.0
168 1 31.874920000000003 12.734588196721313 3.33320656701e-05 0.0 0.0 0.0
169 1 34.728009836065574 12.407906229508198 2.35132371629e-05 0.0 0.0 0.0
170 1 37.52111540983607 12.017604590163936 1.94265170231e-06 0.0 0.0 0.0
171 1 40.040504918032795 11.961609180327871 5.25859884783e-05 0.0 0.0 0.0
172 1 42.60518557377049 11.525612459016394 7.70121623975e-06 0.0 0.0 0.0
173 1 45.097208524590165 11.703848524590166 3.24783409836e-07 0.0 0.0 0.0
174 1 47.583273442622954 13.100805245901642 3.40722416431e-06 0.0 0.0 0.0
175 1 50.34088327868853 11.980998032786886 3.07232126578e-05 0.0 0.0 0.0
176 1 53.0916262295082 12.073196065573772 1.38797359391e-06 0.0 0.0 0.0
177 1 56.819940983606564 12.009980327868854 2.94967403281e-05 0.0 0.0 0.0
178 1 58.36196065573771 11.840024918032789 5.2464878663e-05 0.0 0.0 0.0
179 1 60.82293114754099 11.935706885245903 5.35953794598e-05 0.0 0.0 0.0
180 1 63.21220327868853 12.640118032786885 4.40778996917e-05 0.0 0.0 0.0
181 1 65.81808524590166 12.187711475409838 3.81534841084e-05 0.0 0.0 0.0
182 1 67.35354098360656 10.724761967213116 6.51294721439e-05 0.0 0.0 0.0
183 1 71.77864262295083 12.159133114754098 4.53688357949e-05 0.0 0.0 0.0
184 1 74.47540983606558 12.291068196721312 1.5588939358e-05 0.0 0.0 0.0
185 1 76.61828196721312 12.300661639344263 1.51729581856e-05 0.0 0.0 0.0
186 1 78.22947540983607 11.00064918032787 4.62292141868e-05 0.0 0.0 0.0
187 1 0.9472767213114756 14.452874754098362 7.71499287682e-05 0.0 0.0 0.0
188 1 3.1396308196721314 14.88144918032787 5.37857516765e-06 0.0 0.0 0.0
189 1 5.66220131147541 14.648429508196724 9.51530034476e-05 0.0 0.0 0.0
190 1 9.240151475409837 15.549102295081969 4.99857461948e-05 0.0 0.0 0.0
191 1 12.69969836065574 15.242112131147543 2.66590699749e-06 0.0 0.0 0.0
192 1 14.197083278688526 15.460438688524592 6.07173986655e-06 0.0 0.0 0.0
193 1 16.81341704918033 15.466144262295083 6.57684863465e-05 0.0 0.0 0.0
194 1 19.47605180327869 15.462559344262296 1.38214733418e-05 0.0 0.0 0.0
195 1 21.918491803278688 15.101593442622951 8.41292328519e-05 0.0 0.0 0.0
196 1 24.610361311475412 15.060947540983607 8.80779642341e-05 0.0 0.0 0.0
197 1 27.205589508196724 14.618235409836066 8.76738369499e-05 0.0 0.0 0.0
198 1 29.681455081967215 13.898222295081968 5.16946096057e-06 0.0 0.0 0.0
199 1 33.75185180327869 14.490440655737705 6.63152509228e-06 0.0 0.0 0.0
200 1 36.47618754098361 14.241819016393444 4.12098512173e-05 0.0 0.0 0.0
201 1 38.771140983606564 15.42004524590164 8.4397402949e-05 0.0 0.0 0.0
202 1 41.478158032786894 14.063885901639345 3.15342901964e-05 0.0 0.0 0.0
203 1 43.591441967213115 15.314668852459018 8.53325898863e-06 0.0 0.0 0.0
204 1 47.361109508196726 14.600866229508199 9.95489508914e-05 0.0 0.0 0.0
205 1 49.683429508196724 15.614388196721315 8.9708247674e-05 0.0 0.0 0.0
206 1 52.49784262295083 14.008395409836067 7.21442774784e-05 0.0 0.0 0.0
207 1 53.880308196721316 13.385175081967214 8.25794432374e-05 0.0 0.0 0.0
208 1 57.10219016393443 14.81141704918033 5.00307629391e-05 0.0 0.0 0.0
209 1 59.806026229508205 14.37940918032787 1.77880287374e-05 0.0 0.0 0.0
210 1 62.160459016393446 14.616064262295083 9.97314013239e-05 0.0 0.0 0.0
211 1 64.24274098360657 13.754623606557377 8.20877099832e-05 0.0 0.0 0.0
212 1 67.40908196721313 15.243222950819673 5.30264380681e-05 0.0 0.0 0.0
213 1 70.34820983606558 13.97981704918033 3.51935119326e-05 0.0 0.0 0.0
214 1 73.2540131147541 14.419802622950822 3.80616451157e-06 0.0 0.0 0.0
215 1 76.10629508196722 14.816516721311476 4.88517896203e-05 0.0 0.0 0.0
216 1 78.50263606557378 14.087314098360658 2.95515843949e-05 0.0 0.0 0.0
217 1 81.20091803278689 13.652680655737706 1.29625690973e-05 0.0 0.0 0.0
218 1 82.01585573770492 16.37025049180328 1.67295032505e-05 0.0 0.0 0.0
219 1 1.608805180327869 17.202102950819672 3.38431352001e-06 0.0 0.0 0.0
220 1 4.415174950819672 17.151358688524592 6.7895638795e-05 0.0 0.0 0.0
221 1 7.268042622950821 17.648904918032787 2.3552428192e-05 0.0 0.0 0.0
222 1 10.91132918032787 17.980535081967215 5.54733833281e-05 0.0 0.0 0.0
223 1 12.429718688524591 17.928780983606558 7.17944944703e-05 0.0 0.0 0.0
224 1 14.988340327868853 17.704900327868856 9.54622248112e-05 0.0 0.0 0.0
225 1 17.728177049180328 17.674857704918036 8.75191021477e-05 0.0 0.0 0.0
226 1 21.09431409836066 17.67465573770492 4.49284042332e-05 0.0 0.0 0.0
227 1 23.642786885245904 17.29813836065574 6.05953168919e-05 0.0 0.0 0.0
228 1 26.409232786885248 17.085113442622955 2.30536006825e-05 0.0 0.0 0.0
229 1 29.25692 16.554040655737708 2.64737926924e-05 0.0 0.0 0.0
230 1 33.256830163934424 16.41488524590164 5.34201253024e-05 0.0 0.0 0.0
231 1 34.81904655737706 16.506729836065574 7.63252042712e-05 0.0 0.0 0.0
232 1 37.694453770491805 16.545002622950822 6.90538718839e-05 0.0 0.0 0.0
233 1 40.379860327868855 16.625638032786885 6.63993516107e-05 0.0 0.0 0.0
234 1 42.931160655737706 16.688601311475413 4.16433996149e-05 0.0 0.0 0.0
235 1 44.89231278688525 16.11127803278689 2.25227725222e-05 0.0 0.0 0.0
236 1 48.56942885245902 16.644521967213116 7.21643225659e-05 0.0 0.0 0.0
237 1 51.071449180327875 17.38513573770492 8.4785042701e-05 0.0 0.0 0.0
238 1 53.443049180327876 16.833967213114757 9.35643688223e-05 0.0 0.0 0.0
239 1 55.25721967213116 15.92057049180328 2.97150542673e-05 0.0 0.0 0.0
240 1 58.687127868852464 16.735912131147543 2.64944810028e-05 0.0 0.0 0.0
241 1 60.365980327868854 15.842156721311476 8.00899821092e-05 0.0 0.0 0.0
242 1 64.02663606557377 16.560907540983607 1.51558413695e-06 0.0 0.0 0.0
243 1 66.68755409836066 16.571712786885247 7.17728368648e-05 0.0 0.0 0.0
244 1 68.66077377049182 16.07876131147541 2.13519454249e-05 0.0 0.0 0.0
245 1 72.6728524590164 16.844671475409836 3.32772061592e-05 0.0 0.0 0.0
246 1 73.81295737704919 15.835441311475412 5.44819603738e-05 0.0 0.0 0.0
247 1 77.42564590163934 16.89420393442623 6.82250291077e-05 0.0 0.0 0.0
248 1 80.52533770491804 16.023220327868856 1.72146010675e-05 0.0 0.0 0.0
249 1 0.42741059016393446 20.56677573770492 9.78004524999e-05 0.0 0.0 0.0
250 1 3.146699672131148 19.356083278688526 5.87827776951e-05 0.0 0.0 0.0
251 1 5.436099016393443 20.49947016393443 4.21951803628e-05 0.0 0.0 0.0
252 1 8.276919344262296 20.09270819672131 4.02474695746e-07 0.0 0.0 0.0
253 1 10.98413836065574 20.371776393442623 4.71143257821e-05 0.0 0.0 0.0
254 1 13.750432786885247 20.20373967213115 4.53203286375e-05 0.0 0.0 0.0
255 1 16.252251147540985 19.8707462295082 9.42632178321e-05 0.0 0.0 0.0
256 1 18.744274098360656 18.798906229508198 9.08869048562e-05 0.0 0.0 0.0
257 1 22.39932524590164 19.822627540983607 9.67796000694e-05 0.0 0.0 0.0
258 1 25.0704931147541 19.37708786885246 2.74416820997e-05 0.0 0.0 0.0
259 1 27.908637377049185 18.888478688524593 9.90914494335e-05 0.0 0.0 0.0
260 1 30.622319344262298 18.83884524590164 9.11176495078e-05 0.0 0.0 0.0
261 1 33.16549049180328 18.76497573770492 1.11382169386e-05 0.0 0.0 0.0
262 1 35.98808327868853 18.676564590163935 6.60586352486e-05 0.0 0.0 0.0
263 1 38.84107213114754 18.810468852459017 4.84101695842e-05 0.0 0.0 0.0
264 1 41.60145901639345 19.015516065573774 5.38449181929e-06 0.0 0.0 0.0
265 1 44.26485114754099 19.01985836065574 7.2706510524e-05 0.0 0.0 0.0
266 1 46.893656393442626 18.62556786885246 9.89923526531e-05 0.0 0.0 0.0
267 1 49.410925245901645 19.220714754098363 9.40843203801e-05 0.0 0.0 0.0
268 1 52.24033442622951 19.46827606557377 9.11365578633e-05 0.0 0.0 0.0
269 1 55.319324590163944 18.924630819672135 2.12324150875e-05 0.0 0.0 0.0
270 1 57.93782950819673 19.11074360655738 4.23690506768e-05 0.0 0.0 0.0
271 1 60.30993442622951 18.90155606557377 5.34824074273e-05 0.0 0.0 0.0
272 1 62.94712131147542 18.86272786885246 1.77079020783e-05 0.0 0.0 0.0
273 1 65.57269508196721 18.786788196721314 9.68207468895e-05 0.0 0.0 0.0
274 1 68.39720655737705 18.84490426229508 1.77564113649e-05 0.0 0.0 0.0
275 1 71.21111475409836 19.36209180327869 4.21924366402e-05 0.0 0.0 0.0
276 1 73.57312131147542 19.182290491803283 2.51664502143e-05 0.0 0.0 0.0
277 1 75.52765901639346 20.194550163934426 2.96770884602e-06 0.0 0.0 0.0
278 1 79.28576393442623 19.289080655737706 4.46054508758e-05 0.0 0.0 0.0
279 1 80.76769836065574 18.841420327868857 9.54691192701e-05 0.0 0.0 0.0
280 1 0.10972626229508198 22.145048524590166 5.8802315801e-06 0.0 0.0 0.0
281 1 2.366146885245902 21.912685245901642 8.6177687398e-06 0.0 0.0 0.0
282 1 4.945470163934427 21.935709508196723 8.67046587418e-05 0.0 0.0 0.0
283 1 7.408662295081968 22.22275540983607 2.07977750917e-05 0.0 0.0 0.0
284 1 10.154810491803278 23.158065573770497 5.03531360883e-05 0.0 0.0 0.0
285 1 13.031480000000002 22.493643934426235 2.07977630243e-05 0.0 0.0 0.0
286 1 15.858364590163937 22.26471409836066 8.81272937701e-05 0.0 0.0 0.0
287 1 18.428750819672132 21.312388196721315 3.43751536394e-05 0.0 0.0 0.0
288 1 19.68281573770492 23.019415081967217 6.0593743668e-05 0.0 0.0 0.0
289 1 24.017436065573772 21.84931803278689 1.72542239465e-05 0.0 0.0 0.0
290 1 26.730057704918035 21.164851147540986 9.08507565381e-05 0.0 0.0 0.0
291 1 29.509227540983613 21.071744262295084 4.30794185824e-06 0.0 0.0 0.0
292 1 32.10672786885246 21.165558032786887 8.76087344419e-05 0.0 0.0 0.0
293 1 34.70761114754098 20.94596918032787 1.01953103464e-05 0.0 0.0 0.0
294 1 38.06662885245902 20.679826885245905 4.21282830435e-05 0.0 0.0 0.0
295 1 39.56780065573771 20.955512131147543 1.47527107113e-05 0.0 0.0 0.0
296 1 42.75792327868853 21.307490491803282 5.75971853136e-05 0.0 0.0 0.0
297 1 46.46922229508197 20.892094426229512 8.14745247693e-05 0.0 0.0 0.0
298 1 47.96423409836066 21.21902885245902 9.44089131967e-05 0.0 0.0 0.0
299 1 50.535226229508204 21.340007213114756 2.81045457278e-05 0.0 0.0 0.0
300 1 53.14413770491804 20.678564590163937 6.24540258497e-05 0.0 0.0 0.0
301 1 56.76641967213116 21.343491147540988 5.49729280975e-05 0.0 0.0 0.0
302 1 59.4480393442623 21.550659016393446 9.87137771641e-05 0.0 0.0 0.0
303 1 62.05998032786886 21.13965573770492 1.10654832406e-05 0.0 0.0 0.0
304 1 64.70827540983608 21.074470819672133 6.93410742811e-05 0.0 0.0 0.0
305 1 67.2404393442623 20.874422295081967 6.04226766874e-05 0.0 0.0 0.0
306 1 69.15256393442624 22.321820327868853 4.38665310788e-05 0.0 0.0 0.0
307 1 72.12956065573772 21.735408524590166 7.90998174778e-05 0.0 0.0 0.0
308 1 74.80764590163935 21.55888918032787 1.76762580524e-06 0.0 0.0 0.0
309 1 77.5316786885246 22.802047868852462 4.84541047168e-05 0.0 0.0 0.0
310 1 79.97901639344263 23.248900327868853 4.02392897651e-05 0.0 0.0 0.0
311 1 2.03389062295082 24.507913442622954 3.30757748202e-05 0.0 0.0 0.0
312 1 4.05842006557377 24.210264262295084 9.06595943929e-05 0.0 0.0 0.0
313 1 6.635279344262296 25.435346885245902 1.63346452101e-05 0.0 0.0 0.0
314 1 9.517502950819672 24.526999344262297 9.07376203534e-05 0.0 0.0 0.0
315 1 11.917277377049182 24.651815081967214 7.59690134e-05 0.0 0.0 0.0
316 1 14.02248262295082 23.742407213114756 1.47813915287e-05 0.0 0.0 0.0
317 1 18.221532459016395 23.67515213114754 9.24644320944e-05 0.0 0.0 0.0
318 1 21.702386885245904 24.593547540983607 7.87149293137e-05 0.0 0.0 0.0
319 1 23.162710819672135 24.161691147540985 8.10702589358e-05 0.0 0.0 0.0
320 1 26.63397180327869 23.21082950819672 4.42928179414e-05 0.0 0.0 0.0
321 1 28.167104918032788 23.26177573770492 1.5301444235e-05 0.0 0.0 0.0
322 1 30.84438229508197 23.44940327868853 6.40761591394e-05 0.0 0.0 0.0
323 1 33.453192786885246 23.393256393442627 4.49734387023e-05 0.0 0.0 0.0
324 1 35.93274426229508 23.543015081967216 9.54879498176e-06 0.0 0.0 0.0
325 1 38.233958688524595 23.254151475409838 6.01075187446e-05 0.0 0.0 0.0
326 1 40.28044196721312 22.30541049180328 8.76650330606e-05 0.0 0.0 0.0
327 1 44.154072131147544 23.65212786885246 9.35559130528e-06 0.0 0.0 0.0
328 1 46.33895344262295 24.92381442622951 1.23102183202e-05 0.0 0.0 0.0
329 1 50.12568721311476 23.36270885245902 6.02183196735e-05 0.0 0.0 0.0
330 1 51.64352131147542 23.16210491803279 8.81825057597e-05 0.0 0.0 0.0
331 1 54.38977049180328 22.94034491803279 7.85428585321e-05 0.0 0.0 0.0
332 1 57.55308196721312 23.72968327868853 8.40468176115e-05 0.0 0.0 0.0
333 1 62.051901639344266 23.262381639344262 5.99170989334e-05 0.0 0.0 0.0
334 1 63.63229508196722 23.39219606557377 9.70419814155e-05 0.0 0.0 0.0
335 1 66.41742295081967 23.309742950819672 1.86968248688e-05 0.0 0.0 0.0
336 1 69.14398032786886 24.353105573770495 8.04900721873e-05 0.0 0.0 0.0
337 1 71.89426885245902 24.57703672131148 6.60375086604e-05 0.0 0.0 0.0
338 1 74.39159344262296 25.010559344262298 3.49335584684e-05 0.0 0.0 0.0
339 1 77.30143606557378 24.299937704918037 9.71009740831e-05 0.0 0.0 0.0
340 1 78.68541639344262 25.864577704918034 7.99385194569e-05 0.0 0.0 0.0
341 1 82.23549508196722 24.530786229508198 7.7869298127e-05 0.0 0.0 0.0
342 1 1.4896293770491804 26.814480000000003 6.03879622575e-05 0.0 0.0 0.0
343 1 3.869308065573771 26.990797377049184 3.62558748248e-05 0.0 0.0 0.0
344 1 7.035679344262296 26.89395409836066 1.32806531783e-05 0.0 0.0 0.0
345 1 8.473786885245902 26.44538491803279 7.61644461581e-05 0.0 0.0 0.0
346 1 10.840388196721312 27.008772459016395 5.63192071222e-05 0.0 0.0 0.0
347 1 14.14760131147541 27.60235409836066 6.02312232636e-05 0.0 0.0 0.0
348 1 16.833563278688526 26.191411147540986 9.26418916778e-05 0.0 0.0 0.0
349 1 20.092051803278693 27.174436065573772 7.21603527551e-06 0.0 0.0 0.0
350 1 22.072643278688528 26.807007213114755 7.75881497077e-05 0.0 0.0 0.0
351 1 24.779205901639344 26.17464786885246 7.94288514039e-05 0.0 0.0 0.0
352 1 27.140960000000003 25.776419016393444 6.6295858351e-05 0.0 0.0 0.0
353 1 29.764716065573772 25.603989508196726 1.85418413753e-05 0.0 0.0 0.0
354 1 32.42038295081967 25.73819672131148 5.51931016113e-05 0.0 0.0 0.0
355 1 34.97855016393443 25.84013967213115 6.17356497795e-05 0.0 0.0 0.0
356 1 37.78978229508197 25.794899016393444 7.54169388881e-05 0.0 0.0 0.0
357 1 40.58687672131148 24.963702950819673 6.66514263538e-05 0.0 0.0 0.0
358 1 41.79191409836066 24.02450491803279 9.20986791628e-05 0.0 0.0 0.0
359 1 45.24686622950821 25.975508196721314 6.31784256525e-05 0.0 0.0 0.0
360 1 47.48961114754099 25.90678885245902 1.37221846647e-05 0.0 0.0 0.0
361 1 51.17142295081968 25.9975731147541 9.44470531794e-05 0.0 0.0 0.0
362 1 53.542518032786894 25.14380721311476 1.26973264918e-06 0.0 0.0 0.0
363 1 56.164052459016396 26.236803278688527 6.36902962292e-05 0.0 0.0 0.0
364 1 58.43769836065574 24.973801311475412 5.57081062257e-05 0.0 0.0 0.0
365 1 61.93779016393443 26.042712786885247 1.06703780188e-05 0.0 0.0 0.0
366 1 65.63984918032787 25.60646360655738 7.34516893927e-05 0.0 0.0 0.0
367 1 69.53175737704919 25.825749508196726 5.32367372528e-05 0.0 0.0 0.0
368 1 71.06519344262296 25.86210360655738 5.56385488436e-05 0.0 0.0 0.0
369 1 73.55191475409836 26.300220983606557 9.39265752703e-06 0.0 0.0 0.0
370 1 76.099731147541 26.568837377049185 7.54972882799e-05 0.0 0.0 0.0
371 1 80.02647868852459 26.556971803278692 1.58005871245e-05 0.0 0.0 0.0
372 1 81.94567213114755 27.05365967213115 6.11618191359e-05 0.0 0.0 0.0
373 1 2.7495412459016397 29.404204590163936 1.22009292082e-05 0.0 0.0 0.0
374 1 4.6798024918032795 29.824801311475415 8.1581395043e-05 0.0 0.0 0.0
375 1 6.1396518032786895 29.062678032786888 8.42622896385e-05 0.0 0.0 0.0
376 1 10.020552786885247 29.914777704918038 3.4798294411e-05 0.0 0.0 0.0
377 1 12.047344262295082 27.91227278688525 9.31391569862e-06 0.0 0.0 0.0
378 1 15.602421639344264 28.56619213114754 9.20334745161e-05 0.0 0.0 0.0
379 1 17.526058360655743 27.59801180327869 6.55753127528e-05 0.0 0.0 0.0
380 1 22.290161967213116 29.229401967213118 4.39770496236e-05 0.0 0.0 0.0
381 1 23.634304262295085 28.544177704918035 6.4375900446e-05 0.0 0.0 0.0
382 1 26.256596065573774 28.387754098360656 2.62739464262e-05 0.0 0.0 0.0
383 1 28.687170491803283 27.977861639344265 1.90692079391e-05 0.0 0.0 0.0
384 1 31.164096393442627 27.95317114754099 6.5727289421e-05 0.0 0.0 0.0
385 1 33.81658229508197 28.16099540983607 4.17469196522e-06 0.0 0.0 0.0
386 1 37.029880655737706 27.802604590163938 4.20550874509e-05 0.0 0.0 0.0
387 1 38.51807606557377 28.12327803278689 7.61653379593e-05 0.0 0.0 0.0
388 1 41.63720721311476 27.684605245901643 8.9094580973e-06 0.0 0.0 0.0
389 1 44.430161311475416 28.46960131147541 5.83127119294e-05 0.0 0.0 0.0
390 1 47.2618931147541 29.244549508196727 3.32649923764e-05 0.0 0.0 0.0
391 1 50.13654295081968 28.536805901639347 7.23088793978e-05 0.0 0.0 0.0
392 1 52.80331803278689 27.926107540983608 4.54262503503e-05 0.0 0.0 0.0
393 1 55.38900327868853 27.581046557377054 6.3022928503e-05 0.0 0.0 0.0
394 1 57.801501639344266 27.81674229508197 9.18234255745e-06 0.0 0.0 0.0
395 1 61.12386229508198 28.871213114754102 1.61749973492e-05 0.0 0.0 0.0
396 1 63.16120655737706 26.94939409836066 9.95465033198e-05 0.0 0.0 0.0
397 1 66.5936393442623 27.943325245901644 5.92496620459e-05 0.0 0.0 0.0
398 1 69.09298360655738 28.32216524590164 3.80668813211e-05 0.0 0.0 0.0
399 1 72.4840131147541 28.40507278688525 2.36508084322e-05 0.0 0.0 0.0
400 1 73.87354754098361 27.785083934426233 6.73006349183e-05 0.0 0.0 0.0
401 1 77.4084786885246 28.43279278688525 7.1807850611e-05 0.0 0.0 0.0
402 1 81.18021639344263 29.34442229508197 4.73136295824e-05 0.0 0.0 0.0
403 1 0.4521722754098361 29.448081967213117 9.87544674094e-05 0.0 0.0 0.0
404 1 1.3839853770491806 31.896126557377055 5.21882261226e-06 0.0 0.0 0.0
405 1 3.864440655737705 32.23896590163935 3.31283332768e-05 0.0 0.0 0.0
406 1 6.442400655737705 32.095367213114756 6.26267080133e-05 0.0 0.0 0.0
407 1 10.175310163934427 31.42948131147541 8.57200027065e-06 0.0 0.0 0.0
408 1 11.601855081967214 30.881897704918035 1.75910041586e-05 0.0 0.0 0.0
409 1 13.907462295081968 30.64266754098361 9.43112981481e-05 0.0 0.0 0.0
410 1 16.512384918032787 30.50911672131148 9.62438339734e-05 0.0 0.0 0.0
411 1 18.67833180327869 30.975055081967216 2.97234210146e-05 0.0 0.0 0.0
412 1 20.657711475409837 30.504925901639346 6.70282320499e-05 0.0 0.0 0.0