# input file

2232 atoms
1 atom types

0.0 82.68810555352132 xlo xhi
0.0 83.16 ylo yhi
-10.0 10.0 zlo zhi
0.0 0.0 0.0 xy xz yz

Masses

1 12.0100 #C

Atoms

1 1 1.0113003278688526 0.6690315409836066 2.076669504063311e-05
2 1 3.3710751475409837 1.8971840655737708 5.0351397680402124e-05
3 1 6.09340131147541 0.8557805245901641 4.640091139587809e-05
4 1 8.744271475409837 0.5469575081967213 3.40416214556735e-05
5 1 11.386911475409837 0.7119293770491805 6.284644472443267e-05
6 1 13.84278229508197 0.9592634754098361 3.400174476344504e-05
7 1 16.09380786885246 0.5980501639344263 1.9848300524054708e-05
8 1 18.87116 0.5051300983606558 4.251370539803124e-05
9 1 22.01366885245902 1.203785180327869 5.580131104592392e-05
10 1 24.831616393442623 0.8789057704918034 2.487441100883646e-05
11 1 27.613967213114755 0.7415731147540984 9.2640819320856e-06
12 1 30.464683934426233 0.8054250491803279 4.9542579509532e-06
13 1 33.14786885245902 0.6399028196721311 7.834300386470251e-05
14 1 35.67670032786886 0.9210260327868853 2.2430218168304417e-05
15 1 38.34342491803279 0.8157203278688525 7.221798732565819e-05
16 1 40.76349704918033 2.13576793442623 5.093863705857136e-05
17 1 43.971948196721314 0.38395633442622956 9.347900523681795e-05
18 1 45.545373770491814 0.20650945573770496 3.778180231178872e-05
19 1 48.42446688524591 0.3348990032786886 7.72003555427849e-05
20 1 51.27745573770492 0.5658969836065575 2.762365594554234e-05
21 1 54.13731147540984 0.5506737049180328 6.607567150956358e-05
22 1 56.926983606557386 0.5280533770491803 9.07147669004793e-05
23 1 59.588406557377056 0.4976224721311476 9.346552978338985e-06
24 1 62.318498360655745 0.6487136393442624 8.869542590476013e-05
25 1 65.51513442622951 0.7961598032786886 4.0751757570604376e-05
26 1 68.15282622950821 0.8444855081967214 6.0749619266999514e-05
27 1 71.49386885245902 0.7543626885245902 8.477242947314668e-06
28 1 73.02427540983608 0.7030377704918033 2.7012767371505598e-05
29 1 75.78163278688525 0.7503485901639345 6.722758921918337e-05
30 1 78.59705573770493 0.786556262295082 6.534341292678395e-05
31 1 81.25948852459018 0.868948786885246 5.650923654093764e-05
32 1 82.544 3.2618310819672134 9.481159925090087e-05
33 1 3.2168428852459017 3.418032524590164 1.6617501203225783e-05
34 1 5.70880524590164 4.486146229508197 8.062207617868905e-05
35 1 7.980784918032788 2.9001734426229513 7.791875295207326e-05
36 1 10.36960262295082 4.092517180327869 7.604082300691414e-05
37 1 12.964830819672132 3.2313491803278693 4.647014485654483e-05
38 1 15.599341639344264 3.229743540983607 4.022425377581347e-05
39 1 18.04375081967213 2.577586360655738 3.8651805838179686e-05
40 1 20.931579016393442 3.851509704918033 7.289133188237609e-05
41 1 23.667426885245906 3.164124393442623 9.473076734466521e-05
42 1 26.36727409836066 2.971791016393443 4.703014368901031e-05
43 1 29.194764590163935 2.840689049180328 4.385131713228461e-05
44 1 32.00700655737705 2.9874535737704924 7.706251704226798e-05
45 1 34.259900327868856 4.535698885245902 8.653270422468859e-05
46 1 37.04002950819673 3.297579278688525 8.631677302845838e-05
47 1 39.89483606557378 3.409898295081968 2.361135241325667e-05
48 1 42.495769836065584 3.726083016393443 5.3509455355621406e-05
49 1 44.95658885245902 2.993144 3.264083515638279e-05
50 1 47.49592262295082 2.3603201311475415 6.294171925618658e-05
51 1 50.03086360655738 3.64366524590164 1.1546386071267269e-05
52 1 52.91389508196722 2.7223867540983613 9.750984528658372e-05
53 1 55.71770491803279 2.749293836065574 2.0021442263285595e-05
54 1 58.37458360655738 2.83284262295082 2.6845449159888293e-05
55 1 60.90876721311476 2.7924289836065577 4.823958898481652e-05
56 1 63.07436065573771 1.9865495081967215 8.955619821585004e-06
57 1 66.47750819672132 3.13584393442623 7.392626079296235e-05
58 1 68.90313442622951 3.4853986885245902 7.284880815251274e-05
59 1 71.72562622950821 3.302047803278689 7.199315999439688e-05
60 1 74.4244131147541 2.914619147540984 6.912032959318428e-05
61 1 77.06765901639345 2.883162754098361 7.75282115073347e-05
62 1 79.74978360655739 3.1189342295081968 1.2508335278097583e-06
63 1 0.7875055081967214 4.505439147540984 1.1526372028065268e-05
64 1 4.760099606557377 5.692748852459017 8.510328990698042e-05
65 1 8.20360524590164 5.414387540983607 7.739349410424783e-05
66 1 9.732900983606559 5.478663606557378 1.5965482312068448e-05
67 1 12.158375737704919 5.808173114754099 3.301555481265417e-06
68 1 14.632928524590165 5.524762622950821 3.401703454498244e-05
69 1 17.378521311475414 5.2546819672131155 6.97019596475349e-06
70 1 20.13143540983607 5.189648524590164 1.959145290630534e-05
71 1 22.605483278688528 5.597066885245902 5.574689028571608e-05
72 1 25.256757377049183 5.302194754098361 9.925340641741015e-05
73 1 28.043400000000002 4.990448262295082 8.48087617926563e-05
74 1 30.122601967213118 6.209683934426231 1.8162145843007762e-05
75 1 33.73877442622951 6.063510163934427 9.840185710123526e-05
76 1 36.15692786885246 5.8127173770491805 2.587630291816987e-05
77 1 38.77709901639345 5.504666885245903 8.154301584428182e-05
78 1 41.41065049180328 5.827107540983607 7.217075346355517e-07
79 1 44.18517508196722 5.649830819672132 2.9241835647292083e-05
80 1 46.841346885245905 5.018244 8.720623955519758e-05
81 1 49.555180327868854 5.117243278688525 6.678355771805693e-05
82 1 52.05200000000001 4.941627737704918 7.161922257946052e-06
83 1 54.73765901639345 4.882082754098361 5.850578683482011e-05
84 1 57.323849180327876 5.098965245901639 1.0272488238152289e-05
85 1 59.99133114754098 5.1953540983606565 3.303055079349333e-05
86 1 62.664367213114765 4.848616786885246 6.673894901004214e-05
87 1 64.9920393442623 6.274969836065575 3.9515852952805896e-05
88 1 67.78878032786886 5.7474819672131146 2.3921408858090467e-05
89 1 69.75139672131148 4.758069836065575 9.448010611778522e-05
90 1 73.56857704918033 5.271798688524591 8.210895279895343e-05
91 1 75.95633442622952 5.16899737704918 7.15242053377841e-05
92 1 78.2168524590164 6.325865573770492 3.150837088548182e-05
93 1 81.08630163934427 5.353746885245902 6.959930639796106e-05
94 1 0.23626730491803283 7.264356721311476 7.989461557313674e-05
95 1 2.7631790819672135 7.4325954098360665 9.58648659354233e-05
96 1 5.4866413114754105 8.144226885245903 8.050987280594476e-05
97 1 8.111760655737706 8.108478688524592 2.3002855782789723e-05
98 1 10.933091147540983 8.084747540983608 1.8323093912567136e-05
99 1 13.539528524590166 8.094492459016395 1.9301192512507892e-05
100 1 16.09779672131148 7.604620983606558 4.715470117796639e-06
101 1 18.704537049180328 7.493488524590164 7.111670177843223e-05
102 1 21.169395409836067 7.79280393442623 7.813665289463522e-05
103 1 23.78810229508197 7.715400000000001 8.365627604141514e-05
104 1 26.332485245901644 7.288037377049181 8.462715229012852e-06
105 1 29.041925901639345 7.2698098360655745 5.5039286612547436e-05
106 1 31.261293114754103 7.220580327868853 7.507850909280048e-05
107 1 35.03944327868852 8.402593442622951 4.6078137714623425e-05
108 1 37.73605901639344 7.953468852459017 2.683798541953597e-06
109 1 40.37364983606558 7.934180983606558 3.01483849014252e-05
110 1 42.94696459016394 7.9087331147540985 6.782962378163171e-05
111 1 45.663272131147544 7.56796393442623 6.745774624684969e-05
112 1 48.26516524590165 7.3913940983606565 2.7612775217094943e-05
113 1 51.72077377049181 7.181297704918033 7.777224788810376e-05
114 1 53.256734426229514 7.1423180327868865 3.017354464558153e-05
115 1 55.98733114754099 7.363371147540984 6.854286214872961e-05
116 1 58.665921311475415 7.489196721311476 8.972526673597134e-05
117 1 61.3844 7.387607213114754 6.81881062013578e-05
118 1 64.23213770491803 7.627544262295083 8.506376233013148e-05
119 1 67.02534426229509 8.083333770491803 4.586132240404064e-05
120 1 70.4204131147541 7.270516721311476 2.8523775407719656e-05
121 1 71.9684918032787 7.466222950819673 3.580835750072182e-05
122 1 74.60820327868853 7.729537704918034 7.1420396804706356e-06
123 1 77.32718688524591 7.589321967213115 4.204110352535896e-05
124 1 80.11635409836066 7.593310819672132 9.288575509668069e-05
125 1 1.2518483278688526 9.805457704918034 3.490990497780432e-05
126 1 3.9833488524590166 9.894929180327871 1.2531496498534378e-05
127 1 6.8064970491803285 10.425396065573771 6.6971960324155095e-06
128 1 9.556785573770492 10.226357377049181 2.0790193270716728e-05
129 1 12.15564918032787 10.459377049180329 5.5044454526177855e-05
130 1 15.617316721311477 10.04428393442623 7.975464181673541e-05
131 1 17.15019737704918 9.863977704918033 1.9481299600324698e-05
132 1 19.737649836065575 10.08856524590164 4.479217193653329e-05
133 1 22.432700327868858 10.091241311475411 5.550677427841381e-05
134 1 25.127700327868855 9.854434754098362 1.9234098677259427e-05
135 1 27.815328524590168 9.47685704918033 2.214535163430631e-05
136 1 30.309421639344265 10.715320000000002 5.665910815895368e-05
137 1 32.6503731147541 8.940432131147542 5.04016437321431e-05
138 1 36.61711016393443 10.367734426229509 1.8065239605735983e-05
139 1 39.331953442622954 10.220601311475411 3.3238256031435035e-05
140 1 41.88986819672132 10.292400655737707 7.126666425552231e-06
141 1 44.32680459016394 9.957034098360657 4.6430132493620514e-05
142 1 46.90733967213115 9.831259016393444 9.633631313103016e-05
143 1 49.33316786885246 9.983693770491804 9.26666965496414e-05
144 1 51.68542950819673 9.810961311475412 5.821012238425334e-05
145 1 54.42057049180329 9.48599606557377 4.997171080802044e-05
146 1 57.16429508196722 9.765215737704919 4.496039361878092e-05
147 1 59.91357377049181 9.775516065573772 7.845427259178435e-05
148 1 62.47300327868853 9.687710819672132 1.856568021268764e-05
149 1 65.32932459016394 9.97536262295082 6.335425214208984e-05
150 1 69.04754098360657 10.309012459016396 6.644622969527301e-05
151 1 70.56582950819673 10.076295737704918 9.299728542375194e-05
152 1 73.22775737704919 10.014493770491804 9.469324903402299e-06
153 1 75.9876393442623 9.978190163934427 5.7008774870697934e-05
154 1 78.63088524590164 9.710583606557378 6.821606644075986e-05
155 1 81.50386885245902 9.521289836065574 9.659218384810856e-05
156 1 81.95274098360656 13.26288393442623 7.413763819978283e-05
157 1 3.2558326557377053 11.956711475409836 7.064276622279286e-05
158 1 4.7890011147540985 12.129696393442623 7.079478792414253e-05
159 1 8.868279344262296 12.387659016393444 6.191753950818395e-05
160 1 10.394747540983607 12.637038032786887 1.077573983054102e-05
161 1 12.823706229508199 13.023653770491805 9.554059749612271e-05
162 1 15.37076524590164 12.751654426229509 2.382361408477357e-05
163 1 18.233448524590166 12.362918032786887 6.69628683478614e-05
164 1 21.11663147540984 12.397908852459018 6.531743259656509e-06
165 1 23.908121311475412 12.252744918032787 9.107200075195819e-05
166 1 26.782468196721315 11.879610491803279 5.107623562205912e-05
167 1 29.56693967213115 12.05860393442623 3.665859085728251e-05
168 1 31.961412459016394 11.802812459016394 9.371962724308867e-05
169 1 34.18567737704918 11.11960786885246 5.635106243676298e-05
170 1 37.78483409836066 12.469354754098362 1.3284500978446656e-05
171 1 40.386979672131154 12.614821639344262 6.920879898039793e-05
172 1 43.83380262295082 12.457691147540984 5.382900450220152e-06
173 1 45.358049180327875 12.208463606557377 7.476526006408387e-05
174 1 48.10091540983607 12.36539213114754 5.701443270553358e-05
175 1 50.73719344262296 12.389274754098361 9.489463082766562e-05
176 1 53.29662295081968 11.84997180327869 3.693124516043884e-05
177 1 55.60005901639345 12.93069836065574 8.282976165727347e-05
178 1 58.529593442622954 12.076225573770493 5.5626234432099945e-05
179 1 61.210203278688525 12.195436721311477 3.3397227973882175e-05
180 1 64.53609836065574 11.715865573770492 8.3933673011253e-05
181 1 66.00742950819674 11.34555868852459 7.938223749696293e-05
182 1 69.28384262295081 13.139633442622952 5.4020191412093405e-05
183 1 71.98616393442623 12.468193442622953 9.758720234506407e-05
184 1 74.76270819672132 12.299348852459019 8.168384022428823e-05
185 1 78.46880655737705 11.754441311475412 1.276261961756311e-05
186 1 80.01789508196723 11.606954754098362 1.3197912918098099e-05
187 1 1.023832393442623 14.88877049180328 2.9316622541765936e-05
188 1 3.434255540983607 15.845691147540984 7.110957172583973e-05
189 1 6.06260131147541 14.57774098360656 1.3333757998602248e-05
190 1 8.52357180327869 15.88860918032787 3.425753610026822e-05
191 1 11.428314754098363 15.335976393442625 3.883746712280045e-06
192 1 14.112711475409839 15.277658360655739 1.733152187632562e-05
193 1 16.68173442622951 14.676099016393444 1.8313684888839932e-05
194 1 19.515940327868854 14.50760786885246 8.918111914205974e-05
195 1 22.757918032786886 14.561179672131148 5.520526294574559e-05
196 1 26.290779016393447 13.857323934426232 1.1737624435627725e-05
197 1 27.799524590163937 14.121749508196721 9.650571783209147e-05
198 1 30.826003278688525 14.414450491803281 7.500835842595485e-05
199 1 33.458847868852466 13.968557377049182 4.692638044504343e-05
200 1 36.02453836065575 14.414147540983608 9.801367206187717e-06
201 1 38.485710819672136 14.753856393442625 4.049915366552457e-05
202 1 40.938552131147546 15.129717377049182 8.291833067651852e-05
203 1 44.26096327868853 16.09648393442623 2.8838042909835672e-05
204 1 46.81382885245902 14.504881311475412 8.025020297839182e-05
205 1 49.471464918032794 14.723409836065576 5.7650178390723585e-05
206 1 51.99797377049181 14.505032786885247 4.367578777310305e-05
207 1 54.67302950819673 14.177492459016396 3.417422580843368e-05
208 1 57.27234754098361 14.305640655737706 7.67549015862354e-05
209 1 59.7984524590164 14.506951475409839 8.243760033551522e-05
210 1 63.012760655737715 14.57112655737705 8.976751556743576e-05
211 1 64.54670163934426 14.555676065573772 9.28865078268247e-05
212 1 67.27527868852461 15.135019016393445 5.474865728110512e-06
213 1 70.60117377049181 15.049485901639347 2.57534705898954e-05
214 1 73.53020327868852 14.677209836065575 4.82268962110333e-05
215 1 76.19364590163934 14.459186229508198 8.97195774746791e-05
216 1 78.73489836065575 14.346892459016395 2.366299415813821e-05
217 1 81.39430163934428 14.702758688524591 5.560560314926947e-05
218 1 0.1040580524590164 17.2842531147541 2.476945905059832e-05
219 1 2.941708 17.293695081967215 3.322259254694975e-05
220 1 5.63332 16.953885245901642 1.0788417051650456e-05
221 1 7.6448629508196735 18.034763278688526 4.232294794336232e-05
222 1 10.480179672131149 17.64784459016394 3.403064984178382e-05
223 1 13.037337049180328 17.661123934426232 8.402482668473222e-05
224 1 15.734104262295084 17.31581049180328 4.985232411415387e-05
225 1 18.254705573770494 16.673100327868855 8.549909375704816e-05
226 1 20.449584262295083 15.724258360655739 4.9673016314895734e-05
227 1 24.08534754098361 16.885923278688526 6.709981882724459e-06
228 1 26.461087868852463 16.40872524590164 9.238461669301127e-05
229 1 28.492979016393445 15.508910819672131 5.033782123332834e-05
230 1 31.974843278688528 16.43033573770492 8.709950950406597e-05
231 1 34.58425967213115 16.52581573770492 6.498862959465684e-05
232 1 37.179841311475414 17.000640655737705 7.107308665414088e-05
233 1 39.6545455737705 17.315860983606562 3.3627031143640044e-05
234 1 41.844274098360664 16.34954885245902 2.407053852889325e-05
235 1 46.03100393442624 16.947472786885246 9.25018830148208e-05
236 1 47.97726098360656 18.278840655737707 9.469256257739833e-05
237 1 50.68114754098361 17.089657704918036 9.811634915012417e-05
238 1 53.35923278688525 16.651136393442624 2.1974911480345617e-05
239 1 56.01863606557377 16.529350163934428 5.191525311899744e-05
240 1 57.782314754098365 18.013607213114756 1.755647915920122e-05
241 1 60.56087868852459 17.154337704918035 3.461803973622608e-05
242 1 63.28693114754099 17.162012459016395 4.53986749776227e-05
243 1 66.03873442622951 17.04774950819672 5.794094994558925e-05
244 1 68.14878688524591 16.405544262295084 5.5289944921171865e-05
245 1 71.57667540983607 16.21938098360656 5.597058108378667e-05
246 1 75.02627540983607 16.794684590163936 6.068376406754079e-05
247 1 77.65841311475411 16.732175737704917 7.802031650281329e-05
248 1 80.2153180327869 16.854315409836065 7.241009167476364e-05
249 1 1.5393082622950822 19.45923803278689 1.6463188725433177e-06
250 1 4.197858229508197 19.385318032786888 4.762153150108168e-05
251 1 6.89652393442623 19.349519344262298 1.0287026022383806e-05
252 1 8.735889836065574 21.136474754098362 6.035657424490052e-05
253 1 11.532277377049182 20.099322622950822 1.2556203347638929e-05
254 1 14.985411803278689 19.732550163934427 9.317707615971255e-05
255 1 18.33963278688525 18.84041049180328 9.869110943930546e-05
256 1 19.85883016393443 18.5870931147541 2.0565535891142673e-05
257 1 22.5664531147541 18.81698229508197 6.587176123276192e-05
258 1 26.4657331147541 18.687672786885248 6.748029554979473e-05
259 1 27.989070819672133 18.478333770491805 5.5519307368016715e-05
260 1 30.350774426229513 18.689944918032786 6.969454359734911e-05
261 1 32.89929770491804 18.74992918032787 5.495875620000666e-05
262 1 35.66170426229508 19.05681836065574 3.415873776472367e-06
263 1 38.37624459016394 19.584457704918034 7.059879948949618e-05
264 1 41.16036262295083 19.269792786885247 1.5107171332711967e-05
265 1 44.06015737704919 19.00213573770492 2.5535408047309585e-06
266 1 46.862300983606566 19.38637836065574 4.6086973583525084e-05
267 1 49.49226754098361 19.7198262295082 6.134592010993101e-05
268 1 52.47714098360656 19.12306360655738 7.368642648458946e-05
269 1 55.03000655737706 18.86131409836066 7.665058803295767e-05
270 1 57.18297704918033 20.361880000000003 3.3288161237344396e-05
271 1 59.78380983606558 19.481605901639345 1.7251037586803388e-05
272 1 62.209940983606565 19.336845901639343 2.1333031600179864e-05
273 1 65.03445245901639 19.32523278688525 3.0743815074620455e-05
274 1 68.12354098360656 19.183300327868853 3.800758746971593e-05
275 1 71.00763278688525 18.98097967213115 2.7076901419436896e-05
276 1 73.84274754098362 19.147299672131147 9.113432415460492e-05
277 1 76.52941639344263 19.011931147540984 2.8117006067456042e-05
278 1 78.7131868852459 20.281295081967215 1.0834806013596722e-05
279 1 81.48821639344264 19.44111147540984 2.804482713603268e-05
280 1 0.3126038426229508 21.713545573770496 9.404854757324855e-05
281 1 3.0552034754098365 21.743992131147543 5.045602713036862e-05
282 1 5.726275409836066 21.603725901639347 3.820057870933619e-05
283 1 7.7630642622950825 23.07586491803279 1.5593016255671733e-05
284 1 10.554150163934427 22.521212459016397 2.4884203930674154e-05
285 1 12.625626885245902 21.197670819672133 3.06937664410426e-05
286 1 16.574540327868853 21.84694491803279 1.3183486388629984e-06
287 1 18.789464262295084 21.613622295081967 7.741835490921809e-05
288 1 21.12572 20.982474754098362 8.400225496048541e-05
289 1 23.727411147540987 21.105977704918036 5.712161229285509e-05
290 1 26.24796196721312 21.126073442622953 9.735786193411501e-05
291 1 28.991838032786887 21.186411147540984 9.793355270028163e-05
292 1 31.9689862295082 21.090274754098363 3.601355168581877e-06
293 1 34.60990950819672 21.913998032786886 2.8851853881027936e-05
294 1 37.20700590163935 22.35357967213115 6.559329225518627e-05
295 1 40.096247868852466 21.686582950819673 4.921638286668299e-05
296 1 42.86723803278689 21.21175803278689 6.511386480194066e-05
297 1 45.241362622950824 22.434215081967213 6.020666057330445e-05
298 1 48.150245901639344 21.83810885245902 1.0755650847994747e-05
299 1 50.39142557377049 20.963944262295083 8.813262190691827e-05
300 1 53.50818360655738 22.78700131147541 2.0793020523037397e-05
301 1 57.265278688524596 21.87617967213115 5.419195356742366e-05
302 1 58.774983606557385 22.031795409836068 5.943111653276132e-05
303 1 61.11073442622952 21.82695016393443 4.522958194045868e-06
304 1 63.63330491803279 21.390499016393445 7.365360808045426e-05
305 1 65.90897049180329 20.605856393442625 1.6057483075514156e-05
306 1 69.70040000000002 21.199438032786887 3.647278284178145e-05
307 1 72.45270819672132 21.3067331147541 4.459533646686881e-05
308 1 76.09266229508198 21.207920655737706 4.749846707016502e-05
309 1 77.65134426229508 21.3929731147541 9.147643967231296e-05
310 1 80.22491147540984 21.89380131147541 6.29019353260719e-05
311 1 1.7264005901639345 23.99365442622951 3.0843828226162284e-05
312 1 4.388692000000001 24.0232931147541 9.462749944386407e-05
313 1 7.111164590163935 24.445202622950823 7.238592823440865e-05
314 1 9.45211606557377 25.97904262295082 9.42657604517686e-06
315 1 12.654407213114755 24.06762491803279 8.16987086374726e-05
316 1 15.528198688524592 23.725845901639346 8.212411603804038e-07
317 1 18.057181639344265 24.281861639344264 9.79869196373443e-05
318 1 20.884015737704917 23.622034754098365 5.355535684712557e-05
319 1 22.38478360655738 23.350641311475414 1.0562792401480615e-05
320 1 24.96723737704918 23.477173770491806 7.229055906170945e-06
321 1 27.636032131147545 23.39764918032787 2.4809952362888254e-05
322 1 29.76956327868853 22.55847540983607 1.0029321408989811e-05
323 1 33.68444524590164 23.158469508196724 3.8761714680141995e-05
324 1 36.26674754098361 23.563464262295085 3.225365221952215e-05
325 1 39.354119344262294 25.124266885245902 7.1330877968901145e-06
326 1 41.86785377049181 23.70650754098361 3.307707485597611e-05
327 1 44.541142295081976 23.804057704918034 6.31608125963888e-05
328 1 47.16247475409836 24.007085245901642 1.176421902950754e-05
329 1 49.97234360655738 23.814004590163936 7.410413504485924e-05
330 1 52.65790163934427 24.10347409836066 3.8060034460078344e-05
331 1 55.00678032786885 24.71139540983607 1.805094146126094e-05
332 1 57.663154098360664 24.2751462295082 8.523336560482747e-05
333 1 60.473527868852464 24.35714491803279 8.338773342881107e-05
334 1 63.032452459016405 23.82960655737705 3.898654391119213e-05
335 1 65.38587540983606 24.570371803278693 6.440465259841342e-05
336 1 68.14020327868853 23.44657573770492 6.095707359765065e-05
337 1 70.73043278688525 23.491260983606562 6.445448244693676e-05
338 1 73.3807475409836 23.687068196721313 8.944385136746558e-05
339 1 75.94623606557379 23.944576393442624 4.6031582916403494e-05
340 1 78.7141967213115 23.991988196721312 5.911426638514561e-06
341 1 81.62656393442624 24.000016393442625 8.162697103309247e-05
342 1 0.4296953442622951 26.203074754098363 3.68739580366704e-05
343 1 3.0226160655737706 26.358185573770495 5.049665769928756e-05
344 1 5.570407213114755 26.463057049180332 2.4140186999273985e-05
345 1 8.364320655737705 27.036290491803282 4.455580651420155e-06
346 1 10.695678688524591 26.85452 7.600693093093323e-05
347 1 14.145430163934428 25.84321967213115 8.347737836654136e-05
348 1 16.63038426229508 26.351924590163936 3.564380710234841e-05
349 1 19.05101180327869 26.8377062295082 1.1464413592681856e-05
350 1 21.55899016393443 26.500774426229512 9.799090213626904e-05
351 1 24.08019737704918 25.68997704918033 2.4317315401177355e-05
352 1 26.533998032786887 26.777873442622955 2.5780174621921226e-05
353 1 29.25737442622951 25.5471862295082 1.2267571067988936e-05
354 1 32.02331540983607 25.334918688524592 5.040118594238613e-05
355 1 34.70205704918033 25.642262295081967 9.763859040703998e-05
356 1 37.071182950819676 24.84413836065574 4.834203347795829e-07
357 1 40.66720918032787 26.388228196721315 7.502661044882786e-05
358 1 43.185841311475414 26.08578229508197 8.520357363662253e-05
359 1 45.71447081967214 26.198278032786888 9.233711807508508e-05
360 1 48.43209114754099 26.037259672131153 9.611748104966389e-05
361 1 51.07750819672132 26.291536393442627 3.86074557569265e-05
362 1 53.798511475409846 26.82962754098361 1.639831373580669e-05
363 1 56.630596721311484 26.67759672131148 2.658373794901654e-05
364 1 59.429862295081975 26.463511475409838 2.5198273501632507e-05
365 1 62.19580327868854 26.426803934426232 3.0186400718961617e-06
366 1 65.0692918032787 26.07740065573771 6.148880327523468e-05
367 1 68.06951475409836 26.49885573770492 9.21546526286076e-05
368 1 69.51055081967213 25.88255278688525 9.818394840146205e-05
369 1 72.24821639344263 25.856852459016398 4.253875010652169e-05
370 1 74.82380327868853 27.122480000000003 5.579840109677138e-05
371 1 77.63670163934427 26.265028196721314 5.267452543425233e-05
372 1 80.34306229508198 26.056345573770493 5.993374878954071e-05
373 1 1.605922098360656 28.663843278688528 6.320400778541389e-05
374 1 4.322184196721311 28.833041311475412 2.5100821810693942e-05
375 1 6.968424262295082 28.81355147540984 6.492777670330529e-05
376 1 9.737344262295084 29.401680000000002 9.504031192502564e-05
377 1 13.191892459016394 28.255415081967215 1.8631885407427062e-05
378 1 14.73249836065574 28.36457836065574 3.389959317858793e-08
379 1 17.39235606557377 29.014306885245905 1.310518769258613e-05
380 1 20.233883278688527 29.081360000000004 6.158771120232856e-05
381 1 24.02071803278689 28.13211409836066 5.1825333280706655e-05
382 1 25.60212131147541 28.019113442622956 5.870853712123056e-05
383 1 28.16473180327869 28.158420327868857 6.43803143353628e-05
384 1 30.82792196721312 27.754586885245903 3.2089903992041736e-05
385 1 33.59169180327869 27.774581639344266 3.7405321560631e-05
386 1 36.43589508196722 27.60195016393443 4.3030786322994584e-05
387 1 38.806232786885246 29.01859868852459 7.554173364904002e-05
388 1 41.797619672131155 28.606737049180328 3.1844033198048853e-06
389 1 44.59168459016394 28.536553442622957 3.775147936430238e-05
390 1 47.18842754098361 28.33302098360656 1.043939031461727e-06
391 1 49.27813180327869 29.595720000000004 2.534810007785896e-05
392 1 52.20902950819672 28.78648786885246 5.716154179907196e-06
393 1 56.23070163934427 28.57563409836066 6.680345593396709e-06
394 1 57.7964524590164 28.680909508196724 6.471348986284243e-06
395 1 60.62651803278689 28.7093868852459 2.897452123949207e-06
396 1 63.44345573770492 28.47399409836066 4.615998999719162e-05
397 1 66.34774426229508 28.82511409836066 4.9233587706207086e-05
398 1 68.7269180327869 29.036270819672136 4.8671750779780056e-05
399 1 71.26867540983608 28.142212459016395 8.197306671235265e-05
400 1 74.05127868852459 28.452535081967216 9.745760235406703e-05
401 1 76.60262950819673 28.708276065573774 1.6772245627744598e-06
402 1 80.01385573770493 28.173971803278693 6.834085467292358e-05
403 1 81.5664786885246 28.30913836065574 1.4525709365242457e-05
404 1 0.24060859016393446 30.779449836065577 7.056107298347467e-05
405 1 2.997864983606558 31.05538754098361 8.414762929395979e-05
406 1 6.521066885245903 30.911839344262297 9.932246567240469e-05
407 1 8.046070819672131 31.175204590163936 8.534202834113731e-05
408 1 10.828775081967214 31.530565901639346 4.1911379480177525e-05
409 1 13.47777704918033 30.92032196721312 7.484656868528134e-05
410 1 15.856546885245903 32.012661639344266 8.458743509732713e-05
411 1 18.664042622950824 31.274622950819673 1.210978924414715e-05
412 1 21.393730491803282 31.24129836065574 9.863675305262733e-05
413 1 23.995421639344265 30.8023731147541 2.1090341326877637e-05
414 1 26.803523278688527 30.516942950819676 6.107910087497412e-05
415 1 29.549065573770495 30.28028786885246 6.676686338295346e-06
416 1 32.26244459016394 30.043077377049183 6.860539245286003e-05
417 1 35.07610032786886 29.922906885245904 7.48796555981752e-05
418 1 37.953375737704924 30.308815737704922 6.062573989023519e-05
419 1 40.46695868852459 30.70653967213115 4.6583567394648244e-05
420 1 43.34120459016394 30.75587016393443 5.195307323529364e-06
421 1 45.91507475409836 30.839585573770496 1.842299892566334e-05
422 1 48.3771055737705 30.8571062295082 6.187416104390095e-05
423 1 50.76900327868853 30.978185573770492 2.9767485359911473e-06
424 1 53.33146229508197 31.108201967213116 8.664089538543676e-05
425 1 55.99995409836067 30.817571147540985 9.014447193610591e-05
426 1 58.86788852459017 30.896641311475413 6.744783548215946e-05
427 1 61.95596721311476 30.852713442622953 8.904712711089579e-05
428 1 64.6380918032787 30.718859672131153 3.6952728652338995e-05
429 1 67.28840655737706 31.375455081967214 5.044665298115684e-05
430 1 70.90412459016393 30.681798688524594 3.408939433818727e-05
431 1 72.43251147540985 30.49300983606558 2.0870247930155117e-05
432 1 74.96972459016395 30.924765245901643 5.288298050493708e-05
433 1 77.63316721311476 31.084571803278692 7.659754757525292e-05
434 1 80.18552786885246 30.91022360655738 1.8149013453765573e-05
435 1 1.5229186229508198 33.164884590163936 6.691585918985172e-05
436 1 4.114339737704918 33.54210885245902 9.111732871383855e-05
437 1 6.714702950819673 33.46697704918033 6.391713391684999e-05
438 1 9.50679868852459 33.54392655737705 4.385308347504522e-05
439 1 12.23189180327869 33.47495475409836 9.632645812913311e-05
440 1 15.019140327868854 33.30484786885246 3.657253596529788e-05
441 1 17.490310163934428 33.71994098360656 1.3737426310188672e-05
442 1 20.144916721311475 33.52756721311476 4.0789914581195145e-05
443 1 22.900809836065577 33.33610229508197 5.877209251453737e-05
444 1 25.607321967213117 32.888189508196724 6.902174530246622e-05
445 1 28.31110754098361 32.69011016393443 7.291786738612646e-05
446 1 30.970864262295084 32.46981442622951 2.4220406437984844e-06
447 1 33.62582426229508 32.20215737704918 4.1343202588883644e-05
448 1 36.343444590163934 32.221748196721315 3.061128841908345e-07
449 1 39.15129377049181 32.89339016393443 9.177626762891413e-05
450 1 41.93011016393443 32.78059147540984 9.101057707473092e-06
451 1 44.544727213114754 33.20078426229509 9.360459130031776e-05
452 1 47.16636262295082 33.35599606557378 5.6920916378802915e-05
453 1 49.561744262295086 33.36937639344263 5.393517857061896e-05
454 1 52.28476721311476 33.93180459016394 4.975720310769637e-05
455 1 55.11786229508198 33.13660918032787 7.882098709128475e-05
456 1 57.57428852459017 32.92828000000001 4.372983522301876e-05
457 1 59.59194098360656 32.26335344262296 8.281235200821635e-05
458 1 63.0168 33.02244721311476 6.668012777548948e-05
459 1 65.45403934426231 33.20694426229508 2.1408710688147382e-05
460 1 68.06244590163935 33.55089442622951 5.705735774915939e-05
461 1 70.51028852459017 33.52029639344263 7.469139728201494e-05
462 1 73.7932655737705 33.08748065573771 2.3577793164540552e-05