# input file

2232 atoms
1 atom types

0.0 82.68810555352132 xlo xhi
0.0 83.16 ylo yhi
-10.0 10.0 zlo zhi
0.0 0.0 0.0 xy xz yz

Masses

1 12.0100 #C

Atoms

1 1 1.097297967213115 0.34523568524590165 4.511535912520077e-05
2 1 3.851716721311476 0.11477544262295082 7.517607692378716e-05
3 1 6.539344918032787 82.97065573770492 8.648706702912482e-05
4 1 8.83192524590164 1.1871228852459017 1.740999017922971e-05
5 1 11.638209180327872 0.38656120655737713 2.231337204073335e-05
6 1 14.327503606557379 0.44083686557377055 2.061322306621585e-05
7 1 17.02462426229508 0.7750643278688525 9.879417890860243e-06
8 1 19.585921967213118 1.1834218360655737 9.871219991184177e-06
9 1 22.290313442622953 1.2941503606557379 9.587639911259249e-05
10 1 25.063171803278692 1.1008626885245905 9.704433439650739e-05
11 1 27.728432131147542 1.0872400000000002 7.058481819098883e-06
12 1 30.433227540983612 1.019793049180328 4.439963870363095e-06
13 1 33.24021836065574 0.9801064918032788 3.0878744022399597e-05
14 1 36.80105180327869 0.4335726098360656 9.486350202161752e-05
15 1 38.33787081967213 0.3918628459016394 5.050656834868153e-05
16 1 40.95799147540984 0.8200929180327869 2.2261118516837965e-05
17 1 43.607700327868855 0.9237475409836066 2.957767398736613e-05
18 1 46.36778426229509 1.203401442622951 3.0838300067112415e-06
19 1 49.56436983606558 1.261568 4.8474852509318344e-05
20 1 52.09542295081968 0.9352849180327869 6.305048717092742e-05
21 1 54.773508196721316 0.8888375081967214 9.618990006923237e-05
22 1 57.542983606557385 0.8775475409836067 8.814261632502389e-05
23 1 60.18925901639345 0.8301003934426231 7.728524930793843e-05
24 1 62.79918032786886 0.8130190163934428 6.842344752855426e-05
25 1 66.14981639344262 0.41745512131147544 7.569811161313813e-05
26 1 67.68527213114754 0.45562288524590167 7.191700982339632e-05
27 1 70.26489836065575 0.7224468196721312 8.988584804598349e-05
28 1 72.97782295081967 0.8743968524590164 6.41274311660209e-05
29 1 75.68468852459017 0.971472393442623 2.2703557093017878e-05
30 1 78.37287213114755 0.8770880655737706 9.676111544853252e-05
31 1 81.05954098360657 0.5960910819672132 4.677064500824696e-05
32 1 82.43443278688525 2.721801049180328 3.448012209537306e-05
33 1 2.5049135081967218 2.466327672131148 1.8310027084051086e-05
34 1 5.275939016393443 2.2773419016393444 3.083434513250438e-05
35 1 8.052382295081967 2.5139262950819674 2.0674300614717258e-05
36 1 10.555260983606559 2.7878544262295084 5.9490863834717083e-05
37 1 13.00224524590164 2.698095147540984 8.522181733447156e-05
38 1 15.577024262295083 2.8400579016393444 5.687803055867802e-05
39 1 18.123729836065575 3.33580662295082 5.16438107084537e-05
40 1 20.756019016393445 3.489892459016394 7.028558843947112e-05
41 1 23.445767868852464 3.3681819672131152 6.610488061320585e-06
42 1 26.176112131147544 3.424237967213115 8.002124741965296e-05
43 1 29.23076524590164 3.359376196721312 7.16806681833069e-05
44 1 31.978226229508202 3.184624065573771 2.4050642759662744e-05
45 1 34.60985901639345 3.3700451147540984 1.723524916495488e-05
46 1 37.09451016393442 2.9194209180327872 2.0933232139971092e-05
47 1 39.471260327868855 4.014345770491804 5.0493624956911775e-05
48 1 42.363228852459024 3.254489573770492 3.807804346802186e-05
49 1 44.89473639344263 3.2763323278688525 6.14311577305995e-05
50 1 47.254975737704925 2.475825180327869 4.9230341343067365e-05
51 1 51.182531147540985 3.474527803278689 7.713658656712932e-05
52 1 53.52939016393444 3.175495147540984 4.617328024961953e-05
53 1 56.27866885245902 3.0575816393442627 4.281797513182631e-05
54 1 58.82699016393443 3.1601102950819673 9.209660335145688e-05
55 1 61.33239344262296 3.1645939672131154 1.8593938383895758e-05
56 1 63.81507540983607 3.3143526557377054 3.0728793700735325e-05
57 1 66.26493770491804 3.1559245245901644 8.143034059209333e-05
58 1 68.90212459016394 2.9635659016393445 1.7820053357976053e-05
59 1 71.58475409836066 3.0485739016393443 6.178877348368206e-05
60 1 74.36129836065575 3.182882098360656 6.872305732043e-05
61 1 77.00706885245903 3.2117028196721313 8.380679127764023e-05
62 1 79.7104 3.013285180327869 4.907150345361834e-05
63 1 1.0931273442622953 4.814004655737706 4.327011474331066e-06
64 1 3.8411437377049182 4.592699081967213 1.2312663609328745e-05
65 1 6.598117377049181 4.60862924590164 6.653456064147356e-06
66 1 9.267164590163935 5.036643213114755 7.136919656728171e-05
67 1 11.904149508196722 5.191062295081968 3.179693719573967e-05
68 1 14.416268196721314 5.101035409836066 1.270734755852223e-05
69 1 16.619023606557377 6.596249180327869 2.9452007072943277e-05
70 1 19.402434754098365 5.749148196721312 1.8554548482391987e-05
71 1 22.087386885245905 5.702948196721312 7.65030099787012e-05
72 1 24.73053180327869 5.6072157377049185 5.445005102655567e-05
73 1 26.927177704918034 4.769385049180328 8.179050869451776e-06
74 1 30.597073442622953 5.464475409836066 7.619851414648325e-05
75 1 33.302323278688526 5.593835409836066 6.8119740575693e-05
76 1 35.98788131147541 5.562984918032788 2.939853853780308e-05
77 1 38.72680918032788 5.371318032786886 7.301435772432856e-05
78 1 41.20413901639344 5.536931147540984 7.908286659427523e-05
79 1 44.02839803278689 5.69764655737705 8.194672614404086e-05
80 1 46.653062950819674 5.25331868852459 6.703179814469384e-05
81 1 49.55361508196722 5.434230819672132 6.387001821719274e-06
82 1 53.35923278688525 5.621757377049181 7.741429659674825e-06
83 1 54.844701639344265 5.27992786885246 8.381645435259417e-05
84 1 57.43947540983607 5.479521967213115 6.826120862164602e-05
85 1 59.986281967213124 5.57788 1.8173237474194728e-05
86 1 62.55227540983607 5.653062295081968 9.380428050623244e-05
87 1 65.15058360655739 5.664422950819673 5.332722918850642e-05
88 1 67.76201967213116 5.389899016393443 5.834483770799448e-05
89 1 70.29064918032788 5.293510163934427 9.268973881939843e-05
90 1 72.93288524590164 5.297297049180329 3.503910168909743e-05
91 1 75.59178360655739 5.537789508196722 8.194342536701201e-05
92 1 78.3132918032787 5.391817704918033 3.111345188542375e-05
93 1 81.06307540983607 5.114819672131149 7.929631700526242e-06
94 1 82.47381639344263 7.217803278688526 1.0227761409925185e-05
95 1 2.4341542950819677 6.925607213114755 5.8725926097049e-05
96 1 5.202069508196722 6.816645901639345 2.736664302150238e-05
97 1 7.926405245901639 7.079910163934427 6.39127300313213e-05
98 1 10.56142098360656 7.4341101639344265 4.155430341051645e-05
99 1 13.151953442622952 7.5777593442622955 7.630281614316263e-05
100 1 15.837561967213116 7.921659016393443 2.563937888141036e-05
101 1 18.37108918032787 8.161495081967214 1.3219074749654703e-05
102 1 20.911937704918035 8.010070163934428 1.662578985182466e-05
103 1 23.587851803278692 7.955034098360657 5.884432375409225e-05
104 1 26.292344262295085 7.65652655737705 4.5287906138246674e-05
105 1 28.914232131147543 7.578819672131148 6.656585719243674e-05
106 1 31.573685901639347 7.73736393442623 6.70080266276432e-05
107 1 34.31660262295082 7.855514754098361 5.671272105644443e-07
108 1 37.58448262295082 7.704897704918034 2.3446420397584656e-05
109 1 40.67564131147541 7.643348196721313 5.354611716881549e-05
110 1 41.96979672131148 6.847799344262296 7.421004328796399e-05
111 1 45.35199016393443 7.792248524590165 7.930114921093982e-05
112 1 47.81689901639344 7.386092459016393 1.8233884640666666e-05
113 1 50.31124459016394 8.015624262295082 1.7691905005011477e-05
114 1 51.99494426229509 7.348021639344263 5.01040387781301e-05
115 1 55.96965901639345 7.702474098360656 2.76708237495258e-05
116 1 58.53161311475411 7.9086826229508205 5.695399001064738e-05
117 1 61.25413114754099 7.9851777049180335 1.6466871672512596e-06
118 1 63.85344918032787 8.001385573770493 5.8575923325489234e-05
119 1 66.51184262295084 7.850768524590165 3.24196354643876e-05
120 1 69.28788196721312 7.741251803278689 2.9750007477029952e-05
121 1 71.83973770491804 7.583717377049181 2.744656326458961e-06
122 1 74.20022950819674 8.809759344262297 9.532163259803768e-05
123 1 77.00201967213115 7.757308196721312 2.7313737768996005e-05
124 1 79.76291147540985 7.486116721311476 6.392754768029448e-05
125 1 1.2716259672131147 9.375822950819673 8.206838879024292e-06
126 1 3.8397552131147545 9.049494426229508 3.228361275836235e-05
127 1 6.5069291803278695 9.158051803278688 4.677414459088818e-05
128 1 9.128867540983606 9.564308852459018 6.23644905288514e-05
129 1 11.694154098360656 9.882104262295083 7.465816245089104e-05
130 1 14.153458360655739 10.009293114754099 3.6369737750874955e-05
131 1 16.99382426229508 10.407976393442624 7.426996641355776e-05
132 1 19.608037377049182 10.467203278688526 4.376552556435463e-05
133 1 22.2115462295082 10.272405901639345 8.630580897431871e-05
134 1 25.036310163934427 10.066601311475411 5.817822710921078e-05
135 1 27.55999147540984 9.986622295081968 8.7317004590951e-05
136 1 30.151584262295085 9.965617704918035 6.552391481601807e-05
137 1 32.874657704918036 9.991721967213115 4.1261119887406375e-05
138 1 35.06484065573771 9.195870163934426 6.820789704168942e-05
139 1 38.08581573770492 11.309911475409837 1.7778521217219844e-05
140 1 40.935270163934426 10.470081311475411 5.9178601362523365e-05
141 1 43.70868393442623 10.164555409836067 5.4280406611185296e-05
142 1 47.33212721311476 9.865340983606558 2.703427374685302e-05
143 1 48.86303868852459 9.988793442622953 7.301766709183179e-05
144 1 51.76066229508198 10.36112 4.926640620969467e-05
145 1 55.11584262295082 9.81717180327869 1.704024224218338e-05
146 1 56.64675409836066 10.082859672131148 2.6450878515917476e-05
147 1 59.9332655737705 10.175865573770494 6.380796506291494e-05
148 1 62.61034098360657 10.353243278688526 8.491857616044919e-05
149 1 65.12079344262297 10.231709508196722 1.1097602379318116e-06
150 1 67.86502295081968 9.98192655737705 7.674953677168921e-05
151 1 70.57138360655739 10.106186885245902 5.896646686718814e-05
152 1 73.38983606557377 10.132695081967215 8.296558969414912e-05
153 1 76.0184393442623 10.18904393442623 2.896906387911267e-05
154 1 78.66118032786886 9.840852459016393 3.0774580567587685e-05
155 1 81.29180327868853 9.61394229508197 8.126349787529538e-05
156 1 0.1213060524590164 11.77529442622951 4.914790754630516e-06
157 1 3.3537261639344265 11.388476721311477 1.7001613886485555e-05
158 1 4.875372393442624 11.33091606557377 2.4953969542684587e-06
159 1 7.304295737704919 11.588070819672131 6.823355369651372e-05
160 1 10.05816918032787 12.077235409836067 4.509442330212507e-05
161 1 12.749382295081968 12.439564590163936 2.3941534898657546e-05
162 1 15.375612459016395 12.262136393442624 9.564264053801674e-05
163 1 18.15947803278689 12.785180983606558 3.781001347744256e-05
164 1 20.932285901639347 12.72539868852459 2.331987666999469e-06
165 1 23.687825573770496 12.285160655737705 2.5212056555012963e-05
166 1 26.280024262295083 12.469708196721314 6.159168963632912e-05
167 1 28.8449068852459 12.354637377049182 5.021835538712043e-05
168 1 31.607666885245905 12.21139213114754 1.0882372392209339e-05
169 1 34.408851147540986 12.08748524590164 8.146093560493716e-05
170 1 37.147728524590164 12.5287331147541 7.405215794211924e-05
171 1 39.66666360655738 12.800480000000002 9.519882840828082e-05
172 1 42.37458950819672 12.619365901639345 6.654641280269671e-05
173 1 44.97481639344262 12.774022295081968 5.6177822189361686e-05
174 1 47.35060721311476 12.248705573770494 2.630527518492517e-05
175 1 50.06615737704919 12.197506885245902 6.087312511293231e-05
176 1 52.67153442622951 12.912824262295084 1.1017698131758557e-05
177 1 55.38496393442624 12.519594098360658 1.733292116787253e-05
178 1 57.5308655737705 11.36913836065574 8.464939633572065e-05
179 1 61.07236065573771 13.644400000000001 9.135821824157217e-05
180 1 63.94382950819673 12.736304918032788 1.1702775043883751e-05
181 1 66.75268852459018 12.29152262295082 5.3413365447233935e-05
182 1 69.20709508196722 13.340388852459018 9.091714052976335e-05
183 1 71.9992918032787 12.358676721311477 1.040785569635283e-06
184 1 74.72130491803279 12.476625573770493 5.799046714212204e-05
185 1 77.49633442622952 12.306417704918035 2.5882646905399976e-05
186 1 80.16684590163935 12.058805901639346 3.237675961133587e-05
187 1 1.0434383606557378 14.234144262295082 5.26388833422669e-05
188 1 3.3786236721311482 14.256108196721312 2.982109625024564e-05
189 1 5.842255081967214 13.903019016393444 3.793526592147726e-05
190 1 8.396180983606557 13.926093770491805 9.601760155843536e-05
191 1 10.568439344262297 13.534075409836067 1.5258665704875619e-05
192 1 13.948512131147542 14.622880655737706 1.4664934102085936e-05
193 1 16.466740327868852 14.56001836065574 9.697859386452101e-06
194 1 18.744324590163938 14.212634754098362 2.3681380897870766e-05
195 1 22.514648524590164 14.61884131147541 3.160431593353217e-05
196 1 24.391125901639345 15.954299016393444 6.630556871815017e-05
197 1 27.751809836065576 14.830452459016394 4.868343026248789e-05
198 1 30.394853770491807 14.48680524590164 1.056255425475231e-05
199 1 32.887634098360664 14.32356524590164 1.2891963466280577e-05
200 1 35.52345770491804 14.524876065573771 3.17942077249756e-05
201 1 38.51898491803279 15.016413770491805 8.746354253796253e-05
202 1 41.08588721311475 14.918156721311476 1.8048196685171704e-05
203 1 42.976805245901645 14.057473442622953 8.167528610712418e-05
204 1 46.58641377049181 14.898616393442625 1.0866240631830837e-06
205 1 49.02420852459017 14.41823737704918 8.666121962485592e-05
206 1 51.38449836065574 15.891386229508198 1.3986527576505492e-05
207 1 53.46980983606558 14.234649180327871 4.169422141693945e-05
208 1 57.44452459016394 14.248736393442623 8.681272890501846e-06
209 1 60.18824918032787 14.933859672131149 1.1062120610399974e-05
210 1 62.83048524590164 15.147238032786888 1.1110498081405185e-05
211 1 65.54845901639345 14.719925901639344 1.959205186321008e-05
212 1 68.42093770491803 14.666808524590165 6.003247266525713e-05
213 1 71.01621639344263 14.79212918032787 2.331529217840207e-05
214 1 73.57867540983607 14.674432786885246 6.596835072175917e-05
215 1 76.18152786885246 14.586930491803281 9.0799243073403e-05
216 1 78.96766557377049 14.474737704918034 7.314323540889974e-05
217 1 82.21630819672131 14.076963278688526 3.768147275333234e-05
218 1 82.54450491803279 16.818264262295084 5.309978862184728e-06
219 1 2.521848459016394 16.740759344262298 6.224418862115672e-05
220 1 5.077152786885247 16.468911475409836 6.256803135316342e-05
221 1 7.631230163934426 16.168131803278687 3.061544252362682e-05
222 1 9.711189508196723 17.666678032786887 3.1125562377052056e-05
223 1 12.633150163934427 16.8855193442623 8.027151335866567e-05
224 1 15.447361311475412 16.932577704918035 4.8530287785169784e-05
225 1 17.994420327868855 17.920500327868854 4.536427161071691e-05
226 1 20.84488459016394 16.918187540983606 5.782638861935733e-05
227 1 23.562050491803284 17.229873442622953 9.748878988332319e-05
228 1 25.71623278688525 16.68951016393443 9.472971516605925e-05
229 1 29.289992131147542 16.919752786885248 1.9739689906299297e-05
230 1 31.76020262295082 16.823969836065576 3.765786649597194e-05
231 1 34.13685180327869 16.704102295081967 3.4905955449532004e-05
232 1 36.19111081967213 15.909613770491804 2.854047802046337e-05
233 1 39.834447868852465 17.295260327868853 1.9541078630130993e-06
234 1 42.61230491803279 17.073045901639343 7.7105353554569e-05
235 1 45.254187540983615 17.134746885245903 6.91761859825868e-05
236 1 47.95948786885246 17.056232131147542 7.062417269232228e-05
237 1 50.80232786885246 17.30879213114754 5.962782801431125e-05
238 1 53.50969836065575 17.085971803278692 4.254661115565417e-06
239 1 56.28018360655738 16.577872786885248 5.6345193816274675e-06
240 1 58.5508 18.04546754098361 3.861931362223432e-05
241 1 61.47124590163935 17.392760000000003 2.098642309783341e-05
242 1 64.37048524590165 17.193468852459016 4.5217021036073895e-05
243 1 67.01676065573771 16.815234754098363 4.7635520053819535e-05
244 1 69.72463606557378 17.058352786885248 5.073503084775178e-06
245 1 72.37192131147542 17.106673442622952 8.034485427403071e-05
246 1 75.02021639344264 16.99357180327869 8.512992155676806e-05
247 1 77.56702295081968 16.69673049180328 6.625383340857231e-05
248 1 80.14412459016394 16.931012459016397 2.6549083814920373e-05
249 1 1.4501296393442624 19.06908786885246 5.759949665189903e-05
250 1 4.234702098360656 18.95815737704918 6.767872719452168e-05
251 1 6.907076721311476 18.623093770491806 9.671647328900127e-05
252 1 8.902512786885246 20.125224918032792 5.9437073510125044e-05
253 1 11.629575081967214 19.196327213114756 6.265524420173512e-05
254 1 14.304176393442624 19.163558032786888 4.9917141224827456e-05
255 1 17.169081311475413 19.2322268852459 7.355441229095805e-05
256 1 19.814649836065573 19.30599540983607 1.233984329360518e-05
257 1 22.43795147540984 19.292716065573774 2.5265493226182212e-06
258 1 25.16895213114754 19.46645836065574 6.13632324047345e-05
259 1 27.898488524590167 19.16421442622951 6.561294073500981e-05
260 1 30.6014662295082 19.298068196721314 6.612079090463037e-05
261 1 33.29495147540984 19.222582950819675 6.251623541241998e-05
262 1 35.87897049180328 18.792140327868857 3.804367457368725e-05
263 1 38.22749573770492 20.172838688524592 9.181016086083641e-05
264 1 41.081393442622954 19.371129836065574 5.341303423352535e-05
265 1 43.90575344262295 19.469336393442624 7.147760713813422e-05
266 1 47.0472524590164 19.335028196721314 8.646107532250523e-05
267 1 49.43657508196722 20.37051409836066 4.323101201846138e-05
268 1 52.23124590163935 19.46948786885246 5.842743952841369e-05
269 1 54.914885245901644 19.069289836065575 2.1068097776037133e-05
270 1 57.704557377049184 19.373856393442626 3.9988100783111624e-05
271 1 60.45989508196722 19.686148196721312 1.936228016706445e-05
272 1 63.19756065573771 19.396426229508197 8.657805714317761e-05
273 1 66.6395868852459 19.098221639344263 9.020740236807344e-05
274 1 68.18463606557377 19.16189180327869 9.266034176064528e-05
275 1 70.87231475409837 19.38713573770492 9.747251929122882e-05
276 1 73.72661639344263 19.366636065573772 5.266895513617237e-05
277 1 77.19691803278688 18.99562229508197 7.933154883202534e-05
278 1 78.72631475409837 19.122003278688524 5.14944275166631e-05
279 1 81.39935081967214 19.33563409836066 8.257579872763503e-05
280 1 0.15444079344262296 21.42649967213115 9.800874245171948e-05
281 1 2.911574491803279 21.229278688524595 8.045110264485181e-05
282 1 5.70956262295082 21.148895737704922 6.925101706631457e-05
283 1 8.349375081967214 21.566008524590167 7.83705617647452e-05
284 1 10.908047213114756 21.589941639344268 8.892126219122077e-05
285 1 13.220066885245902 22.735752131147542 1.7021161249149875e-05
286 1 15.80393442622951 21.3837331147541 5.2150976163760014e-05
287 1 18.576035409836066 21.563382950819673 3.7443224261882326e-05
288 1 21.222512786885247 21.627507540983608 4.206525676509096e-05
289 1 23.909484590163938 21.617712131147545 2.9531575288718206e-05
290 1 26.639929836065576 21.550961967213116 5.3061131378776075e-05
291 1 29.346139016393447 21.509811147540987 5.828459093141059e-05
292 1 32.070878688524594 21.53697573770492 3.5514995526615e-05
293 1 34.761536393442626 21.370251803278688 6.133800323890219e-05
294 1 37.471431475409844 21.51273967213115 3.716771380859426e-05
295 1 40.01192655737705 21.693702295081966 7.217125596249492e-05
296 1 42.61715213114754 21.536369836065575 5.024734476153258e-05
297 1 44.808395409836066 20.735014426229508 7.233197789228318e-05
298 1 48.59937049180328 21.658711475409838 2.781807615195834e-05
299 1 51.043678688524594 21.894558688524594 8.219119347416869e-05
300 1 53.58089180327869 21.558081311475412 1.807715590160757e-05
301 1 56.083770491803286 21.404485245901643 8.953255569482995e-05
302 1 58.16352786885247 20.84942885245902 1.1534889437127983e-05
303 1 61.68937049180329 21.717180983606557 5.7861078899754196e-05
304 1 64.06551475409836 21.816902295081967 1.3348469800431296e-05
305 1 66.53102950819672 21.902132459016396 9.295003950023142e-05
306 1 69.62668196721312 21.588123934426232 6.189954437707422e-05
307 1 72.35929836065574 21.492997377049186 6.262863453556045e-06
308 1 74.89903606557378 21.785041967213115 8.189802399159024e-05
309 1 77.38222295081968 21.633819016393446 3.938311620772739e-06
310 1 80.11483934426231 21.522686557377053 3.2832604678406494e-05
311 1 1.5102754754098362 23.54831672131148 9.285429596710713e-05
312 1 4.2052300327868855 23.383460983606557 8.167433646108059e-07
313 1 6.809577049180328 23.711809180327872 8.961353793055181e-05
314 1 9.516644590163935 23.978052459016393 3.613815471345037e-05
315 1 12.377661639344263 24.047428196721313 2.6293759968825338e-05
316 1 15.729560000000001 23.718726557377053 6.449564638217916e-05
317 1 17.26143081967213 23.657732459016394 3.653559996979493e-05
318 1 19.898920655737708 23.911908196721313 1.0854887119166624e-05
319 1 22.615581639344263 23.907111475409838 7.299782484862809e-05
320 1 25.340573770491805 23.840361311475412 3.922318234208443e-05
321 1 28.073139672131152 23.80466360655738 9.88950737745014e-05
322 1 30.80050491803279 23.786284590163937 8.581307754647503e-05
323 1 33.48273049180328 23.753767868852464 6.994567938482406e-05
324 1 36.06038754098361 23.722917377049182 1.9655175064855e-05
325 1 38.69651409836066 23.96250098360656 3.241895199300746e-05
326 1 41.46588852459016 23.924884590163934 6.214904560979528e-06
327 1 44.10317639344263 23.635011147540986 4.665447557755587e-05
328 1 46.869773770491804 23.637636721311477 5.0864989740048275e-06
329 1 49.46429508196722 24.18491737704918 7.476655688186817e-05
330 1 52.195396721311475 24.088680000000004 6.246083115415292e-05
331 1 54.873986885245905 23.90635409836066 3.536445057930634e-05
332 1 57.53238032786886 23.742760655737708 6.893482585204707e-05
333 1 60.18168524590165 23.932710819672135 8.626123181493706e-05
334 1 62.79211147540985 24.23237967213115 2.137191186822326e-05
335 1 65.41112131147541 24.248587540983607 8.103411250345439e-06
336 1 67.42170491803279 23.160489180327872 3.632895905181846e-05
337 1 71.1591081967213 23.733722622950822 1.4057756532078104e-05
338 1 73.72207213114756 23.977800000000002 4.657654549768412e-05
339 1 76.3148262295082 24.108220327868857 5.4933178869581294e-05
340 1 78.93484590163935 23.82804131147541 6.288414752563335e-05
341 1 81.58617049180329 23.736752131147544 9.685843085576953e-05
342 1 0.3821401442622951 25.991665573770494 4.386028608362625e-06
343 1 3.0359812459016395 25.71850491803279 3.8640017680245576e-05
344 1 5.219489180327869 27.085873442622955 9.121390899029709e-05
345 1 7.989873442622952 26.164448524590167 8.611827818117624e-06
346 1 10.645237377049183 26.17207278688525 3.985436079289645e-05
347 1 13.265055081967214 26.56242491803279 6.226844089132758e-05
348 1 15.884620327868854 26.378028852459018 8.294104499599134e-05
349 1 18.635363278688526 26.1207731147541 4.855824168662938e-05
350 1 21.34071409836066 26.177576393442624 5.482806631866619e-05
351 1 24.031725245901644 26.132588196721315 9.424050253468692e-05
352 1 26.766714754098363 26.07356327868853 1.1742942367723996e-07
353 1 29.535937704918034 26.0492262295082 5.828664825671519e-05
354 1 32.254012459016394 26.072452459016397 6.672096736306736e-05
355 1 34.891704262295086 26.12844786885246 3.866719898119608e-06
356 1 37.39680459016394 26.149906885245905 3.3841427511751123e-06
357 1 40.04656393442623 26.12274229508197 5.1687525296239546e-05
358 1 42.61957573770492 26.10350491803279 4.2691559874501464e-05
359 1 45.292157377049186 25.86972786885246 2.8006334906414446e-05
360 1 47.9319193442623 26.25896918032787 5.505824394679959e-06
361 1 50.70588852459017 26.387420327868856 6.761753641209977e-05
362 1 53.49101639344263 26.28870885245902 4.895308801242846e-05
363 1 56.227167213114754 26.152431475409838 5.062691849475812e-05
364 1 58.92746885245902 26.172476721311476 9.541321909429143e-05
365 1 61.61211803278689 26.399437377049182 5.4399531113252775e-05
366 1 64.34574426229509 26.52738360655738 6.38206974382192e-05
367 1 67.14349508196723 26.13879868852459 3.5477478771494624e-05
368 1 69.73271475409837 25.811005901639348 6.974208818328835e-05
369 1 72.3956524590164 26.192219016393445 8.469942418255158e-05
370 1 74.9712393442623 26.38004852459017 6.421842177172632e-05
371 1 77.65134426229508 26.281892459016397 3.5083236171534307e-06
372 1 80.34457704918033 26.10461573770492 2.706026267734745e-05
373 1 1.7146107540983608 28.20174229508197 2.4961103506877427e-05
374 1 4.428186688524591 28.418705573770495 8.010833797837266e-05
375 1 6.895867540983608 28.6463731147541 7.628404006266394e-05
376 1 9.35436393442623 28.514488524590167 7.336492362355399e-05
377 1 11.955196721311475 28.657026885245905 9.590147912596015e-05
378 1 14.722299016393444 28.76275672131148 6.189625093364222e-05
379 1 17.44446360655738 28.464451147540988 5.5547565364287946e-05
380 1 20.129567213114754 28.431782950819674 5.443868586283083e-05
381 1 22.807551475409838 28.451020327868854 6.399709163976815e-05
382 1 25.43635672131148 28.351248524590165 8.349482699114887e-05
383 1 28.24259016393443 28.268946885245906 9.429939889144147e-06
384 1 30.998079344262297 28.322821639344266 6.0226854389129116e-05
385 1 33.71595213114754 28.43430754098361 5.502820973082591e-05
386 1 36.44765967213115 28.554326557377053 1.8079905394003304e-05
387 1 39.05020918032787 28.3968931147541 9.935524391191436e-05
388 1 41.417719344262295 29.63858754098361 7.38565769355232e-05
389 1 44.13493573770492 28.273895081967215 7.69416761078644e-06
390 1 46.60403540983607 29.40940524590164 2.5827395071583506e-05
391 1 49.40431081967213 28.578007213114756 2.3968011642023125e-05
392 1 52.13884590163935 28.55205442622951 8.010062763639385e-05
393 1 54.8780262295082 28.47661967213115 8.528703483604632e-05
394 1 57.62175081967214 28.45273704918033 4.4935185319746334e-05
395 1 60.37860327868853 28.575230163934428 4.756564434315023e-05
396 1 63.11727868852459 28.711204590163938 7.120329308052201e-05
397 1 65.89129836065574 28.486364590163937 9.322246912749574e-05
398 1 69.32575081967214 28.12746885245902 2.5201115452015046e-05
399 1 70.86019672131148 28.249002622950822 8.569062725310879e-05
400 1 73.4660786885246 28.6371331147541 9.278195623224278e-05
401 1 76.19768524590165 28.610321967213117 7.385703416812309e-05
402 1 78.92878688524591 28.464451147540988 3.5722905792358987e-05
403 1 81.67857049180328 28.314389508196722 2.4552174672301642e-05
404 1 0.2374927409836066 30.52800065573771 5.8666395518206264e-05
405 1 2.8053094426229515 30.58904524590164 6.893040082167345e-05
406 1 5.502849180327869 30.96026098360656 4.522172800889646e-06
407 1 8.085302950819674 31.03912918032787 2.6876013301615633e-05
408 1 10.632816393442623 30.932339016393446 4.614504293482416e-05
409 1 13.422185573770493 30.892147540983608 7.993859747646105e-05
410 1 16.16697049180328 30.833728524590168 3.0251038076784312e-05
411 1 18.84010754098361 30.73966229508197 2.7957011623382246e-05
412 1 21.574440655737707 30.749558688524594 8.713169575116503e-05
413 1 24.268935737704922 30.753396065573774 3.545638743566987e-05
414 1 26.91768524590164 30.46296721311476 7.909515664298606e-05
415 1 29.65545180327869 30.516539016393445 9.02890291400817e-05
416 1 32.33146688524591 30.64928196721312 9.090554285234932e-05
417 1 35.124824918032786 30.762585573770494 2.0535751488333708e-05
418 1 37.95564786885246 30.88598754098361 6.208783854430816e-05
419 1 40.69851409836066 31.03418098360656 6.144211786783954e-05
420 1 43.24643147540984 30.8078262295082 1.1730515380701923e-05
421 1 45.95521573770492 30.80313049180328 3.188750761062669e-05
422 1 48.40108918032787 30.98641573770492 6.263319250961972e-05
423 1 50.96036721311476 30.829335737704923 3.1532949125875125e-05
424 1 53.56069508196722 30.76965442622951 1.2508694385127351e-05
425 1 56.25291803278689 30.712194754098363 4.7856080937611584e-05
426 1 59.00775081967214 30.74466098360656 5.530496641164406e-06
427 1 61.75551475409837 30.911637377049182 5.899643557021864e-05
428 1 65.23238032786885 30.656552786885246 8.020008306563046e-05
429 1 66.75369836065575 30.84155475409836 9.60092530706599e-06
430 1 69.30100983606559 30.919918032786885 7.688502055157743e-05
431 1 72.05079344262296 30.805099672131153 1.2221537426142094e-05
432 1 74.77432131147542 30.882655081967215 6.492123088868043e-05
433 1 77.47512786885247 30.78283278688525 9.987862717857704e-05
434 1 80.18350819672132 30.614796065573774 9.494901908035015e-05
435 1 1.2763419016393445 32.95332393442624 7.124424984239638e-05
436 1 3.941768852459017 33.01204590163935 5.672522043689981e-05
437 1 6.679560655737705 33.38911868852459 7.475794501761113e-06
438 1 9.465496393442624 33.39462229508197 1.9068502560309375e-05
439 1 12.148832786885247 33.06950557377049 5.685960190484493e-05
440 1 14.876652459016395 33.08101770491804 6.446037077097785e-05
441 1 17.44092918032787 33.077988196721314 9.88800255118002e-05
442 1 20.111794098360658 32.989526557377054 4.213468782776612e-05
443 1 22.892680655737706 33.05955868852459 2.4382877812445414e-06
444 1 26.464470819672137 32.708994098360655 3.2711969602756455e-05
445 1 28.011539672131153 32.68051672131148 8.932965932770476e-05
446 1 30.729866885245904 32.86859868852459 6.662993091435544e-05
447 1 33.52696131147542 32.90035803278689 6.1227370543976e-05
448 1 36.358137704918036 33.014923934426236 1.8857015349266694e-05
449 1 39.14175081967213 33.32999278688525 3.933623340490514e-05
450 1 42.67037049180328 33.17533639344263 5.889936903937394e-05
451 1 44.21844918032787 33.0107331147541 5.371969531874037e-05
452 1 46.9572255737705 33.321005245901645 8.917770007001295e-05
453 1 49.682773114754106 33.283136393442625 1.1843367448661491e-05
454 1 52.315567213114754 33.171246557377046 6.657874919229617e-05
455 1 54.8780262295082 33.02749639344263 7.490521361286408e-05
456 1 57.62023606557377 32.95039540983607 6.934099546797962e-05
457 1 60.264996721311476 33.05986163934427 2.821618217222962e-05
458 1 62.81230819672132 33.39310754098361 4.186835664304765e-05
459 1 65.34548196721312 33.29328524590164 5.1799564765192135e-05
460 1 68.10738360655739 33.27384590163935 4.597582431990268e-05
461 1 70.80970491803279 33.12827803278689 7.549825998923392e-05