ITEM: TIMESTEP
0
ITEM: NUMBER OF ATOMS
2232
ITEM: BOX BOUNDS xy xz yz pp pp pp
0.0 82.68810555352132 0
0.0 83.16 0
-10.0 10.0 0
ITEM: ATOMS id type x y z vx vy vz
1 1 1.2746958688524592 0.45650649180327874 3.52816887462e-05 0.0 0.0 0.0
2 1 3.930635409836066 0.4319498032786886 6.48208410185e-05 0.0 0.0 0.0
3 1 6.622706885245902 0.529300524590164 8.76161322067e-05 0.0 0.0 0.0
4 1 9.269032786885248 0.7525752786885247 4.4977833325e-05 0.0 0.0 0.0
5 1 11.88804262295082 1.0229285901639344 5.11235528721e-05 0.0 0.0 0.0
6 1 14.567642622950823 1.289449573770492 9.92298109756e-05 0.0 0.0 0.0
7 1 17.266126557377053 1.475017049180328 3.5119302515e-05 0.0 0.0 0.0
8 1 19.97304262295082 1.1386760000000002 1.58732094939e-05 0.0 0.0 0.0
9 1 22.663094426229513 0.6623312786885247 8.0967030803e-05 0.0 0.0 0.0
10 1 25.24872918032787 0.5624534426229508 6.66281119576e-05 0.0 0.0 0.0
11 1 27.88632 0.5958234754098362 8.88732222264e-05 0.0 0.0 0.0
12 1 31.452253114754104 0.15546931147540985 7.91845620583e-05 0.0 0.0 0.0
13 1 33.000533770491806 0.16703142950819674 8.37589347022e-05 0.0 0.0 0.0
14 1 35.67124721311475 0.44294590819672136 5.51290556952e-05 0.0 0.0 0.0
15 1 38.37634557377049 0.5780655081967214 4.04697245719e-05 0.0 0.0 0.0
16 1 41.10320590163935 0.6742271475409837 9.59023757773e-05 0.0 0.0 0.0
17 1 43.85970491803279 0.7491519344262296 9.53603608321e-05 0.0 0.0 0.0
18 1 46.637057049180335 0.8325189508196722 5.89360404314e-05 0.0 0.0 0.0
19 1 49.436777049180336 0.9528813114754099 4.81411030297e-05 0.0 0.0 0.0
20 1 53.097685245901644 0.5907591475409837 9.94742241054e-05 0.0 0.0 0.0
21 1 54.645259016393446 0.6273303606557378 3.83304685921e-05 0.0 0.0 0.0
22 1 57.32132459016394 0.8479643934426231 1.26687138155e-05 0.0 0.0 0.0
23 1 60.06504918032787 0.8777899016393443 5.36687909699e-05 0.0 0.0 0.0
24 1 62.82139672131148 0.8471868196721312 7.17642801649e-05 0.0 0.0 0.0
25 1 65.62015737704918 0.7377155409836066 1.27597843083e-05 0.0 0.0 0.0
26 1 68.48152786885247 0.6393928524590164 1.29070779576e-05 0.0 0.0 0.0
27 1 71.05358032786887 1.072769049180328 9.64361514907e-05 0.0 0.0 0.0
28 1 73.54131147540984 1.210763147540984 1.69613540943e-05 0.0 0.0 0.0
29 1 76.09821639344263 0.9842619672131148 2.04042301173e-07 0.0 0.0 0.0
30 1 78.72227540983607 0.7882830819672132 8.39284655822e-05 0.0 0.0 0.0
31 1 81.33775081967214 0.5698757377049181 7.43631140258e-05 0.0 0.0 0.0
32 1 82.67224918032788 2.8624611147540984 2.08155212189e-05 0.0 0.0 0.0
33 1 2.566528655737705 2.7687129836065574 6.93520514892e-05 0.0 0.0 0.0
34 1 5.201463606557378 2.766506491803279 2.87910295077e-05 0.0 0.0 0.0
35 1 7.915801967213116 2.9627580327868857 5.04277320971e-05 0.0 0.0 0.0
36 1 10.479573770491804 3.2326468196721314 1.05514810225e-05 0.0 0.0 0.0
37 1 13.153114754098363 3.443924721311476 1.06417310378e-05 0.0 0.0 0.0
38 1 15.926982950819674 3.6564144262295084 3.8441677712e-05 0.0 0.0 0.0
39 1 19.625356065573772 3.2309099016393446 9.7511722826e-05 0.0 0.0 0.0
40 1 21.156419016393446 3.071911213114755 6.03682271163e-05 0.0 0.0 0.0
41 1 23.764017704918036 2.9709276065573773 7.82443166622e-05 0.0 0.0 0.0
42 1 26.45386754098361 2.9389057049180334 3.36889081543e-05 0.0 0.0 0.0
43 1 28.853440000000003 3.075581967213115 6.48139206906e-05 0.0 0.0 0.0
44 1 31.36136786885246 2.8124085901639346 7.62195384695e-06 0.0 0.0 0.0
45 1 34.23071606557377 2.633788786885246 5.22707216053e-05 0.0 0.0 0.0
46 1 36.90764 2.8095659016393446 5.61526417242e-05 0.0 0.0 0.0
47 1 39.61652524590164 2.8979467540983608 4.9207083806e-05 0.0 0.0 0.0
48 1 42.36883344262296 2.949867475409836 3.7419629613e-05 0.0 0.0 0.0
49 1 45.120788196721314 3.00754931147541 3.78998854138e-05 0.0 0.0 0.0
50 1 47.839266885245905 3.0882554098360657 8.07048602265e-05 0.0 0.0 0.0
51 1 50.5084655737705 3.3364175737704924 1.63178364846e-06 0.0 0.0 0.0
52 1 53.097685245901644 3.1916020327868857 7.22589140849e-05 0.0 0.0 0.0
53 1 55.89392131147542 3.068881704918033 8.61799298709e-06 0.0 0.0 0.0
54 1 58.64875409836066 3.129295147540984 4.76863610706e-05 0.0 0.0 0.0
55 1 61.394498360655746 3.1179496393442627 6.15833009797e-05 0.0 0.0 0.0
56 1 64.10893770491803 3.011250360655738 2.85932046717e-05 0.0 0.0 0.0
57 1 66.82943606557377 2.8775177704918034 5.38180327449e-05 0.0 0.0 0.0
58 1 69.51711475409837 3.181771278688525 8.67696492977e-05 0.0 0.0 0.0
59 1 72.18712131147541 3.5360318688524597 1.95383752019e-05 0.0 0.0 0.0
60 1 74.83541639344263 3.4505492459016396 7.66278475001e-05 0.0 0.0 0.0
61 1 77.44028852459017 3.2180142950819675 7.73877025488e-06 0.0 0.0 0.0
62 1 80.05525901639345 3.0214295081967215 2.86619465823e-05 0.0 0.0 0.0
63 1 1.3117871475409837 5.194596721311476 2.74622672795e-05 0.0 0.0 0.0
64 1 3.8146153442622954 5.095026885245902 4.12883595377e-05 0.0 0.0 0.0
65 1 6.442047213114755 5.102095737704918 9.66583127209e-05 0.0 0.0 0.0
66 1 9.032377704918034 5.489317377049181 5.57281004498e-05 0.0 0.0 0.0
67 1 11.681733114754099 5.64220655737705 6.13071007995e-05 0.0 0.0 0.0
68 1 14.394910163934428 5.755459672131148 3.94050081956e-05 0.0 0.0 0.0
69 1 17.09016262295082 5.979491803278689 6.89029902328e-05 0.0 0.0 0.0
70 1 19.67953377049181 5.767931147540985 2.4260755406e-05 0.0 0.0 0.0
71 1 22.372261639344266 5.376973114754099 8.46427322199e-05 0.0 0.0 0.0
72 1 25.050397377049183 5.2291331147541 1.46442996203e-05 0.0 0.0 0.0
73 1 27.657945573770494 5.522843934426231 9.12242491092e-05 0.0 0.0 0.0
74 1 30.135022950819675 5.339861639344263 6.62211356701e-05 0.0 0.0 0.0
75 1 32.85097704918033 4.8274506229508205 9.15223949576e-05 0.0 0.0 0.0
76 1 35.53295016393443 5.058975737704918 8.4665034525e-05 0.0 0.0 0.0
77 1 38.17766032786886 5.1536983606557385 2.26624345505e-05 0.0 0.0 0.0
78 1 40.92880721311476 5.170310163934427 3.35286513703e-05 0.0 0.0 0.0
79 1 43.69070885245902 5.217419016393443 5.35232262635e-05 0.0 0.0 0.0
80 1 46.42802098360656 5.3120911475409835 6.68612522462e-05 0.0 0.0 0.0
81 1 49.1501855737705 5.489670819672132 3.51903956093e-05 0.0 0.0 0.0
82 1 51.902039344262306 5.604135737704919 6.84518204768e-05 0.0 0.0 0.0
83 1 54.60335081967214 5.361371147540984 9.19789774609e-06 0.0 0.0 0.0
84 1 57.29052459016394 5.367379672131149 4.23597852868e-05 0.0 0.0 0.0
85 1 60.00900327868853 5.395150163934427 9.36236128069e-06 0.0 0.0 0.0
86 1 62.716373770491806 5.362986885245902 4.01950410645e-05 0.0 0.0 0.0
87 1 65.34043278688524 5.226659016393443 6.2972118631e-05 0.0 0.0 0.0
88 1 68.11192786885246 5.3012859016393445 1.62059012027e-05 0.0 0.0 0.0
89 1 70.81020983606558 5.61988918032787 8.73049707233e-05 0.0 0.0 0.0
90 1 73.47415737704918 5.794388852459017 6.51988627678e-05 0.0 0.0 0.0
91 1 76.09215737704919 5.6672 5.89144300418e-05 0.0 0.0 0.0
92 1 78.72227540983607 5.458668852459017 8.26762780179e-06 0.0 0.0 0.0
93 1 81.39127213114755 5.2846236065573775 3.48498477996e-05 0.0 0.0 0.0
94 1 0.09295995409836066 7.5900288524590165 2.16438862348e-05 0.0 0.0 0.0
95 1 2.7294960000000006 7.574073442622952 9.14829761252e-05 0.0 0.0 0.0
96 1 5.29765049180328 7.399169836065575 4.46810578549e-05 0.0 0.0 0.0
97 1 7.547161311475411 8.776232786885247 4.74775246521e-06 0.0 0.0 0.0
98 1 10.347739672131148 7.903784918032788 6.78113905508e-06 0.0 0.0 0.0
99 1 13.087172459016395 7.961749508196722 9.68976106612e-05 0.0 0.0 0.0
100 1 15.838066885245903 8.110245901639345 2.99465804764e-05 0.0 0.0 0.0
101 1 18.637382950819674 8.186387540983608 5.79781306916e-06 0.0 0.0 0.0
102 1 21.390953442622955 7.825219672131148 7.82848916556e-05 0.0 0.0 0.0
103 1 24.045963934426233 7.551301639344263 7.84152695981e-05 0.0 0.0 0.0
104 1 26.510822295081972 8.807537704918033 2.14740614532e-06 0.0 0.0 0.0
105 1 29.337000000000003 7.873388852459017 5.25652760392e-05 0.0 0.0 0.0
106 1 31.93626754098361 7.220984262295082 6.14715894565e-05 0.0 0.0 0.0
107 1 34.18734360655738 8.428697704918035 3.22061099251e-05 0.0 0.0 0.0
108 1 36.87436590163935 7.474958032786886 2.31915280287e-05 0.0 0.0 0.0
109 1 39.56926491803279 7.415276721311476 1.38861030052e-05 0.0 0.0 0.0
110 1 42.324855081967215 7.423153442622952 2.40815308042e-05 0.0 0.0 0.0
111 1 45.05509836065574 7.511211147540984 8.16636883245e-05 0.0 0.0 0.0
112 1 47.77564721311476 7.6498111475409845 3.63523665526e-05 0.0 0.0 0.0
113 1 50.53017704918033 7.769577704918034 1.72807016049e-05 0.0 0.0 0.0
114 1 53.27541639344263 7.757106229508197 2.48334007263e-05 0.0 0.0 0.0
115 1 55.94340327868853 7.6860642622950825 8.53973074012e-05 0.0 0.0 0.0
116 1 58.6204786885246 7.677329180327869 7.22732865058e-05 0.0 0.0 0.0
117 1 61.355619672131155 7.6860642622950825 3.36592320063e-05 0.0 0.0 0.0
118 1 64.07662295081968 7.671876065573771 7.53981520783e-05 0.0 0.0 0.0
119 1 66.73905573770492 7.456276065573771 3.84030628132e-06 0.0 0.0 0.0
120 1 69.46864262295082 7.708533114754099 6.49624561183e-05 0.0 0.0 0.0
121 1 72.10229508196723 8.010575081967215 9.59295417863e-05 0.0 0.0 0.0
122 1 74.75513442622952 8.0750531147541 8.86041622229e-05 0.0 0.0 0.0
123 1 77.33425573770492 7.885001967213116 6.22130316462e-06 0.0 0.0 0.0
124 1 80.09312786885246 7.662232131147542 6.66251789911e-05 0.0 0.0 0.0
125 1 1.3934071475409837 9.925426229508197 3.34868747176e-05 0.0 0.0 0.0
126 1 4.0597278032786885 9.892808524590166 4.03028195927e-05 0.0 0.0 0.0
127 1 6.768779672131148 10.106136393442624 3.98447750342e-05 0.0 0.0 0.0
128 1 9.284483278688526 10.309315409836067 4.13647164081e-05 0.0 0.0 0.0
129 1 11.890466229508197 10.17091737704918 8.84839639892e-06 0.0 0.0 0.0
130 1 14.586425573770493 10.249432131147541 5.91680698852e-05 0.0 0.0 0.0
131 1 17.35574950819672 10.313354754098361 2.95914049629e-05 0.0 0.0 0.0
132 1 20.146431475409837 10.210755409836066 3.12322860522e-05 0.0 0.0 0.0
133 1 22.88359213114754 10.03004524590164 6.76901449049e-05 0.0 0.0 0.0
134 1 25.685988196721315 10.122495737704918 3.0445830433e-05 0.0 0.0 0.0
135 1 28.294596721311475 10.319060327868854 8.65385853465e-05 0.0 0.0 0.0
136 1 31.760253114754104 9.598845245901641 4.84450320905e-05 0.0 0.0 0.0
137 1 33.316763934426234 9.697152786885248 2.9846076931e-05 0.0 0.0 0.0
138 1 35.784045901639345 10.042920655737706 9.67032217172e-05 0.0 0.0 0.0
139 1 38.302678032786886 9.746129836065574 5.80455335271e-05 0.0 0.0 0.0
140 1 41.034739016393445 9.647266885245903 1.43342728908e-05 0.0 0.0 0.0
141 1 43.726356065573775 9.717349508196722 6.33690961903e-05 0.0 0.0 0.0
142 1 46.39424196721312 9.837620983606557 3.73321963534e-06 0.0 0.0 0.0
143 1 49.116406557377054 9.934009836065574 6.35602350824e-05 0.0 0.0 0.0
144 1 51.87830819672131 10.011009836065575 1.9147608929e-06 0.0 0.0 0.0
145 1 54.573560655737715 10.046303606557377 8.27637004264e-05 0.0 0.0 0.0
146 1 57.19408524590165 10.009697049180328 4.57468286313e-05 0.0 0.0 0.0
147 1 59.8792393442623 9.958195409836067 8.15882685244e-05 0.0 0.0 0.0
148 1 62.63306229508198 9.978543606557377 2.18102811589e-05 0.0 0.0 0.0
149 1 66.26695737704918 9.665645901639346 6.68958495656e-05 0.0 0.0 0.0
150 1 67.81099672131148 9.767790819672133 2.47808828206e-05 0.0 0.0 0.0
151 1 70.56481967213115 10.171977704918035 7.1492841485e-05 0.0 0.0 0.0
152 1 73.36509508196721 10.37465180327869 9.81335499291e-05 0.0 0.0 0.0
153 1 76.0573180327869 10.37076393442623 8.28742007133e-05 0.0 0.0 0.0
154 1 78.73994754098361 9.963244590163935 8.93041504419e-05 0.0 0.0 0.0
155 1 81.46044590163936 9.907552131147542 9.43183426959e-06 0.0 0.0 0.0
156 1 82.56722622950821 12.256784262295083 8.9260909869e-05 0.0 0.0 0.0
157 1 2.5998431475409842 12.231184918032788 1.14397472404e-05 0.0 0.0 0.0
158 1 5.263265573770492 12.282080655737706 8.96637516901e-05 0.0 0.0 0.0
159 1 7.902219672131148 12.593312131147542 9.25978722538e-05 0.0 0.0 0.0
160 1 10.572680655737706 12.568217704918034 7.50588897525e-05 0.0 0.0 0.0
161 1 13.24904918032787 12.478241311475411 1.07429220118e-05 0.0 0.0 0.0
162 1 16.011506229508196 12.484300327868853 1.89041588867e-05 0.0 0.0 0.0
163 1 18.76568262295082 12.45784262295082 6.97914298183e-06 0.0 0.0 0.0
164 1 21.44119278688525 12.382054426229509 2.60961200558e-05 0.0 0.0 0.0
165 1 24.072169180327872 12.304145573770493 6.06524724434e-05 0.0 0.0 0.0
166 1 26.68416065573771 12.537316721311477 1.77225899049e-05 0.0 0.0 0.0
167 1 29.30286754098361 12.642895081967215 2.2256651865e-05 0.0 0.0 0.0
168 1 31.817561311475416 12.392607213114756 3.13855755868e-05 0.0 0.0 0.0
169 1 34.525638688524594 12.323382950819674 3.57023178072e-05 0.0 0.0 0.0
170 1 37.18519344262295 12.307831475409838 4.72455456254e-05 0.0 0.0 0.0
171 1 39.77784655737705 11.924346229508197 1.47906670023e-05 0.0 0.0 0.0
172 1 42.43901704918033 11.957721311475412 9.3439920265e-05 0.0 0.0 0.0
173 1 45.007737049180335 12.082739016393443 8.83042683795e-05 0.0 0.0 0.0
174 1 47.68158098360656 12.142369836065576 8.33956579395e-05 0.0 0.0 0.0
175 1 50.39809049180329 12.192356721311477 8.1038396191e-05 0.0 0.0 0.0
176 1 53.16988852459017 12.329542950819674 5.8588323732e-05 0.0 0.0 0.0
177 1 55.78889836065574 12.403361967213117 6.88868231978e-05 0.0 0.0 0.0
178 1 58.39629508196722 12.296369836065576 6.5080720468e-05 0.0 0.0 0.0
179 1 61.09104262295083 12.210533770491804 7.76621602753e-05 0.0 0.0 0.0
180 1 63.670163934426235 12.414823606557379 9.6298679253e-05 0.0 0.0 0.0
181 1 66.17506229508197 12.281070819672133 8.38445381623e-05 0.0 0.0 0.0
182 1 68.95817049180329 12.188822295081968 3.22993096605e-05 0.0 0.0 0.0
183 1 71.8291344262295 12.47748393442623 5.04086599283e-05 0.0 0.0 0.0
184 1 74.58952131147542 12.708786885245903 4.79504742247e-05 0.0 0.0 0.0
185 1 78.30268852459018 12.213260327868854 6.28085452833e-05 0.0 0.0 0.0
186 1 79.85127213114754 12.145096393442623 7.73356635958e-05 0.0 0.0 0.0
187 1 1.1857949508196721 14.523613770491805 4.5746010858e-05 0.0 0.0 0.0
188 1 3.8929382295081973 14.581931803278689 5.82700013741e-05 0.0 0.0 0.0
189 1 6.55620918032787 14.748504262295084 7.03741065487e-05 0.0 0.0 0.0
190 1 9.228588852459017 14.873269508196723 4.47047555051e-05 0.0 0.0 0.0
191 1 11.871834754098362 14.804802622950822 3.27675503779e-05 0.0 0.0 0.0
192 1 14.575872786885247 14.684076721311477 8.67101462309e-05 0.0 0.0 0.0
193 1 17.38902360655738 14.695790819672132 6.38919417569e-05 0.0 0.0 0.0
194 1 20.01656655737705 14.731185573770492 3.54498445357e-05 0.0 0.0 0.0
195 1 22.651430819672136 14.694124590163936 8.97940039242e-05 0.0 0.0 0.0
196 1 25.26912786885246 14.764156721311476 2.31165304502e-05 0.0 0.0 0.0
197 1 27.926309508196724 14.910431475409837 7.94186636496e-05 0.0 0.0 0.0
198 1 30.62110754098361 14.902453770491805 1.31259752095e-05 0.0 0.0 0.0
199 1 33.26642360655738 14.65166098360656 7.20975820021e-05 0.0 0.0 0.0
200 1 35.92315081967214 14.66701049180328 2.40016157998e-05 0.0 0.0 0.0
201 1 39.39294754098361 14.237628196721314 1.25776822022e-05 0.0 0.0 0.0
202 1 40.931887213114756 14.213341639344263 1.78437963751e-05 0.0 0.0 0.0
203 1 43.532215081967216 14.395516065573773 5.7496360376e-05 0.0 0.0 0.0
204 1 46.22570032786886 14.40869442622951 3.48526963055e-05 0.0 0.0 0.0
205 1 48.912520655737715 14.426720000000001 7.30818965056e-05 0.0 0.0 0.0
206 1 51.549606557377054 14.453834098360657 3.64067446039e-06 0.0 0.0 0.0
207 1 54.24233442622951 14.737699016393446 8.9971754379e-07 0.0 0.0 0.0
208 1 57.18398688524591 14.737295081967215 2.14768564533e-05 0.0 0.0 0.0
209 1 59.85904262295083 14.528561967213117 4.47992092648e-05 0.0 0.0 0.0
210 1 62.41392786885246 14.661860327868855 4.27953315198e-05 0.0 0.0 0.0
211 1 64.99405901639345 14.748554754098363 8.72310241861e-05 0.0 0.0 0.0
212 1 67.50148196721311 14.45595475409836 9.24706162318e-05 0.0 0.0 0.0
213 1 70.07403934426229 14.407381639344264 3.16551879771e-05 0.0 0.0 0.0
214 1 72.87128524590165 14.835299672131148 4.03042526935e-05 0.0 0.0 0.0
215 1 75.76547540983607 15.143299672131148 7.71409281458e-05 0.0 0.0 0.0
216 1 78.34560655737705 14.693922622950822 3.00960775945e-05 0.0 0.0 0.0
217 1 81.12972459016395 14.494732459016396 5.4360833917e-05 0.0 0.0 0.0
218 1 82.52430819672132 16.76837836065574 9.42310422804e-05 0.0 0.0 0.0
219 1 2.562711475409836 16.837956065573774 5.57545074634e-05 0.0 0.0 0.0
220 1 5.26372 16.974182950819674 4.08679873337e-05 0.0 0.0 0.0
221 1 7.941855737704919 17.113136393442623 5.83154152858e-05 0.0 0.0 0.0
222 1 10.594543606557378 17.16403213114754 8.16776353343e-05 0.0 0.0 0.0
223 1 13.174624262295083 16.999226885245903 8.95318559771e-05 0.0 0.0 0.0
224 1 15.876188196721314 16.824424262295086 4.3132552297e-05 0.0 0.0 0.0
225 1 18.569269508196722 17.06446229508197 8.06273098847e-05 0.0 0.0 0.0
226 1 21.266390163934428 17.05779737704918 8.7132688225e-05 0.0 0.0 0.0
227 1 23.921855081967212 17.080316721311476 2.28413496852e-05 0.0 0.0 0.0
228 1 26.567120655737707 17.145097704918037 7.9043982497e-05 0.0 0.0 0.0
229 1 29.24707409836066 17.17640262295082 7.63742747076e-05 0.0 0.0 0.0
230 1 31.927229508196724 17.084659016393445 2.88094459406e-05 0.0 0.0 0.0
231 1 34.517862950819676 16.993420327868854 4.20136635453e-06 0.0 0.0 0.0
232 1 37.0235186885246 17.134494426229512 6.75300010286e-05 0.0 0.0 0.0
233 1 39.47237114754098 16.93040655737705 4.03047817442e-05 0.0 0.0 0.0
234 1 42.17267278688525 16.684612459016392 1.4213307673e-05 0.0 0.0 0.0
235 1 44.85772590163935 16.69183278688525 9.49531930716e-05 0.0 0.0 0.0
236 1 47.542425573770494 16.703900327868855 8.47546534701e-06 0.0 0.0 0.0
237 1 50.22404524590164 16.763076721311474 1.62707968651e-05 0.0 0.0 0.0
238 1 52.809881967213116 16.83113967213115 5.71760417744e-05 0.0 0.0 0.0
239 1 54.90933114754099 16.133443934426232 4.79631673516e-05 0.0 0.0 0.0
240 1 58.51141639344262 16.888548852459017 9.76089764413e-05 0.0 0.0 0.0
241 1 61.12032786885246 16.970648524590167 9.12656495384e-05 0.0 0.0 0.0
242 1 63.72267540983607 17.06471475409836 4.06380037714e-05 0.0 0.0 0.0
243 1 66.26241311475411 17.010638032786886 3.38627447851e-05 0.0 0.0 0.0
244 1 68.68147540983608 16.79907737704918 5.48603075367e-05 0.0 0.0 0.0
245 1 71.18788852459018 16.6898131147541 8.77969024514e-05 0.0 0.0 0.0
246 1 73.42013114754099 16.28330360655738 6.84771329277e-06 0.0 0.0 0.0
247 1 77.16763278688525 17.204021639344262 6.169998761e-05 0.0 0.0 0.0
248 1 79.82552131147541 16.81008459016394 8.89676692583e-05 0.0 0.0 0.0
249 1 1.2090161311475411 19.06373573770492 1.76830316991e-05 0.0 0.0 0.0
250 1 3.9646416393442627 19.185118032786885 4.56004911994e-05 0.0 0.0 0.0
251 1 6.670068196721313 19.342904918032787 7.94966922285e-05 0.0 0.0 0.0
252 1 9.359817049180329 19.464135737704922 6.65407012903e-05 0.0 0.0 0.0
253 1 12.108540327868853 19.44727147540984 3.66673638386e-05 0.0 0.0 0.0
254 1 14.766580327868853 19.136241967213117 1.22350340227e-05 0.0 0.0 0.0
255 1 17.21568524590164 20.186673442622954 1.0155539616e-06 0.0 0.0 0.0
256 1 20.019394098360657 19.356689180327873 5.80450858261e-05 0.0 0.0 0.0
257 1 22.653097049180328 19.39359868852459 3.81950539387e-05 0.0 0.0 0.0
258 1 25.275590819672132 19.439293770491805 4.83695317747e-05 0.0 0.0 0.0
259 1 27.910808524590166 19.453532459016397 9.68642486429e-05 0.0 0.0 0.0
260 1 30.585056393442628 19.418541639344262 1.07564338475e-06 0.0 0.0 0.0
261 1 33.27409836065574 19.401626885245904 7.50278643383e-05 0.0 0.0 0.0
262 1 35.869377049180336 19.472365901639346 3.89451860644e-05 0.0 0.0 0.0
263 1 38.41052852459017 19.46721573770492 3.22050762131e-05 0.0 0.0 0.0
264 1 40.99454754098361 19.093424918032788 8.82520193724e-06 0.0 0.0 0.0
265 1 43.64713442622951 18.98855344262295 7.27898266094e-05 0.0 0.0 0.0
266 1 46.27316262295083 18.986836721311477 6.20862331198e-05 0.0 0.0 0.0
267 1 48.94589573770492 19.01284 1.27492300897e-05 0.0 0.0 0.0
268 1 51.70360655737706 19.139826885245903 2.00070939793e-05 0.0 0.0 0.0
269 1 54.29131147540984 19.05868655737705 8.05574269118e-06 0.0 0.0 0.0
270 1 56.89315409836066 19.02874491803279 5.94948753348e-05 0.0 0.0 0.0
271 1 59.60254426229508 19.24399147540984 5.72837025257e-05 0.0 0.0 0.0
272 1 62.40231475409836 19.361940327868854 8.59545138563e-05 0.0 0.0 0.0
273 1 65.02889836065575 19.444443934426232 3.62837028398e-05 0.0 0.0 0.0
274 1 67.71102295081968 19.37173573770492 1.61709165269e-05 0.0 0.0 0.0
275 1 70.34720000000002 19.08292262295082 8.46570261949e-05 0.0 0.0 0.0
276 1 72.7379868852459 20.218180327868854 7.74129117989e-05 0.0 0.0 0.0
277 1 75.59279344262295 19.302057049180327 1.80656083975e-06 0.0 0.0 0.0
278 1 78.41730491803278 19.26590491803279 8.15190547577e-05 0.0 0.0 0.0
279 1 81.14840655737706 19.073480655737704 9.9713080529e-05 0.0 0.0 0.0
280 1 82.5015868852459 21.3005731147541 9.43008985024e-05 0.0 0.0 0.0
281 1 2.584892524590164 21.347328524590164 9.12941254211e-05 0.0 0.0 0.0
282 1 5.352131147540984 21.542277377049185 9.99128445816e-05 0.0 0.0 0.0
283 1 7.9718983606557385 21.711879344262297 8.70314343566e-05 0.0 0.0 0.0
284 1 10.789038032786886 21.71526229508197 8.89140478853e-05 0.0 0.0 0.0
285 1 13.610620983606559 21.630688524590166 1.74367787056e-05 0.0 0.0 0.0
286 1 16.407462950819674 21.484060327868853 3.81964316699e-05 0.0 0.0 0.0
287 1 18.998197377049184 21.72606754098361 5.99016630536e-05 0.0 0.0 0.0
288 1 21.484716721311475 21.711525901639348 1.77944038719e-05 0.0 0.0 0.0
289 1 24.043287868852463 21.76287606557377 1.52056939114e-05 0.0 0.0 0.0
290 1 26.638011147540986 21.78181049180328 3.03096879007e-05 0.0 0.0 0.0
291 1 29.252022295081968 21.733085901639345 9.33221496106e-05 0.0 0.0 0.0
292 1 31.937226885245902 21.687239344262295 4.13885461912e-05 0.0 0.0 0.0
293 1 34.68887868852459 21.789384262295084 9.8013745895e-06 0.0 0.0 0.0
294 1 37.242249180327875 21.874967868852462 6.62938464576e-05 0.0 0.0 0.0
295 1 39.788904262295084 21.627961967213118 5.17953895045e-05 0.0 0.0 0.0
296 1 42.50001114754099 21.35298360655738 2.55575736973e-05 0.0 0.0 0.0
297 1 45.13714754098361 21.323900327868852 4.32716472032e-05 0.0 0.0 0.0
298 1 47.668301639344264 21.29128262295082 4.83740983343e-06 0.0 0.0 0.0
299 1 50.339217049180334 21.274367868852462 6.83371660522e-07 0.0 0.0 0.0
300 1 52.98104918032788 21.50577180327869 5.00864362262e-05 0.0 0.0 0.0
301 1 55.58289180327869 21.45033180327869 9.50524102576e-05 0.0 0.0 0.0
302 1 58.16756721311476 21.40690885245902 7.27341723919e-05 0.0 0.0 0.0
303 1 60.90371803278689 21.456794754098365 1.86566336918e-05 0.0 0.0 0.0
304 1 63.610583606557384 21.75929114754099 3.82486527457e-05 0.0 0.0 0.0
305 1 66.38157377049181 21.719857049180327 3.89033650691e-06 0.0 0.0 0.0
306 1 69.16670163934427 21.572572459016396 8.30943977929e-05 0.0 0.0 0.0
307 1 71.96142295081967 21.561817704918035 2.88853797267e-05 0.0 0.0 0.0
308 1 74.51529836065575 21.67396 3.60403362431e-06 0.0 0.0 0.0
309 1 77.14844590163936 21.464267540983606 7.64785084454e-05 0.0 0.0 0.0
310 1 79.82602622950822 21.413220327868856 4.03761014966e-05 0.0 0.0 0.0
311 1 1.1064824262295083 23.51468918032787 5.08656197259e-05 0.0 0.0 0.0
312 1 3.9034253770491807 23.641524590163936 9.06531335918e-05 0.0 0.0 0.0
313 1 6.433413114754099 24.002793442622952 5.62044976913e-05 0.0 0.0 0.0
314 1 9.276101639344263 23.90887868852459 1.513871033e-05 0.0 0.0 0.0
315 1 12.141158032786887 23.88590491803279 4.22735782281e-05 0.0 0.0 0.0
316 1 15.818980983606558 23.574219016393446 8.47878042013e-05 0.0 0.0 0.0
317 1 17.33747147540984 23.876917377049182 1.28082036265e-05 0.0 0.0 0.0
318 1 20.066603934426233 24.132809836065576 3.63743772787e-06 0.0 0.0 0.0
319 1 22.743881311475413 24.13023475409836 4.89296074928e-05 0.0 0.0 0.0
320 1 25.370717377049182 24.141342950819674 1.75123117589e-06 0.0 0.0 0.0
321 1 28.00336 24.109634098360658 8.74048747766e-05 0.0 0.0 0.0
322 1 30.59187278688525 23.989615081967212 1.49472890586e-05 0.0 0.0 0.0
323 1 33.30096 23.94018360655738 2.71476119157e-05 0.0 0.0 0.0
324 1 35.977580983606565 24.245961967213116 2.36099767428e-05 0.0 0.0 0.0
325 1 38.68217442622951 24.163559344262296 3.0386061819e-05 0.0 0.0 0.0
326 1 41.327793442622955 23.717565245901643 2.51452658752e-05 0.0 0.0 0.0
327 1 44.03168000000001 23.651723934426233 6.13841837912e-05 0.0 0.0 0.0
328 1 46.647963278688536 23.708476721311477 6.89731886902e-05 0.0 0.0 0.0
329 1 49.281211803278694 23.53281573770492 2.83408458416e-05 0.0 0.0 0.0
330 1 51.62534426229509 24.830808524590168 2.24867821776e-05 0.0 0.0 0.0
331 1 54.40542295081968 23.88110819672131 6.01515600409e-05 0.0 0.0 0.0
332 1 57.106734426229515 23.814408524590167 5.51031184976e-05 0.0 0.0 0.0
333 1 59.768157377049185 23.637687213114756 1.70831328048e-05 0.0 0.0 0.0
334 1 62.17560655737706 24.897457704918036 9.744314273e-05 0.0 0.0 0.0
335 1 65.03647213114755 23.996481967213118 8.85006771784e-05 0.0 0.0 0.0
336 1 67.82563934426231 23.879189508196724 7.07401378459e-05 0.0 0.0 0.0
337 1 70.52038688524591 23.80739016393443 2.81363688922e-05 0.0 0.0 0.0
338 1 73.1813049180328 23.992442622950822 6.65705470795e-06 0.0 0.0 0.0
339 1 75.88160655737705 23.88322885245902 9.52962707421e-05 0.0 0.0 0.0
340 1 78.54555409836067 23.73644918032787 3.7081259373e-06 0.0 0.0 0.0
341 1 81.18930491803279 23.649199344262296 9.32194760948e-05 0.0 0.0 0.0
342 1 82.6409442622951 25.92016918032787 9.41233466496e-06 0.0 0.0 0.0
343 1 2.5719312786885244 25.705124590163937 8.51594328653e-05 0.0 0.0 0.0
344 1 3.935225114754099 27.515861639344266 2.84097572612e-05 0.0 0.0 0.0
345 1 7.9567508196721315 26.14086885245902 1.75420273022e-05 0.0 0.0 0.0
346 1 10.648216393442624 26.039834754098365 5.67154387176e-05 0.0 0.0 0.0
347 1 13.284494426229509 26.259474098360656 8.76441257741e-05 0.0 0.0 0.0
348 1 15.856193442622953 26.127740983606557 2.11391560195e-05 0.0 0.0 0.0
349 1 18.689692459016396 26.260685901639345 1.16452191734e-07 0.0 0.0 0.0
350 1 21.43488131147541 26.436952786885247 3.52729385993e-05 0.0 0.0 0.0
351 1 24.09297180327869 26.486586229508198 4.10260992859e-05 0.0 0.0 0.0
352 1 26.782417704918036 26.46507672131148 8.89498207957e-05 0.0 0.0 0.0
353 1 29.512711475409837 26.4081724590164 8.8132588884e-05 0.0 0.0 0.0
354 1 32.179436065573775 26.187220327868854 4.72242135381e-05 0.0 0.0 0.0
355 1 34.54427016393443 27.437346885245905 7.64297169083e-05 0.0 0.0 0.0
356 1 37.39736 26.532533770491806 2.79266357979e-05 0.0 0.0 0.0
357 1 41.02620590163935 25.96187540983607 4.6340911543e-05 0.0 0.0 0.0
358 1 42.57287081967213 25.9260262295082 7.17068080727e-05 0.0 0.0 0.0
359 1 45.26090295081968 26.037916065573775 2.84203652206e-05 0.0 0.0 0.0
360 1 48.033963278688525 25.9814662295082 4.81643988533e-06 0.0 0.0 0.0
361 1 50.84070163934427 26.16162098360656 3.74768310379e-05 0.0 0.0 0.0
362 1 53.40063606557377 26.343139016393444 9.45821139296e-05 0.0 0.0 0.0
363 1 55.966124590163936 26.158995409836066 2.83116812569e-06 0.0 0.0 0.0
364 1 58.593718032786896 26.082550819672132 7.75788720766e-05 0.0 0.0 0.0
365 1 61.35915409836066 26.211102950819676 4.5773005885e-05 0.0 0.0 0.0
366 1 63.947868852459024 26.348945573770497 3.18654493075e-05 0.0 0.0 0.0
367 1 66.62948852459017 26.153744262295085 4.32420459358e-06 0.0 0.0 0.0
368 1 69.27980327868853 26.15470360655738 5.82420357134e-05 0.0 0.0 0.0
369 1 71.89224918032787 26.214889836065577 3.50697506428e-05 0.0 0.0 0.0
370 1 74.59255081967214 26.20968918032787 8.25765759154e-05 0.0 0.0 0.0
371 1 77.30900983606558 26.108352131147544 5.0632718182e-05 0.0 0.0 0.0
372 1 79.98053114754099 26.012468196721315 3.99681771234e-05 0.0 0.0 0.0
373 1 1.485100262295082 28.135244590163936 2.58727667414e-05 0.0 0.0 0.0
374 1 5.427969836065574 27.825729836065577 1.57512913963e-05 0.0 0.0 0.0
375 1 7.203413114754099 28.638445901639347 5.84672681857e-05 0.0 0.0 0.0
376 1 9.575568524590166 28.3506931147541 8.40269757993e-05 0.0 0.0 0.0
377 1 12.103541639344263 28.432035409836068 5.5370988474e-05 0.0 0.0 0.0
378 1 14.749312131147542 28.53024196721312 9.89210794229e-05 0.0 0.0 0.0
379 1 17.3967993442623 28.353217704918034 2.23465478552e-05 0.0 0.0 0.0
380 1 20.13481836065574 28.596285245901644 5.29799465146e-05 0.0 0.0 0.0
381 1 22.80169442622951 28.798403934426233 5.34753393089e-05 0.0 0.0 0.0
382 1 25.483920000000005 28.781640655737707 1.56363168035e-05 0.0 0.0 0.0
383 1 28.23491540983607 28.69989442622951 1.66373060572e-07 0.0 0.0 0.0
384 1 30.93562098360656 28.626176393442623 6.69528279266e-05 0.0 0.0 0.0
385 1 33.692978360655744 28.728220327868854 1.37834883186e-05 0.0 0.0 0.0
386 1 36.193332459016396 28.90741573770492 8.83752535064e-05 0.0 0.0 0.0
387 1 38.7234262295082 28.85621704918033 2.10075600112e-05 0.0 0.0 0.0
388 1 41.17101639344263 28.571645245901642 7.75704935957e-05 0.0 0.0 0.0
389 1 43.87742754098361 28.310804590163936 4.2389826529e-06 0.0 0.0 0.0
390 1 46.58106163934427 28.253344918032788 6.97564339672e-05 0.0 0.0 0.0
391 1 49.315192786885255 28.280862950819678 6.13366208656e-05 0.0 0.0 0.0
392 1 52.02624918032787 28.620723278688526 8.92399015329e-05 0.0 0.0 0.0
393 1 54.67706885245902 28.638900327868857 2.5100790582e-05 0.0 0.0 0.0
394 1 57.235993442622956 28.498482622950824 9.80093135694e-05 0.0 0.0 0.0
395 1 59.85298360655739 28.40618360655738 4.32894682183e-05 0.0 0.0 0.0
396 1 62.55025573770493 28.61708786885246 9.97117083434e-05 0.0 0.0 0.0
397 1 65.26469508196722 28.518426885245905 7.06682347626e-05 0.0 0.0 0.0
398 1 68.00539016393444 28.487828852459018 6.03856729973e-05 0.0 0.0 0.0
399 1 70.64712131147542 28.553518688524594 4.95223976544e-05 0.0 0.0 0.0
400 1 73.33631475409837 28.4978262295082 8.43999119324e-05 0.0 0.0 0.0
401 1 76.08256393442623 28.413454426229514 3.68849168653e-05 0.0 0.0 0.0
402 1 78.76620327868852 28.35720655737705 3.57793164918e-06 0.0 0.0 0.0
403 1 81.46448524590166 28.268896393442624 7.52301566527e-05 0.0 0.0 0.0
404 1 0.25471902950819675 30.47089442622951 7.31195392109e-05 0.0 0.0 0.0
405 1 2.9216678032786887 30.28008590163935 6.00567984787e-05 0.0 0.0 0.0
406 1 5.5209252459016405 30.781822950819674 2.28128720397e-05 0.0 0.0 0.0
407 1 8.162252459016395 30.912243278688525 8.5990172499e-05 0.0 0.0 0.0
408 1 10.763539672131149 30.772078032786887 5.47504087426e-05 0.0 0.0 0.0
409 1 13.429153442622951 30.769856393442627 4.84373255541e-05 0.0 0.0 0.0
410 1 16.0584131147541 30.735471475409838 4.28847894848e-05 0.0 0.0 0.0
411 1 18.60087737704918 30.69522950819672 7.0370843867e-05 0.0 0.0 0.0
412 1 21.272348196721314 31.01767016393443 2.40079366775e-05 0.0 0.0 0.0