ITEM: TIMESTEP
0
ITEM: NUMBER OF ATOMS
2232
ITEM: BOX BOUNDS xy xz yz pp pp pp
0.0 82.68810555352132 0
0.0 83.16 0
-10.0 10.0 0
ITEM: ATOMS id type x y z vx vy vz
1 1 1.6197518032786886 1.2342923278688525 4.51574609727e-05 0.0 0.0 0.0
2 1 4.32889455737705 1.2362716065573771 3.37129512268e-05 0.0 0.0 0.0
3 1 7.030832131147542 1.121362360655738 4.07185715095e-05 0.0 0.0 0.0
4 1 9.731184262295082 1.0129413114754098 1.21603026213e-05 0.0 0.0 0.0
5 1 12.439463606557378 0.9722752131147542 5.62035127745e-05 0.0 0.0 0.0
6 1 15.044083278688527 0.8546343606557378 9.61544520069e-06 0.0 0.0 0.0
7 1 17.655569836065574 1.8413956721311477 7.33500039319e-05 0.0 0.0 0.0
8 1 20.377280000000003 0.522256918032787 2.20101011144e-05 0.0 0.0 0.0
9 1 23.28237639344262 0.42222912131147544 8.41807445383e-05 0.0 0.0 0.0
10 1 26.78984 0.14949108196721314 4.84674667308e-05 0.0 0.0 0.0
11 1 28.326305573770494 0.2642367344262295 9.08400991899e-05 0.0 0.0 0.0
12 1 30.846704918032792 0.2925207278688525 6.58972587835e-06 0.0 0.0 0.0
13 1 33.56457770491804 0.12577003278688526 6.98966923038e-05 0.0 0.0 0.0
14 1 36.20610688524591 0.13693074098360655 7.55438088994e-05 0.0 0.0 0.0
15 1 38.83157967213115 0.23662832131147543 8.68508985236e-05 0.0 0.0 0.0
16 1 41.52688262295082 0.3425974885245902 4.33721238201e-05 0.0 0.0 0.0
17 1 44.30085180327869 0.6207563278688525 5.50067131302e-05 0.0 0.0 0.0
18 1 46.85402032786885 0.8848133114754099 1.17073865384e-05 0.0 0.0 0.0
19 1 49.3825993442623 0.8447076721311476 8.4054333375e-05 0.0 0.0 0.0
20 1 51.835390163934434 1.07338 1.17190699973e-05 0.0 0.0 0.0
21 1 54.229206557377054 0.9150074098360657 9.88152507269e-07 0.0 0.0 0.0
22 1 56.7840918032787 0.6396705573770493 6.01744568572e-05 0.0 0.0 0.0
23 1 59.46419672131148 0.6765447213114755 3.35402651172e-05 0.0 0.0 0.0
24 1 62.784537704918044 0.7418255737704919 9.3210342762e-05 0.0 0.0 0.0
25 1 65.54997377049182 0.7849910163934426 3.18450031943e-05 0.0 0.0 0.0
26 1 68.1715081967213 0.9879276721311476 2.78876238705e-05 0.0 0.0 0.0
27 1 70.88493770491804 1.0609590163934426 1.77178165315e-06 0.0 0.0 0.0
28 1 73.666531147541 1.2553575081967214 3.12091911146e-05 0.0 0.0 0.0
29 1 76.40823606557377 1.4609601311475413 2.4072262204e-05 0.0 0.0 0.0
30 1 79.00200000000001 1.0264983606557379 9.92755991529e-05 0.0 0.0 0.0
31 1 81.67857049180328 1.1051241967213117 1.99526851536e-06 0.0 0.0 0.0
32 1 0.18671363934426233 3.510871803278689 3.50863511879e-06 0.0 0.0 0.0
33 1 3.0081855081967217 3.5102255081967217 7.40456240934e-05 0.0 0.0 0.0
34 1 5.722993442622951 3.4671055081967217 4.0819766656e-05 0.0 0.0 0.0
35 1 8.459901639344263 3.353781704918033 2.26656224287e-05 0.0 0.0 0.0
36 1 11.260580983606559 3.2680062295081966 4.8018301147e-05 0.0 0.0 0.0
37 1 14.068935081967215 3.2507228852459016 7.6342258806e-05 0.0 0.0 0.0
38 1 16.90733180327869 3.200912721311476 5.11138751429e-05 0.0 0.0 0.0
39 1 19.425206557377052 3.0625651803278693 1.48235969211e-05 0.0 0.0 0.0
40 1 21.88350098360656 2.53877331147541 9.6814769001e-05 0.0 0.0 0.0
41 1 24.50806491803279 2.8093235409836073 7.18624361662e-05 0.0 0.0 0.0
42 1 26.924905573770495 2.828904262295082 6.11428895217e-07 0.0 0.0 0.0
43 1 29.57380655737705 2.7337221639344262 8.71235387871e-05 0.0 0.0 0.0
44 1 32.20347016393443 2.446898426229508 1.54605372625e-05 0.0 0.0 0.0
45 1 34.85297704918033 2.4539470819672133 7.28621025455e-05 0.0 0.0 0.0
46 1 37.3862518032787 2.534324983606558 3.41520895107e-05 0.0 0.0 0.0
47 1 40.01808655737705 2.579818098360656 2.82133358735e-05 0.0 0.0 0.0
48 1 42.67456131147541 2.689289377049181 8.38854989847e-05 0.0 0.0 0.0
49 1 45.32947081967213 3.09378931147541 9.79041127871e-05 0.0 0.0 0.0
50 1 48.05390754098361 3.2688696393442624 9.49040122274e-05 0.0 0.0 0.0
51 1 50.59935081967213 3.4250256393442626 7.93840795667e-05 0.0 0.0 0.0
52 1 53.21381639344263 3.471468 3.88187345481e-06 0.0 0.0 0.0
53 1 55.88483278688525 3.1472853770491804 9.49828381107e-05 0.0 0.0 0.0
54 1 58.38316721311476 2.861395737704918 2.14181797549e-05 0.0 0.0 0.0
55 1 60.443232786885254 1.88365731147541 5.32904115194e-05 0.0 0.0 0.0
56 1 63.987252459016396 2.9532201311475412 8.49542859352e-05 0.0 0.0 0.0
57 1 66.51891147540984 3.219306885245902 4.54330171615e-05 0.0 0.0 0.0
58 1 69.60699016393444 3.297407606557377 8.85687769947e-05 0.0 0.0 0.0
59 1 72.31688524590164 3.3392097704918036 4.89855118551e-05 0.0 0.0 0.0
60 1 74.93488524590164 3.5949255081967215 9.22618167189e-05 0.0 0.0 0.0
61 1 78.61876721311475 3.368353639344263 8.52740159461e-05 0.0 0.0 0.0
62 1 80.16735081967214 3.33604393442623 6.74703853986e-05 0.0 0.0 0.0
63 1 1.71980131147541 5.680580327868853 7.54497777202e-05 0.0 0.0 0.0
64 1 4.422496262295082 5.7793422950819675 4.52731768718e-05 0.0 0.0 0.0
65 1 7.120556065573771 5.673864918032788 1.70234139285e-05 0.0 0.0 0.0
66 1 9.916994098360655 5.50436393442623 4.13241291226e-05 0.0 0.0 0.0
67 1 12.731710163934427 5.461092459016394 3.30166222223e-05 0.0 0.0 0.0
68 1 15.543548196721314 5.4331704918032795 7.75872714313e-05 0.0 0.0 0.0
69 1 18.337007213114756 5.524560655737705 3.36294081304e-05 0.0 0.0 0.0
70 1 21.527988196721314 5.008463737704918 7.46809288295e-05 0.0 0.0 0.0
71 1 23.047135081967216 4.933695475409837 7.69570329588e-06 0.0 0.0 0.0
72 1 25.611613770491804 5.271293770491804 9.46429780456e-05 0.0 0.0 0.0
73 1 28.219515409836067 5.1532439344262295 2.70613943159e-05 0.0 0.0 0.0
74 1 31.735865573770493 4.72396262295082 6.37453495856e-05 0.0 0.0 0.0
75 1 33.27945049180328 4.726052983606558 5.0886753127e-06 0.0 0.0 0.0
76 1 35.86942754098361 4.896397180327869 6.6406728903e-05 0.0 0.0 0.0
77 1 38.517975081967215 4.889883737704919 7.42434661924e-05 0.0 0.0 0.0
78 1 41.18424524590164 4.9477372459016395 7.63970931778e-05 0.0 0.0 0.0
79 1 43.819008524590174 5.16440262295082 7.43885178077e-05 0.0 0.0 0.0
80 1 46.398281311475415 5.392373114754099 3.22972092475e-05 0.0 0.0 0.0
81 1 49.053039344262295 5.7435436065573775 4.05773633467e-06 0.0 0.0 0.0
82 1 52.06714754098361 5.805648524590165 7.17901087939e-05 0.0 0.0 0.0
83 1 54.81945573770492 5.580354098360656 8.25949961329e-05 0.0 0.0 0.0
84 1 58.30591475409837 5.006999475409837 2.45039683163e-05 0.0 0.0 0.0
85 1 59.850459016393444 4.843002098360656 3.2682459843e-05 0.0 0.0 0.0
86 1 62.46542950819673 5.0865442622950825 4.17115251198e-05 0.0 0.0 0.0
87 1 65.11624918032787 5.461546885245903 6.76635750805e-05 0.0 0.0 0.0
88 1 67.22327213114755 4.581883737704919 1.74212323978e-06 0.0 0.0 0.0
89 1 70.79051803278689 5.534860983606558 1.50098492168e-05 0.0 0.0 0.0
90 1 73.20251147540985 5.754904262295082 8.00096676944e-06 0.0 0.0 0.0
91 1 75.63975081967214 5.946116721311476 3.1937752937e-05 0.0 0.0 0.0
92 1 78.17696393442623 6.06684262295082 4.5411840915e-06 0.0 0.0 0.0
93 1 81.53062950819674 5.731829508196722 1.41350375941e-05 0.0 0.0 0.0
94 1 0.1407524655737705 7.757358688524591 9.47810733205e-05 0.0 0.0 0.0
95 1 2.854008786885246 8.011938360655739 4.27067109464e-06 0.0 0.0 0.0
96 1 5.926475409836066 8.032539016393443 8.66916708945e-05 0.0 0.0 0.0
97 1 8.638996065573771 7.777605901639346 6.48652379624e-06 0.0 0.0 0.0
98 1 11.237203278688526 7.662383606557378 2.55147633942e-05 0.0 0.0 0.0
99 1 14.048536393442625 7.64960918032787 7.87290880531e-05 0.0 0.0 0.0
100 1 17.547365901639346 7.563419672131149 9.24611361453e-05 0.0 0.0 0.0
101 1 19.05868655737705 7.843043278688525 1.40204604585e-05 0.0 0.0 0.0
102 1 22.31848786885246 7.484500983606558 1.07966870079e-05 0.0 0.0 0.0
103 1 23.867525901639347 7.4031586885245915 7.14708469026e-05 0.0 0.0 0.0
104 1 26.515164590163938 7.527520000000001 5.25801849012e-05 0.0 0.0 0.0
105 1 29.172093770491806 7.597653114754099 5.68655194567e-06 0.0 0.0 0.0
106 1 31.76096 7.40628918032787 4.40243978491e-05 0.0 0.0 0.0
107 1 34.50428065573771 7.210885901639345 4.39573439546e-05 0.0 0.0 0.0
108 1 37.14762754098361 7.229062950819673 9.46679134693e-05 0.0 0.0 0.0
109 1 39.77693770491803 7.221994098360656 5.1629039151e-05 0.0 0.0 0.0
110 1 42.48935737704918 7.365794754098362 4.26716146172e-05 0.0 0.0 0.0
111 1 45.03570950819673 7.632441967213115 4.63937732725e-05 0.0 0.0 0.0
112 1 47.55888590163935 7.819362622950821 6.41578454824e-05 0.0 0.0 0.0
113 1 49.73068983606558 7.127220983606558 7.54922403282e-05 0.0 0.0 0.0
114 1 53.33550163934427 7.876519344262296 7.68156124534e-05 0.0 0.0 0.0
115 1 55.86261639344263 7.958669508196722 9.08284311807e-06 0.0 0.0 0.0
116 1 58.37458360655738 7.7149960655737715 1.06410285183e-05 0.0 0.0 0.0
117 1 61.09558688524591 7.375388196721313 6.81668032668e-05 0.0 0.0 0.0
118 1 63.80952131147542 7.62072786885246 1.34934248126e-05 0.0 0.0 0.0
119 1 67.35808524590165 7.323179672131149 6.81441949024e-05 0.0 0.0 0.0
120 1 68.90515409836065 7.451630819672133 6.49733132759e-05 0.0 0.0 0.0
121 1 71.52416393442624 8.05884524590164 1.10951769948e-05 0.0 0.0 0.0
122 1 74.20729836065574 8.279696393442624 4.34173863597e-05 0.0 0.0 0.0
123 1 76.8616524590164 8.34796131147541 7.52767396767e-05 0.0 0.0 0.0
124 1 79.13226885245903 7.2693049180327876 9.27250039055e-05 0.0 0.0 0.0
125 1 1.2815021639344264 10.07700262295082 6.71004109006e-05 0.0 0.0 0.0
126 1 3.580908983606558 9.365623606557378 6.86838932728e-06 0.0 0.0 0.0
127 1 7.261680655737705 10.131129836065575 2.60922109746e-05 0.0 0.0 0.0
128 1 9.81944393442623 10.081597377049182 6.31035686548e-05 0.0 0.0 0.0
129 1 12.405432131147542 9.786018360655738 2.3888605483e-05 0.0 0.0 0.0
130 1 14.961781639344265 10.155921311475412 3.87181932129e-05 0.0 0.0 0.0
131 1 17.334845901639348 10.27260786885246 9.51382836957e-05 0.0 0.0 0.0
132 1 19.932144262295083 10.43084918032787 8.25116103289e-05 0.0 0.0 0.0
133 1 22.43603278688525 10.227619672131148 1.60757028961e-05 0.0 0.0 0.0
134 1 25.111997377049182 9.834036065573772 4.14103127952e-06 0.0 0.0 0.0
135 1 27.822498360655743 9.867916065573771 3.84952630925e-05 0.0 0.0 0.0
136 1 30.59050950819672 9.841155409836066 6.74668079695e-05 0.0 0.0 0.0
137 1 33.32403475409837 9.570216393442625 6.14924888247e-06 0.0 0.0 0.0
138 1 35.98576065573771 9.569560000000001 4.6586833503e-05 0.0 0.0 0.0
139 1 38.57881770491804 9.566076065573771 8.52549254827e-05 0.0 0.0 0.0
140 1 41.22468918032787 9.523107540983608 3.85827050617e-05 0.0 0.0 0.0
141 1 43.74912786885246 9.87569180327869 9.65184864483e-05 0.0 0.0 0.0
142 1 46.31688852459017 10.120980983606557 7.26268352118e-06 0.0 0.0 0.0
143 1 49.013958688524596 10.005152786885247 7.10656294103e-05 0.0 0.0 0.0
144 1 51.70815081967214 10.030550163934427 8.42992188463e-05 0.0 0.0 0.0
145 1 54.39280000000001 10.286796065573771 2.71740432618e-05 0.0 0.0 0.0
146 1 57.09310163934427 10.21403737704918 9.11687947665e-05 0.0 0.0 0.0
147 1 59.73079344262296 9.807477377049182 3.11041395696e-05 0.0 0.0 0.0
148 1 62.37201967213115 9.799095737704919 9.97846285964e-05 0.0 0.0 0.0
149 1 64.92488524590165 10.10931737704918 9.10571578391e-05 0.0 0.0 0.0
150 1 67.32779016393442 10.055190163934427 5.22488466583e-05 0.0 0.0 0.0
151 1 70.03112131147542 10.075083934426232 8.33107841108e-05 0.0 0.0 0.0
152 1 72.83644590163935 10.44730950819672 8.45313152923e-05 0.0 0.0 0.0
153 1 75.64278032786886 10.598380983606559 8.05096407588e-05 0.0 0.0 0.0
154 1 78.45062950819673 10.151982950819674 9.91790032953e-06 0.0 0.0 0.0
155 1 81.25999344262297 9.872712786885247 7.98268603679e-05 0.0 0.0 0.0
156 1 0.07957457704918033 12.216643278688526 9.68415372176e-05 0.0 0.0 0.0
157 1 2.8046833442622954 12.174028196721313 5.60768156395e-05 0.0 0.0 0.0
158 1 5.53364918032787 12.222096393442623 1.11365869504e-05 0.0 0.0 0.0
159 1 8.20436262295082 12.45870098360656 6.01710445647e-07 0.0 0.0 0.0
160 1 11.822504262295084 12.129898360655739 2.65959234177e-05 0.0 0.0 0.0
161 1 13.347407213114755 12.26269180327869 3.61768585372e-05 0.0 0.0 0.0
162 1 16.01801967213115 12.68768131147541 5.97616453532e-05 0.0 0.0 0.0
163 1 18.69105573770492 12.694750163934428 3.18473706739e-05 0.0 0.0 0.0
164 1 21.31294360655738 12.727923278688525 4.54403718813e-05 0.0 0.0 0.0
165 1 23.91660393442623 12.325806557377051 8.69462003254e-06 0.0 0.0 0.0
166 1 26.543440000000004 12.132725901639345 1.2874073378e-05 0.0 0.0 0.0
167 1 29.267220327868856 12.065521311475411 8.33720089158e-05 0.0 0.0 0.0
168 1 32.05603409836066 11.941715409836068 1.82331307275e-05 0.0 0.0 0.0
169 1 34.81763278688525 11.898191475409837 2.63751966414e-06 0.0 0.0 0.0
170 1 37.57761573770492 11.9342931147541 9.75882629894e-05 0.0 0.0 0.0
171 1 40.48230819672132 11.749644590163935 9.28966138202e-05 0.0 0.0 0.0
172 1 42.03876852459017 12.036539016393444 4.14268153468e-05 0.0 0.0 0.0
173 1 44.78956196721312 12.36928 9.29979208324e-05 0.0 0.0 0.0
174 1 47.58761573770492 12.36049442622951 6.10824099493e-05 0.0 0.0 0.0
175 1 50.32376655737705 12.330401311475411 6.98176859589e-05 0.0 0.0 0.0
176 1 53.00932459016394 12.446481967213117 9.70031672345e-05 0.0 0.0 0.0
177 1 55.707606557377055 12.513838032786886 4.80051816554e-05 0.0 0.0 0.0
178 1 58.37559344262296 12.302378360655739 5.33314150749e-05 0.0 0.0 0.0
179 1 61.0304524590164 12.132776393442624 4.73118501378e-05 0.0 0.0 0.0
180 1 63.7524655737705 12.323534426229509 3.48974564605e-05 0.0 0.0 0.0
181 1 66.27554098360656 12.569782950819674 1.26682875089e-05 0.0 0.0 0.0
182 1 68.77438032786885 12.392102295081969 7.42144722781e-05 0.0 0.0 0.0
183 1 71.35350163934427 12.434414426229509 8.36095955265e-06 0.0 0.0 0.0
184 1 74.11186885245903 12.71585573770492 4.3845089764e-06 0.0 0.0 0.0
185 1 77.3584918032787 12.520654426229509 2.8452782432e-05 0.0 0.0 0.0
186 1 80.11080000000001 12.158931147540985 8.81659034026e-06 0.0 0.0 0.0
187 1 1.3532207213114755 14.465548196721313 9.96755400853e-05 0.0 0.0 0.0
188 1 4.018940524590165 14.476353442622953 3.60482677876e-05 0.0 0.0 0.0
189 1 6.624979016393444 14.651711475409838 6.89823839961e-05 0.0 0.0 0.0
190 1 9.10261180327869 14.888518032786886 5.38598807121e-05 0.0 0.0 0.0
191 1 11.746261639344263 14.688671475409837 6.85069164675e-05 0.0 0.0 0.0
192 1 14.557645245901641 14.723561311475411 3.27641522845e-05 0.0 0.0 0.0
193 1 17.35090229508197 14.979706229508198 5.71930244833e-05 0.0 0.0 0.0
194 1 20.046407213114758 15.058372459016395 6.21775100359e-06 0.0 0.0 0.0
195 1 22.713434754098362 14.864837377049183 5.41934323035e-05 0.0 0.0 0.0
196 1 25.38207803278689 14.568904918032787 4.83931924041e-06 0.0 0.0 0.0
197 1 27.940851147540986 14.358101639344262 1.55588304011e-05 0.0 0.0 0.0
198 1 30.672861639344262 14.194558688524593 3.73237151454e-05 0.0 0.0 0.0
199 1 33.35589508196721 14.152145573770493 9.4334165439e-05 0.0 0.0 0.0
200 1 35.948245245901646 14.184561311475411 1.56270127938e-05 0.0 0.0 0.0
201 1 38.55862098360656 14.911744262295084 8.07937018506e-05 0.0 0.0 0.0
202 1 40.85387737704919 14.818940327868853 3.39018722379e-05 0.0 0.0 0.0
203 1 43.51933967213115 14.512859016393444 7.80965186353e-05 0.0 0.0 0.0
204 1 46.23039606557377 14.59733180327869 7.93767346325e-06 0.0 0.0 0.0
205 1 49.002042622950825 14.618689836065576 3.04269630635e-05 0.0 0.0 0.0
206 1 51.725822950819676 14.695083934426231 6.43586603721e-05 0.0 0.0 0.0
207 1 54.41501639344263 14.76945836065574 1.84008172696e-05 0.0 0.0 0.0
208 1 57.068865573770495 14.709777049180328 6.48731761801e-05 0.0 0.0 0.0
209 1 59.678281967213124 14.5177062295082 9.5224225208e-05 0.0 0.0 0.0
210 1 62.40786885245902 14.451259016393443 1.91427706268e-05 0.0 0.0 0.0
211 1 65.05616393442624 14.870946885245903 9.28083687891e-05 0.0 0.0 0.0
212 1 67.67466885245902 14.932647868852461 2.34531433612e-05 0.0 0.0 0.0
213 1 70.20885245901641 14.796673442622952 5.10128313196e-05 0.0 0.0 0.0
214 1 72.89451147540984 14.73790098360656 2.5988944061e-05 0.0 0.0 0.0
215 1 75.0136524590164 13.962750819672133 5.48679478571e-05 0.0 0.0 0.0
216 1 78.83891147540984 14.501952786885246 6.24371328359e-05 0.0 0.0 0.0
217 1 81.43772459016394 14.494076065573772 4.32580216066e-05 0.0 0.0 0.0
218 1 82.53087213114755 16.82932196721312 4.0080527398e-05 0.0 0.0 0.0
219 1 2.4945778360655737 16.77650754098361 4.16009848204e-05 0.0 0.0 0.0
220 1 5.242715409836066 16.926266229508197 6.82628624409e-05 0.0 0.0 0.0
221 1 7.893181639344263 17.20387016393443 1.95396555947e-05 0.0 0.0 0.0
222 1 10.531630819672133 17.049617704918035 7.46883201903e-05 0.0 0.0 0.0
223 1 13.224762622950822 16.85840524590164 5.18288010614e-05 0.0 0.0 0.0
224 1 15.78585836065574 17.01124393442623 1.66175043515e-05 0.0 0.0 0.0
225 1 18.51044655737705 17.301470819672133 2.09669136174e-05 0.0 0.0 0.0
226 1 21.584185573770494 17.278396065573773 8.27220307295e-05 0.0 0.0 0.0
227 1 24.336241311475412 16.99321836065574 1.81266116104e-05 0.0 0.0 0.0
228 1 26.85184393442623 16.854365901639348 9.94261454845e-05 0.0 0.0 0.0
229 1 29.331344918032787 16.49925704918033 7.13808066619e-05 0.0 0.0 0.0
230 1 31.945659016393446 16.4526531147541 4.52157708688e-06 0.0 0.0 0.0
231 1 34.405518688524594 16.528087868852463 7.90295017562e-05 0.0 0.0 0.0
232 1 36.95636459016394 16.766207213114757 6.05663270454e-05 0.0 0.0 0.0
233 1 39.71796327868853 17.364636065573773 4.02380227952e-05 0.0 0.0 0.0
234 1 42.41220590163935 16.990138360655738 5.81751815465e-05 0.0 0.0 0.0
235 1 44.9682524590164 16.873805245901643 4.50227091326e-05 0.0 0.0 0.0
236 1 47.722378360655746 16.843308196721313 4.56973691836e-05 0.0 0.0 0.0
237 1 50.468021639344265 16.93086098360656 6.28479965324e-05 0.0 0.0 0.0
238 1 53.20068852459017 17.034924590163936 1.57392906005e-05 0.0 0.0 0.0
239 1 55.8903868852459 17.069662950819676 8.61688667541e-05 0.0 0.0 0.0
240 1 58.5588786885246 16.9561068852459 3.90173336201e-05 0.0 0.0 0.0
241 1 61.335927868852465 16.671636065573775 2.00139664324e-05 0.0 0.0 0.0
242 1 63.74287213114755 18.01840393442623 5.67578470928e-05 0.0 0.0 0.0
243 1 66.55375081967215 17.2825868852459 2.85220862199e-05 0.0 0.0 0.0
244 1 69.27273442622952 17.28435409836066 2.46794685748e-05 0.0 0.0 0.0
245 1 71.95586885245902 16.994985573770496 2.89984513847e-06 0.0 0.0 0.0
246 1 74.68040655737705 16.841692459016397 9.43872653515e-06 0.0 0.0 0.0
247 1 77.31102950819674 16.605239344262298 3.2682367311e-05 0.0 0.0 0.0
248 1 79.97497704918034 16.829372459016394 3.52154825535e-05 0.0 0.0 0.0
249 1 0.9207079344262296 19.106653770491803 5.68094929751e-05 0.0 0.0 0.0
250 1 3.617783147540984 19.05954491803279 2.91027422101e-05 0.0 0.0 0.0
251 1 6.371257704918033 19.384712131147545 3.63268238628e-05 0.0 0.0 0.0
252 1 10.214239344262296 19.12912262295082 4.126399902e-05 0.0 0.0 0.0
253 1 11.75146229508197 19.16810229508197 9.33660207139e-05 0.0 0.0 0.0
254 1 14.35673836065574 19.298775081967218 4.99257633388e-05 0.0 0.0 0.0
255 1 17.059312131147543 19.351135081967215 9.92979006076e-05 0.0 0.0 0.0
256 1 19.299380983606557 18.619407868852463 9.09410928873e-05 0.0 0.0 0.0
257 1 22.951251147540983 19.308419016393444 3.58677283603e-05 0.0 0.0 0.0
258 1 25.699570491803282 19.351791475409836 6.32290770615e-05 0.0 0.0 0.0
259 1 28.834000655737707 18.963206557377053 6.52584610973e-05 0.0 0.0 0.0
260 1 30.351784262295084 18.758310819672136 2.87937379712e-05 0.0 0.0 0.0
261 1 32.828508196721316 18.918521311475413 6.55621204483e-05 0.0 0.0 0.0
262 1 35.34855409836066 18.999611147540985 3.83669560194e-05 0.0 0.0 0.0
263 1 38.03527344262295 19.154166557377053 2.12769954414e-05 0.0 0.0 0.0
264 1 40.86387475409837 19.392487868852463 7.23388057013e-05 0.0 0.0 0.0
265 1 43.87308524590164 19.363455081967214 5.54304833306e-05 0.0 0.0 0.0
266 1 46.52042098360656 19.097969180327873 7.93384570104e-05 0.0 0.0 0.0
267 1 49.16609049180328 19.138918032786886 2.29267577413e-05 0.0 0.0 0.0
268 1 51.92829508196722 19.24939409836066 8.31504092646e-05 0.0 0.0 0.0
269 1 54.67959344262295 19.36719147540984 1.00155364037e-05 0.0 0.0 0.0
270 1 57.37131147540984 19.34896393442623 2.95648138676e-05 0.0 0.0 0.0
271 1 60.17057704918033 18.99481442622951 2.92412332317e-05 0.0 0.0 0.0
272 1 62.96378360655738 19.341238688524594 2.44309350317e-05 0.0 0.0 0.0
273 1 65.37123278688524 19.691904262295083 8.04331609317e-05 0.0 0.0 0.0
274 1 67.97560000000001 19.607229508196724 2.69925250478e-05 0.0 0.0 0.0
275 1 71.633731147541 19.16280065573771 4.05794299376e-05 0.0 0.0 0.0
276 1 73.2004918032787 19.17496918032787 3.72255731152e-05 0.0 0.0 0.0
277 1 76.80207213114755 18.90317180327869 1.20641034551e-05 0.0 0.0 0.0
278 1 78.35520000000001 18.987695081967214 1.65103108163e-05 0.0 0.0 0.0
279 1 80.96562622950822 19.20940459016394 4.07123801696e-05 0.0 0.0 0.0
280 1 82.27992786885247 21.502792786885248 1.55973392435e-05 0.0 0.0 0.0
281 1 2.237816918032787 21.346217704918036 2.04935768149e-05 0.0 0.0 0.0
282 1 4.968494426229508 21.382672786885248 9.10970852992e-05 0.0 0.0 0.0
283 1 7.057239344262296 20.767480655737707 3.73999293171e-05 0.0 0.0 0.0
284 1 10.566318688524591 21.92243016393443 7.31356672775e-05 0.0 0.0 0.0
285 1 13.12852524590164 21.584337049180327 3.48045951591e-05 0.0 0.0 0.0
286 1 15.827716065573773 21.56848262295082 5.61724659427e-05 0.0 0.0 0.0
287 1 18.666466229508195 21.45038229508197 3.56946808222e-05 0.0 0.0 0.0
288 1 21.376512786885247 21.518344262295084 6.72335720261e-05 0.0 0.0 0.0
289 1 24.123317377049183 21.526877377049182 5.06350143554e-07 0.0 0.0 0.0
290 1 26.2686131147541 22.950392786885246 1.31169726432e-05 0.0 0.0 0.0
291 1 29.666509508196725 21.332332459016396 8.56404696367e-05 0.0 0.0 0.0
292 1 31.241146885245904 21.262199344262296 9.45382980765e-05 0.0 0.0 0.0
293 1 33.841020327868854 21.361516721311478 9.80060315068e-05 0.0 0.0 0.0
294 1 36.60095278688525 21.323950819672135 1.26068484096e-05 0.0 0.0 0.0
295 1 39.33266032786886 21.351165901639348 3.15060206532e-06 0.0 0.0 0.0
296 1 41.65376852459017 20.701134426229512 2.46468669006e-05 0.0 0.0 0.0
297 1 45.18097442622952 21.519152131147546 4.16532999133e-05 0.0 0.0 0.0
298 1 47.73863672131149 21.445131147540984 9.0374155352e-05 0.0 0.0 0.0
299 1 50.46140721311476 21.419986229508197 2.12622650336e-05 0.0 0.0 0.0
300 1 53.2920786885246 21.57045180327869 8.31772253109e-05 0.0 0.0 0.0
301 1 55.95299672131148 21.712283278688528 3.64012443265e-05 0.0 0.0 0.0
302 1 59.70655737704919 21.095172459016396 7.62665297247e-05 0.0 0.0 0.0
303 1 61.23595409836066 21.301481967213117 8.50579913065e-06 0.0 0.0 0.0
304 1 63.74438688524591 21.946868196721315 2.95750921304e-05 0.0 0.0 0.0
305 1 66.35834754098362 21.982666885245905 3.50377898459e-05 0.0 0.0 0.0
306 1 68.94908196721312 22.016950819672132 7.3189607464e-06 0.0 0.0 0.0
307 1 71.50396721311476 21.804077377049182 6.05891196558e-05 0.0 0.0 0.0
308 1 74.24668196721312 21.687390819672135 9.03192832444e-05 0.0 0.0 0.0
309 1 76.85054426229509 21.533643278688526 6.18240603614e-05 0.0 0.0 0.0
310 1 79.672531147541 21.511376393442628 9.68714859453e-05 0.0 0.0 0.0
311 1 1.2702172459016396 23.712768524590167 3.37839780931e-05 0.0 0.0 0.0
312 1 3.9200624262295087 23.529988196721312 4.73447277552e-05 0.0 0.0 0.0
313 1 6.591805901639344 23.62986098360656 3.97489766013e-05 0.0 0.0 0.0
314 1 9.15381049180328 24.160075409836068 4.60484329826e-05 0.0 0.0 0.0
315 1 11.836339016393444 24.097415081967217 1.99192978615e-05 0.0 0.0 0.0
316 1 14.414349508196722 23.841825573770496 9.30917617282e-05 0.0 0.0 0.0
317 1 17.143532459016395 23.634152786885245 9.51859104468e-05 0.0 0.0 0.0
318 1 19.78910098360656 23.799866885245905 8.01917314164e-05 0.0 0.0 0.0
319 1 22.499349508196723 23.81380262295082 7.88072767917e-05 0.0 0.0 0.0
320 1 25.255192131147542 24.112007213114758 3.67606692558e-05 0.0 0.0 0.0
321 1 27.77862098360656 24.614097704918034 5.07865438435e-05 0.0 0.0 0.0
322 1 30.272360655737707 24.051164590163935 7.65487219128e-05 0.0 0.0 0.0
323 1 32.90818426229508 23.727411147540987 1.23121682118e-05 0.0 0.0 0.0
324 1 35.48205442622952 23.52246491803279 3.81037345055e-05 0.0 0.0 0.0
325 1 38.161502950819674 23.53251278688525 2.37758239408e-06 0.0 0.0 0.0
326 1 40.86488459016394 23.454048524590167 4.22476152667e-05 0.0 0.0 0.0
327 1 43.49777967213115 23.716706885245905 6.9655591631e-05 0.0 0.0 0.0
328 1 46.20944196721312 23.853236721311475 9.82340193435e-05 0.0 0.0 0.0
329 1 48.88752721311476 23.674142295081968 7.37176562686e-05 0.0 0.0 0.0
330 1 51.6440262295082 23.623196065573772 7.0753487203e-05 0.0 0.0 0.0
331 1 54.29888524590165 23.99254360655738 5.71547421848e-05 0.0 0.0 0.0
332 1 57.84744918032787 23.916048524590167 3.01852136434e-05 0.0 0.0 0.0
333 1 59.373816393442624 23.772348852459018 8.9349984151e-05 0.0 0.0 0.0
334 1 62.1735868852459 24.00794360655738 8.78178350152e-05 0.0 0.0 0.0
335 1 64.90115409836066 24.332252459016395 9.68406743857e-05 0.0 0.0 0.0
336 1 67.59236721311476 24.358811147540987 5.35504138167e-06 0.0 0.0 0.0
337 1 70.37951475409837 24.265401311475415 6.27982433054e-05 0.0 0.0 0.0
338 1 73.06466885245902 23.986989508196725 3.16194308305e-05 0.0 0.0 0.0
339 1 75.77355409836066 23.9524531147541 8.97179414302e-05 0.0 0.0 0.0
340 1 78.51778360655739 23.75381836065574 7.20987102507e-05 0.0 0.0 0.0
341 1 81.32462295081967 23.907262950819675 3.6663230415e-05 0.0 0.0 0.0
342 1 0.9401422295081968 25.971165901639345 1.31226294118e-05 0.0 0.0 0.0
343 1 3.466964131147541 25.693107540983608 9.94926902909e-05 0.0 0.0 0.0
344 1 5.010286491803279 25.83569639344263 4.43022370446e-05 0.0 0.0 0.0
345 1 7.703988852459017 26.23538950819672 6.33021164893e-05 0.0 0.0 0.0
346 1 10.46089180327869 26.418321311475413 4.01727269803e-05 0.0 0.0 0.0
347 1 13.263893770491805 26.330112131147544 9.21302001796e-05 0.0 0.0 0.0
348 1 15.988633442622953 25.943546885245905 9.71567730191e-06 0.0 0.0 0.0
349 1 18.230520000000002 27.17726360655738 5.38265429204e-05 0.0 0.0 0.0
350 1 20.99721836065574 26.126327213114756 8.60579827971e-05 0.0 0.0 0.0
351 1 23.715495081967216 26.191512131147544 9.70177105905e-05 0.0 0.0 0.0
352 1 26.364749508196724 26.67143672131148 4.66147477328e-06 0.0 0.0 0.0
353 1 29.129377704918035 26.652401311475412 3.21802666758e-05 0.0 0.0 0.0
354 1 31.832860327868854 26.237106229508196 9.84043879845e-05 0.0 0.0 0.0
355 1 35.255497704918035 25.7234531147541 7.8769864717e-05 0.0 0.0 0.0
356 1 36.82730754098361 25.78929442622951 9.5975419578e-05 0.0 0.0 0.0
357 1 39.640811803278694 25.735419672131147 4.48493030858e-05 0.0 0.0 0.0
358 1 42.017713442622956 27.012761311475412 7.0838496693e-05 0.0 0.0 0.0
359 1 44.85848327868853 26.108756065573772 7.98434147112e-05 0.0 0.0 0.0
360 1 47.690921967213114 26.064323278688526 5.67986992067e-05 0.0 0.0 0.0
361 1 50.40005967213115 25.84200786885246 6.71476439354e-05 0.0 0.0 0.0
362 1 52.54580983606558 27.234723278688527 9.54312947596e-05 0.0 0.0 0.0
363 1 55.32740327868853 26.56393967213115 7.07836407431e-05 0.0 0.0 0.0
364 1 57.88834754098361 26.40993967213115 9.02899299509e-05 0.0 0.0 0.0
365 1 60.62853770491804 26.11077573770492 7.09310202673e-05 0.0 0.0 0.0
366 1 63.362668852459024 26.46512721311476 6.10050121117e-05 0.0 0.0 0.0
367 1 66.48306229508196 26.649220327868854 6.17275454417e-05 0.0 0.0 0.0
368 1 69.2197180327869 26.481082622950822 8.95610312224e-05 0.0 0.0 0.0
369 1 71.86245901639344 26.398932459016397 1.72037249218e-05 0.0 0.0 0.0
370 1 74.49106229508197 26.250234098360657 1.64527244679e-06 0.0 0.0 0.0
371 1 77.16510819672132 26.11158360655738 4.288959408e-05 0.0 0.0 0.0
372 1 79.85632131147543 26.07618885245902 9.48743846519e-05 0.0 0.0 0.0
373 1 0.6519602622950821 28.449505573770494 6.51312150918e-05 0.0 0.0 0.0
374 1 3.2058912131147546 28.049913442622955 3.70876376844e-05 0.0 0.0 0.0
375 1 6.185346885245902 28.322973114754102 2.21108987487e-05 0.0 0.0 0.0
376 1 9.013796721311476 28.58866098360656 7.55866113377e-06 0.0 0.0 0.0
377 1 11.834066885245903 28.58366229508197 6.95376326049e-05 0.0 0.0 0.0
378 1 14.698214426229509 28.41012196721312 8.32152743989e-06 0.0 0.0 0.0
379 1 17.444665573770493 28.511358032786887 8.76254263713e-05 0.0 0.0 0.0
380 1 19.882005901639346 28.61254360655738 9.68292834371e-05 0.0 0.0 0.0
381 1 22.43633573770492 28.42496655737705 4.18420377737e-05 0.0 0.0 0.0
382 1 25.104928524590164 28.68247475409836 9.6790132525e-05 0.0 0.0 0.0
383 1 27.653653770491804 28.841826885245904 5.47713908828e-05 0.0 0.0 0.0
384 1 30.32699278688525 28.6395062295082 2.86717972682e-05 0.0 0.0 0.0
385 1 32.77932918032788 28.76921967213115 5.70922541105e-05 0.0 0.0 0.0
386 1 35.36925573770492 28.38654229508197 3.06090097751e-05 0.0 0.0 0.0
387 1 38.37548721311476 28.042945573770496 4.07431560284e-05 0.0 0.0 0.0
388 1 41.249985573770495 28.3646793442623 4.6295332077e-05 0.0 0.0 0.0
389 1 43.76503278688525 28.526455081967217 4.00828007393e-05 0.0 0.0 0.0
390 1 46.484420327868854 28.268542950819675 2.46930922918e-05 0.0 0.0 0.0
391 1 49.165787540983615 28.256172459016398 9.83613592235e-07 0.0 0.0 0.0
392 1 51.845993442622955 28.596588196721314 3.7269730774e-05 0.0 0.0 0.0
393 1 54.36553442622951 28.90908196721312 3.64896545079e-05 0.0 0.0 0.0
394 1 56.968386885245906 28.8134 1.74228972851e-05 0.0 0.0 0.0
395 1 59.557606557377056 28.49207016393443 1.2203331428e-05 0.0 0.0 0.0
396 1 62.10895737704919 28.49131278688525 3.77693005666e-05 0.0 0.0 0.0
397 1 64.18871475409837 27.78548786885246 1.37660232391e-05 0.0 0.0 0.0
398 1 67.96348196721313 28.76765442622951 3.064278376e-05 0.0 0.0 0.0
399 1 70.57592786885246 28.7603331147541 9.4581242321e-05 0.0 0.0 0.0
400 1 73.19796721311477 28.660561311475412 6.59596341705e-05 0.0 0.0 0.0
401 1 75.78617704918034 28.487879344262296 9.51247736851e-05 0.0 0.0 0.0
402 1 78.39155409836066 28.38936983606558 8.75906288439e-05 0.0 0.0 0.0
403 1 80.9388655737705 28.556093770491806 4.97964149805e-05 0.0 0.0 0.0
404 1 82.42736393442624 30.944659016393445 9.07574913019e-05 0.0 0.0 0.0
405 1 2.1700872131147544 30.600052459016396 7.93110443551e-05 0.0 0.0 0.0
406 1 4.809500786885246 30.239187540983608 5.61896888015e-06 0.0 0.0 0.0
407 1 7.521057049180329 30.68831213114754 4.67855268751e-05 0.0 0.0 0.0
408 1 10.59636131147541 30.810401311475413 8.72066296865e-05 0.0 0.0 0.0
409 1 13.400928524590165 30.63600262295082 9.9406355287e-05 0.0 0.0 0.0
410 1 16.059473442622952 30.736380327868858 6.7981831945e-05 0.0 0.0 0.0
411 1 18.578862950819673 31.017266229508202 6.02945875418e-05 0.0 0.0 0.0
412 1 21.12541704918033 30.878110819672134 3.09355432184e-06 0.0 0.0 0.0