# input file

2232 atoms
1 atom types

0.0 82.68810555352132 xlo xhi
0.0 83.16 ylo yhi
-10.0 10.0 zlo zhi
0.0 0.0 0.0 xy xz yz

Masses

1 12.0100 #C

Atoms

1 1 1.6824727213114756 0.5139863606557378 3.842340570027064e-05
2 1 4.317993377049181 0.6590291147540984 5.98777753456792e-05
3 1 6.907531147540984 0.2785370229508197 3.495780743189676e-05
4 1 9.180268196721313 1.4679885901639345 2.6371242338798275e-05
5 1 11.843458360655738 0.45015260327868856 5.923871144616604e-05
6 1 14.652973770491803 0.6636390163934427 9.121629644591987e-05
7 1 17.14454229508197 1.1177269508196723 8.239751735052786e-05
8 1 19.578701639344267 0.6755752786885246 9.261292605149884e-05
9 1 22.321921311475414 0.4216302885245902 4.1168557086056115e-05
10 1 25.061960000000003 0.415378393442623 1.4137625525632936e-05
11 1 27.758828196721314 0.5656748196721312 3.118367247768205e-05
12 1 30.428430819672133 0.7242342295081968 5.924920312459046e-05
13 1 33.0322931147541 0.6818817049180328 7.809831734604058e-05
14 1 35.58283606557377 0.5540970491803279 2.631424031078843e-05
15 1 38.10560852459017 0.558176786885246 7.382886024324534e-05
16 1 40.59540983606558 0.38842132459016393 3.336232479803826e-05
17 1 43.44370295081968 0.6200999344262296 4.421302945450856e-06
18 1 46.43695803278689 1.3100300327868852 2.789912520324872e-05
19 1 49.09413967213115 1.5710120655737705 7.08684089917043e-05
20 1 51.62332459016394 1.6971405901639345 7.707468410439018e-05
21 1 54.231731147540984 1.3017594754098363 9.379789955903792e-05
22 1 57.0572524590164 1.1587212459016394 6.199165372200967e-05
23 1 59.83531147540984 1.5516636065573772 2.2620291897070422e-05
24 1 63.004177049180335 1.0922336393442624 2.7738654356521687e-05
25 1 65.44394098360657 2.087043344262295 4.5903288491501586e-05
26 1 68.09829508196722 1.144416918032787 2.8020919626405074e-06
27 1 70.74507540983608 0.953800262295082 1.6819024077766242e-05
28 1 73.5044524590164 0.7281725901639345 5.011381102334534e-05
29 1 76.30876721311476 0.610264131147541 1.8971175117344743e-05
30 1 78.93939016393443 0.516480655737705 6.770328152701988e-06
31 1 81.61343606557378 0.35071101639344265 3.2295086734077184e-05
32 1 0.23995320655737706 2.6954645245901645 2.8811206163688486e-06
33 1 2.9865750163934432 2.899496852459017 4.410208535401949e-06
34 1 5.770758688524591 2.817210360655738 1.3831785332636782e-05
35 1 8.541950819672133 2.8828345573770493 7.724422562016977e-05
36 1 10.996508852459018 3.0458877377049185 8.704227675612814e-05
37 1 13.438948852459017 2.7219626229508203 3.908551971228469e-06
38 1 15.976262950819674 3.217277114754099 5.081888882285416e-05
39 1 18.538419016393444 3.2861933770491807 7.371199333720935e-06
40 1 21.106735081967216 2.7873343606557377 7.01534025066243e-05
41 1 23.771339016393444 2.6725816393442625 7.746488123045653e-05
42 1 26.474064262295084 2.771020459016394 3.163588633387933e-05
43 1 29.120087213114758 2.9462118688524592 6.54514681479346e-05
44 1 31.710114754098363 3.057516 2.0701690650498896e-05
45 1 34.2472268852459 2.998662754098361 2.1288260231348735e-05
46 1 36.779087868852464 2.937401049180328 2.9337872678448365e-05
47 1 39.332306885245906 2.8551044590163936 3.394846155440876e-05
48 1 41.763638688524594 2.549260459016394 8.680089056580443e-05
49 1 43.98275344262296 2.091516918032787 7.353955864556819e-05
50 1 47.58615147540984 3.7410235409836066 6.237087986111934e-06
51 1 50.44848131147541 4.037253901639345 8.930054190508317e-05
52 1 53.12293114754099 3.776529377049181 6.175123348840453e-05
53 1 55.62076065573771 3.3839960000000002 3.056771400931884e-05
54 1 58.277639344262305 3.5371073442622953 8.491396856403612e-05
55 1 60.78455737704919 2.8160742950819673 3.53060587899658e-05
56 1 64.71736393442625 3.4308170491803285 7.323408842287373e-05
57 1 67.16066229508198 3.7080069508196725 9.138015339816323e-05
58 1 69.67818360655738 3.363561967213115 9.985668498305957e-05
59 1 72.26336393442624 3.041388918032787 7.937861119376981e-05
60 1 74.93589508196722 2.8290860327868854 2.3958355193290782e-05
61 1 77.5735868852459 2.933346557377049 9.64700691966217e-05
62 1 80.22238688524591 2.778498295081967 2.6223844766713788e-05
63 1 1.6060079344262297 5.041147081967214 8.947073426057916e-05
64 1 4.334029573770492 5.070538360655738 6.554514489586397e-05
65 1 7.026994754098361 5.090381639344263 8.833095796657152e-05
66 1 9.682459672131149 5.421102950819672 2.919239868752941e-05
67 1 13.033297704918034 5.165614426229509 9.757639914247119e-05
68 1 14.561331147540985 5.296489180327869 8.116525950345315e-05
69 1 17.11475213114754 5.603782295081968 5.732384121589073e-05
70 1 19.808792786885245 5.346577049180328 6.575538449539793e-05
71 1 22.483495081967217 5.029730885245902 2.3435059382368697e-05
72 1 25.170365901639347 4.987130950819672 8.366811267921851e-05
73 1 27.88293704918033 5.174500983606558 5.541803206367937e-05
74 1 30.459634754098364 5.373792131147541 5.7765429829841946e-05
75 1 33.10818229508197 5.430999344262296 7.084162032814879e-05
76 1 35.679578360655746 5.34652655737705 8.649175397390671e-05
77 1 38.34569704918033 5.22065049180328 7.996941537304948e-05
78 1 40.97142229508197 5.083868196721312 2.2323372189610892e-06
79 1 43.30601180327869 6.095925901639345 3.181838873353572e-05
80 1 46.12931147540984 5.495073442622951 8.91705297076527e-05
81 1 48.2069986885246 5.156222950819672 1.0831805977172304e-05
82 1 51.85811147540984 6.1416209836065585 3.958158328283551e-05
83 1 54.45036065573771 5.956619016393443 4.351987607817558e-05
84 1 57.02140327868853 5.721882622950821 6.874303924625291e-07
85 1 59.171849180327875 4.784204393442623 9.28080376077534e-05
86 1 62.857750819672134 5.197070819672131 1.391234321629704e-05
87 1 65.47979016393442 5.954649836065575 4.316689896628157e-05
88 1 68.66178360655738 5.917437377049181 8.669313474887871e-05
89 1 71.37622295081968 5.515724590163935 4.22100068171936e-05
90 1 73.9205049180328 5.1752583606557385 8.093654070820942e-05
91 1 76.1416393442623 6.401199344262295 8.91908513932426e-05
92 1 78.88182950819673 5.225093770491804 4.058099060877788e-05
93 1 81.59626885245903 5.040354360655738 4.3352155790542794e-05
94 1 0.33560437377049185 7.332722622950821 5.372395964167143e-06
95 1 2.9672417049180333 7.321462950819672 5.098203214424799e-05
96 1 5.606205901639345 7.374630819672133 7.852188954789819e-06
97 1 8.14508524590164 7.551958032786886 6.421093343779507e-05
98 1 10.631503606557379 7.915549508196722 8.966658484787311e-05
99 1 13.194215081967213 7.877983606557377 4.738812968610157e-05
100 1 15.880328524590166 7.852737704918034 2.9746220717197394e-05
101 1 18.489795409836066 7.742110163934426 2.3758595620551495e-05
102 1 21.22321967213115 7.445975737704919 7.449514982367376e-05
103 1 23.877220327868855 7.278292459016394 4.088946777876219e-05
104 1 26.4858793442623 7.3198472131147545 4.5757187487143706e-05
105 1 29.123116721311476 7.662888524590165 7.06142119295982e-05
106 1 31.898398688524594 7.7272150819672145 2.0804079663686505e-05
107 1 34.739370491803285 7.7420091803278694 5.278578637581475e-05
108 1 37.422353442622956 7.509544918032788 4.1607342279490324e-05
109 1 40.019500327868855 8.450661639344263 8.483374222053187e-06
110 1 42.775393442622956 7.533377049180329 9.021411633353593e-05
111 1 45.197586229508204 7.765588852459016 6.143882558386932e-05
112 1 47.762367868852465 7.976745573770493 2.5334412703988576e-05
113 1 50.36466491803279 8.290754098360658 6.819007733977607e-05
114 1 53.12091147540984 8.380023606557378 1.8448444061789117e-05
115 1 55.92421639344263 8.173158688524591 6.339296645952368e-05
116 1 58.68864262295082 7.6939409836065575 7.383299083094464e-06
117 1 61.336937704918036 7.347516721311476 7.34783519991902e-05
118 1 63.90444590163935 7.765689836065575 9.138062257323806e-05
119 1 66.25938360655739 7.27036524590164 8.611475784843674e-05
120 1 70.04172459016394 7.915347540983608 3.837628248045263e-05
121 1 72.68749508196723 7.750643278688526 9.583285997808175e-05
122 1 75.34184918032788 7.735344262295083 7.876427218508951e-05
123 1 77.85028196721312 7.748472131147542 2.5781198171128117e-05
124 1 80.4460655737705 7.410580983606558 3.233879836761594e-05
125 1 1.6762773770491806 9.66231344262295 5.593470349324305e-05
126 1 4.3322219672131155 9.67165442622951 6.507974694069805e-05
127 1 6.892737049180329 9.85524262295082 9.252309802148623e-05
128 1 9.370672786885248 10.125424262295082 3.587333603284503e-05
129 1 11.900615081967215 10.244786885245903 9.259984470156102e-06
130 1 14.587586885245901 10.18520655737705 4.471093592468864e-05
131 1 17.570238688524594 10.146883278688525 4.379217358217642e-05
132 1 20.166426229508197 9.778545573770492 9.834305881716189e-06
133 1 22.768571803278693 9.632472786885247 3.416389200509689e-05
134 1 25.333454426229512 9.618335081967214 4.006723366552201e-06
135 1 27.68702885245902 10.874167213114756 3.260137762952708e-05
136 1 30.575765901639347 9.933555409836067 6.0457481843224216e-05
137 1 33.4774793442623 9.89220262295082 9.492703285839755e-06
138 1 36.35066491803279 9.960568524590165 8.386272729218155e-05
139 1 40.15138491803279 9.970262950819674 1.646869190779585e-05
140 1 41.677095737704924 9.949510819672133 6.465270637574945e-05
141 1 44.15518295081967 10.061400655737707 3.085893593432316e-05
142 1 46.4243855737705 11.40604786885246 1.9270639036631788e-05
143 1 49.134634098360664 10.559300327868854 6.102480455950721e-05
144 1 51.86820983606558 10.588585573770493 5.6560968802682355e-06
145 1 54.62758688524591 10.441553442622952 6.339983291520895e-05
146 1 57.473809836065584 10.108913442622953 2.7794891657896673e-05
147 1 60.165527868852465 9.862866885245902 7.762743766067996e-05
148 1 62.735055737704926 9.922295737704918 9.801434780740072e-05
149 1 65.44040655737706 9.985511475409837 8.294900452761371e-05
150 1 68.24219672131149 9.9754131147541 9.922982370646994e-05
151 1 71.0747868852459 10.12396 6.465572937788612e-05
152 1 73.75792131147541 10.084525901639346 2.4602200628137428e-05
153 1 76.42035409836066 10.139965901639345 7.654874662356606e-05
154 1 79.19992786885247 9.900281311475412 6.752029822120717e-05
155 1 81.84620327868853 9.751380983606557 1.2791666183774276e-05
156 1 0.5845587540983607 12.129797377049181 5.342613971657473e-07
157 1 3.079288065573771 11.95857967213115 3.045114953406869e-05
158 1 5.675127213114754 12.129999344262297 7.211826165883345e-05
159 1 8.181893770491804 12.409118032786886 5.018882152513178e-05
160 1 10.763236721311477 12.56756131147541 2.3474377521613667e-05
161 1 13.293835409836067 12.459205901639345 9.690812315447283e-05
162 1 15.444887213114756 11.468556721311476 9.264926561908531e-05
163 1 19.24394098360656 12.244262295081969 9.49881379633637e-05
164 1 21.762775081967213 12.004022295081969 9.633745282123019e-05
165 1 23.97830491803279 13.209564590163936 7.408190665613438e-05
166 1 26.84608786885246 12.182157377049181 3.960564129159777e-05
167 1 29.514781639344264 12.227801967213116 2.306321968888803e-05
168 1 32.2530531147541 11.99432786885246 7.015182850684721e-05
169 1 34.937348852459024 12.070620983606558 6.506506057675738e-05
170 1 37.506472786885254 12.422649836065576 9.106884923975515e-05
171 1 39.98895278688525 12.463245245901641 9.827948567707795e-05
172 1 42.69076918032787 12.446633442622952 8.667640156499333e-05
173 1 45.499375737704916 12.635422295081968 5.238034622445036e-05
174 1 48.01204983606558 13.130696393442625 9.419212707545031e-05
175 1 50.72961967213116 12.868441967213116 9.796751079794252e-05
176 1 53.5500918032787 12.7504931147541 7.75405796367572e-05
177 1 56.24938360655739 12.368876065573772 7.278937145730591e-05
178 1 58.96836721311476 12.271578360655738 2.0400187812240557e-05
179 1 61.50356065573771 12.30465049180328 4.4474021686763254e-05
180 1 64.08773114754099 12.273547540983607 5.503031225797906e-06
181 1 66.71027540983607 12.20604 5.2537102287122655e-05
182 1 69.35604590163935 12.19952655737705 7.217800183570167e-06
183 1 72.10380983606558 12.404927213114755 3.9614485400350885e-05
184 1 75.17371147540985 12.435626229508198 6.142570092777666e-05
185 1 77.90784262295082 12.187610491803278 9.893354206353956e-05
186 1 80.61369836065575 12.135099016393443 4.0804768516471846e-05
187 1 2.5609341639344265 14.331038032786886 5.5758051427183655e-05
188 1 4.104716 14.3528 3.7827118688428906e-05
189 1 6.777363278688526 14.673877377049182 8.520311460996443e-05
190 1 9.567035409836068 14.844388196721313 2.0242263117548942e-05
191 1 12.348426885245901 14.888114098360658 9.86139810532072e-05
192 1 15.041659672131148 14.358808524590165 7.133679503615159e-05
193 1 17.805429508196724 14.39864655737705 7.576114621803549e-05
194 1 20.393134426229512 14.548506229508199 5.9237854226237545e-05
195 1 23.09358754098361 14.500640000000002 5.32396111347564e-05
196 1 25.693360000000002 14.544365901639345 6.697898256257687e-05
197 1 28.27919672131148 14.465043278688526 4.8489586214612005e-05
198 1 31.026758688524595 14.29776393442623 2.560194190045304e-05
199 1 33.70580327868853 14.302510163934427 2.9700964422078937e-05
200 1 36.28689377049181 14.583194098360657 6.073003457749774e-05
201 1 38.911912131147545 14.862161311475411 2.0670900100627876e-05
202 1 41.49295213114755 14.789604590163936 5.995217879497398e-05
203 1 43.99270032786885 14.718512131147543 8.652450775346432e-06
204 1 45.86528983606558 16.355456393442623 3.528567150389784e-05
205 1 49.58592983606558 15.285232131147543 2.4902342354238518e-05
206 1 52.39736393442624 15.003336393442625 7.975462833878376e-05
207 1 55.93936393442623 14.538155409836067 3.749323426648054e-05
208 1 57.49097704918033 14.554716721311477 8.694975061571251e-05
209 1 60.1412918032787 14.71977442622951 2.0270651029359854e-05
210 1 62.79211147540985 14.697961967213116 1.217230206157216e-05
211 1 65.36466885245902 14.617831475409838 2.2454461339433407e-05
212 1 67.96903606557377 14.542396721311476 9.337152325128778e-05
213 1 70.61834098360656 14.501245901639345 7.014521764282892e-05
214 1 72.83442622950821 13.760480655737707 3.829863188891486e-05
215 1 76.53295081967214 14.506345573770494 4.0974244067448744e-05
216 1 79.11156721311475 14.400565245901642 4.362573737100977e-05
217 1 81.85933114754098 14.434445245901642 7.532012018917233e-05
218 1 82.55005901639345 18.082276065573772 9.051440211422117e-05
219 1 2.5048276721311478 16.997611147540983 1.2775383484832404e-05
220 1 5.318453114754099 16.818920655737706 6.332036810108702e-05
221 1 8.133320655737705 16.959136393442623 3.0525768581171454e-05
222 1 10.940664918032788 17.09793836065574 3.732182427870956e-05
223 1 14.656457704918035 16.64366360655738 2.4862977528050557e-05
224 1 16.207515409836066 16.583376393442624 5.27554390198381e-05
225 1 18.88772131147541 16.89536524590164 8.364875312181213e-05
226 1 21.431649836065574 16.840935081967213 7.934281323812232e-05
227 1 24.332050491803283 16.844772459016397 1.8762776626949695e-05
228 1 27.10026360655738 16.832452459016398 9.017818444516643e-05
229 1 29.69700655737705 16.551465573770496 2.1950796593594448e-06
230 1 32.36948721311476 16.554394098360657 3.938171228151783e-05
231 1 34.93578360655738 16.78297049180328 7.956672981042024e-05
232 1 37.57044590163935 17.038156065573773 6.641648372039075e-05
233 1 40.16153377049181 17.22179475409836 6.885244710878797e-05
234 1 42.62432196721312 17.26304655737705 6.376461835831782e-05
235 1 45.05984459016394 17.65597377049181 8.30011208337288e-05
236 1 47.25245114754099 16.98973442622951 5.303784301216042e-05
237 1 50.93411147540984 17.27420524590164 4.3293626923613616e-05
238 1 53.51979672131148 17.393315409836067 4.667906021996531e-05
239 1 56.0600393442623 17.19619540983607 2.708597978051628e-05
240 1 58.81840655737705 17.0087193442623 4.207013000887728e-05
241 1 61.532845901639355 17.07360131147541 9.013118933697674e-05
242 1 64.17053770491803 17.081326557377054 3.815037302415162e-05
243 1 66.7087606557377 16.958681967213117 6.53175251944606e-05
244 1 69.4620786885246 16.828211147540987 3.631567882655594e-05
245 1 72.21539672131148 16.617256393442627 2.6701922155883552e-05
246 1 74.92781639344263 16.62058885245902 5.77608260038674e-05
247 1 77.69274754098362 16.79877442622951 4.6838443218470884e-05
248 1 80.3693180327869 16.608369836065574 2.643513838562225e-05
249 1 1.568144131147541 19.560726557377052 8.02196270611429e-05
250 1 4.082868196721312 19.097413770491805 3.033848093711873e-05
251 1 6.7466642622950825 19.06954229508197 1.4888391068961804e-05
252 1 9.45055081967213 19.219856393442626 4.5658797306100235e-06
253 1 12.025683278688525 19.46226754098361 4.538515477873539e-06
254 1 14.480544262295084 19.289737049180328 7.74820322866906e-06
255 1 17.239113442622955 19.068986885245902 1.9950364799259746e-05
256 1 20.006771147540988 19.385570491803282 1.2531576728445194e-05
257 1 23.27601442622951 18.824101639344264 2.9466301342884974e-05
258 1 25.978941639344264 18.998853770491806 7.733145428387511e-06
259 1 29.211123934426233 18.820264262295083 2.661069061839756e-05
260 1 30.7339062295082 18.765531147540987 6.774802907657612e-05
261 1 33.27823868852459 18.98204 9.329910687513655e-05
262 1 36.06185180327869 19.204658360655742 6.322597315418772e-05
263 1 38.66813770491804 19.492512131147542 8.62628892570827e-06
264 1 41.24296721311476 19.743910819672134 2.7186833246611764e-05
265 1 43.606841967213114 19.941788196721316 9.659712265742629e-05
266 1 46.50946426229508 19.8067731147541 8.006869048321846e-05
267 1 49.34205442622951 19.427478688524594 9.842909428948142e-05
268 1 52.08633442622951 19.6650931147541 5.434882613595642e-05
269 1 54.85227540983607 19.663477377049183 9.867809166038713e-05
270 1 57.54853770491804 19.361990819672133 6.301285552136053e-05
271 1 60.23621639344263 19.354467540983606 5.0432000327295056e-05
272 1 62.9824655737705 19.460146885245905 1.850638148824474e-05
273 1 65.62419672131148 19.47494098360656 5.6958416643491564e-05
274 1 68.1800918032787 19.11917573770492 7.746973817469394e-05
275 1 70.91977704918034 18.962651147540985 7.253148671454428e-05
276 1 73.58069508196722 18.924832786885247 6.528347877400539e-05
277 1 76.23 18.936395409836067 5.5833936652321593e-05
278 1 79.05198688524591 18.99622819672131 1.282846869462051e-06
279 1 81.7780393442623 19.400162622950823 2.935233150796788e-05
280 1 0.2184886360655738 21.887944262295083 1.9733515340546738e-05
281 1 2.7907779016393444 21.680019016393445 7.519969397682292e-07
282 1 5.421809836065574 21.38095606557377 7.720316565379071e-06
283 1 8.075709508196722 21.403525901639345 9.979214866656662e-05
284 1 10.773284590163936 21.69940786885246 5.83477691450073e-05
285 1 13.23758754098361 21.815589508196723 3.967379540935449e-05
286 1 15.66846491803279 21.423571147540986 2.857644574977434e-05
287 1 18.8543462295082 22.608916721311477 9.483501804305653e-05
288 1 21.189137704918036 20.454633442622953 6.181442551326324e-05
289 1 24.017284590163936 20.993835409836066 6.445658429105736e-05
290 1 26.536017704918038 21.5832262295082 3.103384626504804e-05
291 1 29.09958754098361 21.582165901639346 3.166882029929197e-05
292 1 31.668913442622955 21.22332065573771 7.441953935787357e-05
293 1 34.34856393442624 21.211909508196722 7.267462225587407e-05
294 1 37.01034032786886 21.66416459016394 9.361465039465255e-05
295 1 39.60435672131148 21.9843331147541 2.361897739465302e-05
296 1 42.91904262295082 23.581439344262296 1.8558227975792508e-05
297 1 45.348910163934434 21.929700983606562 4.869238770680297e-05
298 1 48.100713442622954 21.730864262295086 4.231740549140463e-05
299 1 50.69074098360657 21.776660327868854 5.9365881391970224e-05
300 1 53.44153442622951 21.868403934426233 9.207559657500942e-05
301 1 56.18071475409836 21.779285901639348 2.549391916535362e-05
302 1 58.82749508196722 21.680422950819672 5.986755514338788e-05
303 1 61.53940983606558 21.686885901639346 6.0990904371065304e-05
304 1 64.36947540983607 21.88425836065574 4.4069911980569467e-05
305 1 67.79534426229509 21.51965704918033 8.230170330319237e-05
306 1 69.32979016393443 21.24523409836066 4.329752697901048e-05
307 1 72.14117377049182 21.271489836065577 1.9729605630720904e-05
308 1 74.93488524590164 21.282648524590165 2.1607399987674416e-05
309 1 77.62609836065575 21.114106885245903 7.27662053035863e-05
310 1 80.33245901639344 21.408878032786888 9.180999746767163e-05
311 1 1.5094827540983609 24.15472327868853 7.164223881939176e-05
312 1 4.143524 23.816579672131148 2.2044362775799243e-06
313 1 6.694152786885247 23.685452459016396 8.731705596340995e-05
314 1 9.328714098360656 23.785173770491806 7.652532568563195e-05
315 1 12.03941704918033 24.22425049180328 3.7753778717620647e-06
316 1 14.877106885245905 24.040308852459017 7.099619561066019e-05
317 1 16.81064 22.436891147540987 8.98726802644803e-05
318 1 20.364404590163936 24.03768327868853 4.4220688895126315e-05
319 1 22.611037377049183 23.23552 9.751299443303423e-05
320 1 25.2076793442623 23.62284262295082 6.563998260305624e-05
321 1 27.900861639344267 23.929580327868855 5.988601902622773e-05
322 1 30.606464918032792 23.74579016393443 2.96808496132994e-05
323 1 33.11676590163935 23.46419737704918 1.6170044050678103e-05
324 1 35.40646819672131 24.678323278688527 8.398152856490912e-05
325 1 38.288641311475416 24.157500327868856 1.1658058660356286e-05
326 1 40.53002295081968 23.2177468852459 4.772197996629391e-06
327 1 45.34724393442623 24.275247213114756 3.537086197165349e-05
328 1 46.84387147540984 24.015466885245903 4.3929599840002687e-05
329 1 49.26656918032788 24.111805245901643 7.234745587924062e-05
330 1 51.944957377049185 24.039601967213116 5.760342981435234e-05
331 1 54.73967868852459 24.062979672131153 3.676149253406724e-06
332 1 57.333947540983615 24.061313442622954 9.977548031735936e-05
333 1 59.95144262295083 23.969266885245904 5.3776503206302976e-05
334 1 62.569442622950824 23.94094098360656 4.579554383400437e-05
335 1 65.26015081967213 24.40597049180328 9.977404928190046e-05
336 1 68.00387540983607 24.30629967213115 8.33662851670354e-05
337 1 70.67943606557378 23.467832786885246 9.685476571885129e-05
338 1 73.47466229508197 23.502975081967215 8.399218611395066e-05
339 1 77.12269508196722 23.287122622950825 6.240910634159462e-05
340 1 78.66420983606558 23.466520000000003 7.043463835552e-05
341 1 81.40238032786885 23.97456852459017 2.402394797251949e-05
342 1 0.02039232655737705 26.284164590163936 2.9889198830063126e-05
343 1 3.764815278688525 26.061748196721314 6.729691123442597e-05
344 1 5.314615737704919 26.110472786885246 6.003063489914851e-06
345 1 7.89868524590164 26.02342491803279 9.147022419450515e-05
346 1 10.593786229508199 26.183837377049183 2.6179079109864812e-05
347 1 12.820979672131148 25.56758491803279 8.554070069808075e-05
348 1 16.539448524590167 25.510428196721314 4.8273288272938943e-05
349 1 18.936496393442624 25.6388793442623 5.690840724412648e-05
350 1 21.56550360655738 26.014740327868854 5.057749968083989e-05
351 1 23.92528852459017 25.78384131147541 9.409450623456768e-05
352 1 26.548842622950822 26.0269593442623 2.454877318845129e-05
353 1 29.309885901639348 26.09340655737705 3.167896089581069e-05
354 1 32.057952786885245 26.02302098360656 7.07006329128476e-05
355 1 34.77754229508197 26.069321967213117 4.974807508045168e-05
356 1 37.14878885245902 27.515306229508198 7.965919624079096e-05
357 1 39.83646754098361 26.24215540983607 3.744103050837124e-05
358 1 42.47956196721312 26.583126557377053 9.416575226328949e-05
359 1 45.06034950819673 26.9393462295082 7.44719579473372e-05
360 1 47.818110819672135 26.537481967213118 6.30592400975631e-05
361 1 50.45433836065574 26.35197508196722 2.353423154334583e-05
362 1 53.18301639344263 26.209184262295086 5.56007799057261e-05
363 1 55.827272131147545 26.438518032786888 8.287336688996209e-05
364 1 58.49071475409836 26.37000065573771 5.459021971740973e-05
365 1 61.11931803278689 26.303553442622956 2.368134855554941e-05
366 1 63.70348852459017 26.378180327868854 6.549084680935746e-05
367 1 65.99834098360657 25.761120000000005 6.889786076909744e-05
368 1 70.24874098360657 25.894973770491806 3.558570015361028e-05
369 1 71.75996065573771 25.631255081967215 4.892835178796532e-05
370 1 74.3052524590164 25.954958032786887 7.949179347254359e-05
371 1 76.98182295081968 25.859225573770495 2.3845375897250477e-05
372 1 79.86238032786886 25.947384262295085 2.178060756907496e-06
373 1 1.0079476721311476 28.66061180327869 8.622457344986358e-05
374 1 3.7061286557377056 28.613452459016397 2.0683838465627303e-05
375 1 7.475260983606558 28.223403278688526 1.0691093430211208e-05
376 1 9.027076065573771 28.322114754098365 2.050748539320103e-05
377 1 11.814274098360656 28.4146662295082 3.964469473976977e-05
378 1 15.836855081967215 28.163065573770496 5.775810904847598e-05
379 1 18.272024262295083 27.927521311475413 7.857903301293832e-05
380 1 19.803137704918036 28.046126557377054 8.547734872656388e-05
381 1 22.413311475409838 28.334434754098364 9.845332233787807e-06
382 1 25.074936393442627 28.22951278688525 8.001290009840912e-05
383 1 27.831485901639347 28.277379016393446 2.3935735136605076e-06
384 1 30.61257442622951 28.300504262295085 1.2662584165717894e-05
385 1 33.33433508196722 28.338171147540987 6.075238328501388e-05
386 1 36.12971278688525 28.67379016393443 4.034576742602555e-05
387 1 38.69696852459017 28.845209836065578 4.568129170270771e-05
388 1 41.19474754098361 28.782347540983608 7.278689083215792e-05
389 1 43.726810491803285 29.106706885245906 3.820708865264423e-05
390 1 46.50537442622951 28.939932459016397 1.7685874096570377e-05
391 1 49.30645770491804 28.773208524590167 4.5163509924901045e-05
392 1 52.04089180327869 28.485304262295084 2.7879992664195097e-05
393 1 54.397344262295086 29.709427540983608 2.088361251114035e-05
394 1 57.187521311475415 28.74109573770492 4.5411755445097756e-05
395 1 59.88327868852459 28.680505573770496 5.42791161649318e-05
396 1 62.480072131147544 28.695804590163938 5.460859035000698e-05
397 1 65.14149508196722 28.55139803278689 7.373707917692705e-05
398 1 67.92308852459017 28.750133770491804 2.0761975680596334e-05
399 1 70.24217704918034 28.821125245901644 6.093733893974474e-06
400 1 72.84502950819672 28.161803278688527 3.862341608003072e-05
401 1 75.62258360655738 28.166852459016393 4.133046234314443e-05
402 1 78.3208655737705 28.02002229508197 1.5778768671924516e-05
403 1 81.09539016393443 28.262685901639347 6.248716519905128e-05
404 1 82.35314098360656 30.79045704918033 9.725148680946198e-05
405 1 2.397618426229508 30.88260459016394 1.2996977112498898e-05
406 1 5.007827540983607 30.935721967213116 3.389253852773516e-05
407 1 7.459255081967213 30.795708196721314 4.3537306257708135e-06
408 1 10.190508196721312 30.62656065573771 1.903739561444382e-05
409 1 12.836884590163935 30.745670819672135 4.313697484037811e-05
410 1 15.34233836065574 30.6168662295082 4.989022058843149e-05
411 1 17.93797049180328 30.38197836065574 9.114761668360934e-05
412 1 20.79005049180328 30.525072131147546 3.350361120156587e-05
413 1 23.550790819672134 30.56945442622951 5.3901638632233675e-05
414 1 26.288658360655738 30.470692459016398 3.335278196135746e-05
415 1 29.067929180327873 30.48871803278689 8.489114580959221e-05
416 1 31.744701639344267 30.591014426229513 7.692552624389172e-05
417 1 34.38708918032787 30.682859016393447 4.00357175376097e-05
418 1 37.01321836065574 31.075533770491806 8.986345699347422e-05
419 1 39.76845508196722 31.235340327868855 3.9382574020148813e-05
420 1 42.27936196721312 31.3745462295082 8.844620036656485e-05
421 1 45.0750931147541 31.245287213114757 8.471810426115204e-05
422 1 47.93227278688525 31.05149967213115 9.733617793770148e-05
423 1 50.78718032786885 30.896792786885246 1.557296723304631e-05
424 1 53.64148196721312 31.05271147540984 3.452995105817188e-05
425 1 56.14739016393443 31.165409180327874 2.3577296968284556e-05
426 1 58.80729836065574 30.981518032786887 7.57409953903022e-05
427 1 61.313711475409846 31.053367868852465 4.893938136915428e-05
428 1 63.71358688524591 30.93491409836066 3.633207075963255e-05
429 1 66.2896786885246 30.82716459016394 2.3871624900375778e-05
430 1 68.90616393442623 31.40039803278689 6.945933711047693e-05
431 1 72.61175737704919 30.523809836065578 1.7745365037080685e-05
432 1 74.13560000000001 30.32956786885246 6.072366199680879e-07
433 1 76.74653114754099 30.33072918032787 7.717321974313904e-05
434 1 79.42259672131148 30.297556065573772 1.5645377098775295e-05
435 1 0.8943360655737705 33.020730491803285 6.774876573206851e-05
436 1 3.6524508196721315 33.22077901639344 1.3815967056435842e-06
437 1 6.3882734426229515 33.305605245901646 3.304093795541869e-05
438 1 8.978200000000001 33.00199803278689 5.6693505347398524e-05
439 1 11.617860983606558 33.00841049180328 4.217681859539472e-05
440 1 14.289836721311477 33.08000786885246 3.0649733278347884e-05
441 1 16.95969180327869 32.84946229508197 5.6238364288860564e-05
442 1 19.604957377049185 32.66829770491803 6.246665009640399e-05
443 1 22.272540327868853 32.80245442622952 8.367340455200933e-06
444 1 24.871504918032787 32.7610006557377 9.073089807334303e-05
445 1 27.543228196721316 32.664813770491804 7.329029032755255e-05
446 1 30.09372065573771 32.82487278688525 9.725754507941674e-05
447 1 32.912072131147546 32.9699862295082 8.485439149270442e-05
448 1 35.32441901639345 33.162158032786884 9.777340517645389e-05
449 1 37.87925377049181 33.28374229508197 2.8820589155310362e-05
450 1 40.44191475409836 33.70585377049181 6.473541831286259e-05
451 1 43.71529836065574 33.54518885245902 9.969783595879466e-05
452 1 46.55212983606558 33.28768065573771 3.2518875872937515e-05
453 1 49.36119081967214 33.11908852459017 7.911626672603845e-05
454 1 52.21710819672132 33.12141114754099 7.791766470507056e-05
455 1 54.963862295081974 33.51580262295082 5.5987808150035435e-05
456 1 57.62175081967214 33.33569836065574 2.989188833242147e-05
457 1 60.225613114754104 33.43658098360656 1.7330082900617552e-05
458 1 62.627508196721315 33.50928918032787 6.290022492131075e-05
459 1 65.07737049180328 33.23814819672131 5.430524714698656e-05
460 1 67.40251803278689 34.45156721311476 3.947907379187482e-05
461 1 69.66657049180328 32.77675409836066 6.274614731402011e-05
462 1 73.93312786885247 32.7096 6.952250944161906e-05