# input file

2232 atoms
1 atom types

0.0 82.68810555352132 xlo xhi
0.0 83.16 ylo yhi
-10.0 10.0 zlo zhi
0.0 0.0 0.0 xy xz yz

Masses

1 12.0100 #C

Atoms

1 1 1.8102674754098362 0.02234893442622951 6.457968608597135e-05
2 1 4.529205639344262 0.08205069508196723 9.072441714889742e-05
3 1 7.1884170491803285 82.68638688524591 3.506129625108615e-05
4 1 9.864230163934428 83.0872918032787 6.813864785160811e-05
5 1 12.24305049180328 0.6267345573770493 6.253884864749614e-05
6 1 14.37360262295082 1.437133049180328 5.553987625387194e-05
7 1 17.20265836065574 0.8748108852459018 5.878237312314262e-05
8 1 19.505185573770493 1.0483259672131147 9.492172830772217e-06
9 1 22.32767737704918 1.4939716721311476 6.68416052129996e-05
10 1 26.57055409836066 1.0011110819672133 7.581040862318544e-05
11 1 28.122924590163937 0.8628190819672132 8.292286965195145e-05
12 1 30.901286557377052 1.6279567213114756 3.609136159643672e-05
13 1 33.39507672131148 2.42388931147541 2.453167102462154e-05
14 1 36.66411803278689 1.535304262295082 7.362934762532251e-05
15 1 38.23148459016394 1.7068905573770492 2.365349165104188e-05
16 1 41.95116524590164 1.1835632131147542 5.055772867905181e-05
17 1 45.35052590163935 0.8212592786885247 1.2756838679562355e-05
18 1 46.87845836065574 0.4911681049180328 7.949905069904623e-05
19 1 49.64323803278689 0.09715885245901641 7.320619263874228e-05
20 1 52.183278688524595 0.07390384262295083 3.893068592844309e-05
21 1 54.65182295081968 82.81413114754099 6.296533931243769e-05
22 1 57.136019672131155 0.4056531672131148 2.4427349937364284e-06
23 1 60.77546885245903 2.159024459016394 5.690837837485755e-05
24 1 62.73909508196722 0.6909601311475411 7.024179473867198e-06
25 1 65.73729836065574 1.2753775081967216 6.67753003170688e-05
26 1 68.77640000000001 0.9427980983606558 8.161737995566227e-05
27 1 71.37066885245902 1.0462810491803278 5.9656977281950257e-05
28 1 73.96544262295083 0.3925980065573771 6.523577119833792e-05
29 1 76.49104262295083 1.357088393442623 9.07482618008556e-05
30 1 79.51398688524591 0.8237687213114755 4.352606630733841e-05
31 1 0.24952140327868855 0.1300805180327869 7.20778184984895e-05
32 1 1.0911076721311477 2.2471982950819673 5.5276312186344745e-05
33 1 2.6439628852459016 2.2353781639344263 5.055156499368746e-05
34 1 6.225689836065574 2.1245385573770497 4.838107408722375e-05
35 1 8.646216393442623 1.9131950163934428 9.540323040280767e-05
36 1 12.26223737704918 3.314085049180328 2.269766259249706e-06
37 1 13.695851147540985 2.789975081967213 9.001076888505148e-05
38 1 15.935718032786887 4.254575672131148 7.521897879730006e-05
39 1 18.519939016393444 3.5002331803278692 5.4335160103691454e-05
40 1 20.88709573770492 4.651219081967214 1.979877246741454e-05
41 1 23.769521311475412 3.639378491803279 6.821812994725326e-05
42 1 26.477093770491805 2.959491213114754 9.062812407782684e-05
43 1 28.879241311475415 4.02880662295082 6.653807268446466e-06
44 1 31.846089180327873 4.325329836065574 7.530658419652877e-05
45 1 35.22732327868853 4.565822295081968 5.4797709433665714e-05
46 1 36.734402622950824 4.424763344262296 1.0580022352792552e-05
47 1 39.34710098360656 2.8029312786885248 3.0131710104304044e-06
48 1 41.11567737704919 4.348086491803279 4.4376792106647794e-05
49 1 45.040001311475415 3.774125967213115 7.182677562873485e-05
50 1 49.02708655737706 2.343294295081967 7.75340521657482e-05
51 1 50.55996721311476 2.3776741639344268 6.54673506560595e-05
52 1 53.422347540983615 2.194242491803279 3.9860242446385425e-06
53 1 55.76971147540984 2.268667409836066 1.2160420565223052e-05
54 1 58.418511475409844 2.8536351475409836 8.49233340314585e-05
55 1 63.392459016393445 3.1813572459016397 7.737211314626634e-05
56 1 65.94986885245903 2.7846986885245903 2.2487375363329788e-06
57 1 67.46563278688525 2.9076664262295084 7.061508481940287e-05
58 1 70.01849836065574 3.366081508196722 8.449137498366837e-05
59 1 72.79504262295083 3.0733552786885245 9.378035497352646e-05
60 1 75.62106885245903 2.6432509508196724 1.3151668563006826e-05
61 1 78.09971147540985 2.9569009836065576 7.183520180327184e-05
62 1 80.51776393442624 3.1344554098360655 1.853141436976208e-05
63 1 1.5018029508196722 4.823274950819672 7.922123651029016e-05
64 1 3.7234019016393445 3.3461220983606563 2.2583913254299892e-05
65 1 7.647942950819673 4.517228983606558 3.31289236788352e-05
66 1 10.542991475409838 5.455942295081968 5.528610547146739e-05
67 1 13.410976393442624 5.4827029508196725 4.3890996431197354e-05
68 1 14.982382295081967 5.433321967213115 5.512953930925504e-05
69 1 16.66971737704918 7.40472393442623 2.7580522494858574e-05
70 1 20.27261049180328 6.0950675409836075 8.257609119707207e-05
71 1 23.09545573770492 5.796862950819673 8.279254369657756e-05
72 1 25.818529180327868 5.371267540983607 7.921794006924044e-05
73 1 28.238449836065577 5.397624262295082 9.644909512581635e-06
74 1 30.04974229508197 7.30616393442623 3.2780369925187346e-05
75 1 32.88879540983607 7.026388852459017 5.468766697264198e-05
76 1 35.30457573770492 6.975038688524591 2.4748949291898938e-05
77 1 37.641033442622955 5.651547540983607 9.540216338322685e-05
78 1 42.36666229508197 5.190910819672132 1.6861714868573374e-05
79 1 44.0613186885246 6.1416714754098365 1.0494855335374043e-05
80 1 45.998386229508206 5.017562360655738 7.856406379866018e-05
81 1 49.72488327868853 4.785365704918034 7.335872770746626e-05
82 1 52.66900983606558 4.155985377049181 2.6155255043492276e-05
83 1 54.12620327868853 4.641544852459017 7.55117411800079e-05
84 1 57.69142950819673 4.288496065573771 7.423096577782215e-05
85 1 59.96709508196722 4.861012524590165 3.826868002873719e-05
86 1 62.20590163934427 5.696131803278689 3.552743443785382e-05
87 1 65.12988196721312 5.252510819672131 1.2096319564139347e-05
88 1 67.98620327868854 5.412317377049181 1.2825598120999094e-05
89 1 71.15809836065574 5.4881055737704925 2.0498458159109e-06
90 1 74.9020655737705 4.907374098360656 6.0341343097314215e-05
91 1 76.42641311475411 5.153849836065574 1.2382242393579136e-05
92 1 79.03986885245902 5.49512393442623 4.1685012297462377e-05
93 1 81.5892 5.528448524590164 7.577725023754511e-05
94 1 0.8797742295081968 7.2840485245901645 6.34793884855329e-05
95 1 3.5422221639344267 6.152173770491804 2.4989884163712985e-05
96 1 5.679974426229509 7.259862950819673 5.110424565244909e-05
97 1 8.592341639344262 6.9746347540983615 4.3064256048762494e-05
98 1 10.792118032786886 8.23869704918033 1.7798145835685963e-05
99 1 13.374773770491805 8.300600000000001 7.320764921830831e-05
100 1 16.05447475409836 8.799105573770493 8.798765872947958e-05
101 1 18.02501836065574 8.085201967213115 3.602050279685081e-05
102 1 21.157984262295084 7.328430819672131 4.856245675794215e-05
103 1 24.71023409836066 7.694849836065575 3.7572094899795696e-05
104 1 27.221342950819675 7.817140983606558 5.946229996397562e-05
105 1 29.446567213114754 8.690901639344263 6.098605351735555e-05
106 1 31.630135737704922 10.34804262295082 8.743097934353038e-05
107 1 34.30615081967213 9.446662950819672 3.804008163002882e-05
108 1 37.99594032786886 7.9576596721311486 3.493460049508324e-05
109 1 39.45666819672132 7.410782950819672 5.937238491002158e-05
110 1 42.25780196721312 8.146398032786886 7.214070865066741e-05
111 1 45.31765573770492 8.041324590163935 2.0589457974315384e-05
112 1 49.39532327868853 7.294702295081968 5.6593885534745506e-05
113 1 50.85685901639345 6.896422950819673 3.670826338783773e-06
114 1 53.28147540983608 6.871934426229509 3.585610005391905e-05
115 1 55.18956065573771 5.753894426229508 8.8685021792317e-05
116 1 58.51192131147542 7.00932262295082 5.385252878195888e-05
117 1 60.749213114754106 7.636733770491804 9.389369003545208e-05
118 1 62.945101639344266 7.00275868852459 5.001525772296112e-05
119 1 66.09780983606558 7.320352131147542 4.954288119227738e-05
120 1 68.47092459016395 6.877993442622952 1.2625576745952495e-05
121 1 71.98060983606558 7.6742996721311485 5.139227746637265e-06
122 1 74.78896393442623 7.518885901639345 9.023059819857329e-05
123 1 77.69779672131149 7.665362622950821 7.446041442820789e-05
124 1 80.75103606557379 7.8272393442622965 2.0902773230133765e-05
125 1 2.2584579672131153 8.777949508196722 1.3735437356847124e-06
126 1 4.9357454426229515 8.597340327868853 8.032246802867301e-05
127 1 7.171098360655739 9.074992786885247 4.404056646271789e-05
128 1 8.40148262295082 11.27017442622951 2.5634771516176424e-05
129 1 12.609419016393444 10.506536393442623 5.121970069797213e-05
130 1 15.079124590163936 11.922074098360657 7.768439262861634e-05
131 1 17.9118662295082 10.946219016393444 8.387902220208013e-05
132 1 20.608835409836068 10.082102295081969 7.776961714150528e-05
133 1 23.40810098360656 10.041052459016395 5.2897944659999854e-05
134 1 25.804088524590167 10.096441967213117 5.1987807049335505e-05
135 1 27.49985573770492 11.972515409836067 7.695213590408665e-05
136 1 30.43787278688525 11.289714754098362 3.610898361001991e-06
137 1 33.042845901639346 11.957670819672133 3.3127242365755596e-06
138 1 36.17399409836066 11.383175081967213 1.062454159472106e-05
139 1 39.07469770491804 10.871390163934427 5.4434436843843076e-05
140 1 41.428726557377054 10.995095081967214 4.300832222577646e-05
141 1 44.043495081967215 10.008333770491804 8.047626888022408e-06
142 1 45.54810032786886 10.283968524590165 9.791679456076256e-05
143 1 47.79422819672131 9.964759344262296 5.553865586068883e-05
144 1 51.330472131147545 9.07221573770492 2.844092111101638e-05
145 1 55.32992786885246 8.667321967213116 1.5119557362367943e-05
146 1 56.878511475409844 8.649094426229508 1.0932645947260478e-05
147 1 59.5252918032787 9.76829573770492 1.7137747004003978e-05
148 1 62.389691803278694 9.751280000000001 3.05474386634227e-05
149 1 65.14906885245902 10.220146885245903 2.3000814245637115e-05
150 1 67.42523934426231 10.478513442622951 7.184442508734057e-05
151 1 70.17098360655739 9.503365245901641 9.051738739570505e-05
152 1 72.63750819672133 9.037780327868854 7.370698953921394e-05
153 1 76.40217704918034 9.563046557377051 8.709785441688383e-05
154 1 78.51980327868853 8.983804590163935 2.5845883053769915e-05
155 1 82.23953442622953 9.61151868852459 2.0042853643540114e-05
156 1 1.196125573770492 11.280626229508197 9.90491395104114e-05
157 1 3.796105049180328 10.919508852459018 7.764894535570761e-05
158 1 5.946066229508197 12.598361311475411 5.846986159166457e-07
159 1 9.868067540983608 11.677946229508198 2.7457977490551922e-05
160 1 11.51930098360656 12.894647213114755 8.825799144982008e-05
161 1 14.483876721311477 13.35381967213115 4.717176343485763e-06
162 1 16.824020327868855 13.360939016393445 6.888497948729363e-05
163 1 20.444131147540986 12.317525901639344 7.099735593333711e-05
164 1 22.945091147540985 11.926769836065576 7.649082976681607e-05
165 1 24.37047475409836 12.518230819672132 9.305842272055733e-05
166 1 26.743286557377054 13.318222950819672 7.732772582463996e-05
167 1 29.078078032786888 13.37452131147541 7.509328497367292e-05
168 1 31.268311475409842 14.781828852459018 6.8869910200178744e-06
169 1 33.92811868852459 13.188257049180327 9.517957234846908e-06
170 1 39.047028196721314 12.41007737704918 4.449901052492309e-05
171 1 40.560015081967215 12.257087213114756 3.303891704498189e-05
172 1 42.73212196721312 13.425518032786886 8.553223083058232e-05
173 1 45.26943606557377 12.93559606557377 5.637774684249993e-05
174 1 46.777020327868854 12.656982295081969 5.599217569390055e-05
175 1 50.715481967213115 11.052554754098363 7.07153189623535e-05
176 1 52.289816393442635 11.123697704918033 6.435887504857267e-05
177 1 55.110793442622956 12.168272131147543 3.139822213072143e-05
178 1 58.009527868852466 11.36212 8.262216762241105e-05
179 1 60.87039344262296 11.93888786885246 6.0532556779580715e-05
180 1 64.55932459016394 11.67936 2.9001053035544102e-05
181 1 67.03998688524591 11.950955409836068 2.6696799968062902e-05
182 1 69.5352918032787 13.048647213114755 6.350313329421229e-05
183 1 72.08815737704919 11.550353442622951 1.5954303750601118e-05
184 1 74.92074754098361 11.672644590163936 9.878439933938262e-05
185 1 77.58065573770493 11.844619672131149 8.550717931298401e-06
186 1 80.83384262295083 12.003163934426231 7.44184029956574e-05
187 1 2.4618339016393445 14.612226885245905 3.6451625302358836e-05
188 1 5.193233442622951 13.935384262295083 8.312480174610122e-05
189 1 7.515300983606558 14.069742950819673 9.77293781267974e-05
190 1 9.793945573770491 14.67736131147541 8.252617637402109e-05
191 1 12.117073442622953 14.275951475409839 6.719360523184604e-06
192 1 15.20252655737705 15.798481311475411 2.572587625412828e-05
193 1 17.97296131147541 15.532440000000001 9.716858163268497e-05
194 1 20.941222950819675 14.395718032786887 1.9843645882077876e-06
195 1 22.46249049180328 14.388093770491803 3.146842487957994e-05
196 1 25.076148196721316 15.35157836065574 4.12221254700613e-05
197 1 28.475963278688525 15.738143606557378 7.141000904126624e-05
198 1 30.705630819672134 17.09132393442623 6.822544658512991e-05
199 1 34.384817049180334 16.079114754098363 7.042169419000322e-06
200 1 36.6913331147541 15.226510163934428 8.145004093568938e-05
201 1 38.718276065573775 16.702587540983608 2.9585513838270028e-05
202 1 41.12966360655738 15.125880000000002 1.241932696295972e-05
203 1 44.432130491803285 16.702587540983608 6.969063118604686e-05
204 1 46.54410163934427 15.463569180327871 5.302689822767364e-05
205 1 47.9442393442623 13.664445245901641 5.4729464620316095e-05
206 1 51.736931147540986 13.736699016393445 4.400934215552477e-06
207 1 55.27893114754099 13.69100393442623 4.444118561046068e-05
208 1 56.802773770491804 13.61329704918033 4.549118251838247e-06
209 1 59.45662295081968 13.710190819672134 4.255661230541217e-05
210 1 61.932740983606564 13.084597377049182 3.730227318026478e-05
211 1 65.14805901639345 15.38651868852459 5.3041568107335896e-05
212 1 68.86829508196722 14.413592131147542 8.489179769314764e-05
213 1 71.98717377049181 13.744575737704919 9.851528984488393e-05
214 1 73.49839344262296 13.69837573770492 1.1464949616392372e-05
215 1 76.27645245901641 14.038740983606559 5.1554497633856555e-05
216 1 78.3865049180328 13.153266229508198 1.7713299200790355e-05
217 1 81.76491147540985 13.222440000000002 6.321157868109187e-05
218 1 2.114147344262295 16.08961704918033 1.0243615047008415e-05
219 1 3.623291803278689 16.32475737704918 8.83529280783609e-05
220 1 6.02947868852459 16.493702950819674 1.3476616746690996e-05
221 1 8.292268852459017 16.82179868852459 6.673111137445757e-05
222 1 11.802660983606557 16.76348065573771 3.122702293465404e-05
223 1 13.197547540983608 16.11652918032787 4.940761042210249e-05
224 1 16.084163934426233 17.656276721311478 6.11455698023772e-05
225 1 20.172636721311477 17.505912131147543 4.905983206173408e-05
226 1 21.605341639344264 17.07900393442623 4.750858920041015e-05
227 1 23.70721442622951 17.085971803278692 2.6618803094421774e-06
228 1 25.801109508196724 16.760703606557378 5.363541144463247e-07
229 1 32.22104131147541 16.93505180327869 3.0626251529982275e-05
230 1 33.65924983606558 17.406948196721313 3.5683370272530116e-05
231 1 34.85600655737705 19.31043868852459 8.840791081412031e-05
232 1 38.42648393442623 18.23970950819672 1.1784927754974816e-05
233 1 40.84857573770492 17.703789508196724 9.052427959602883e-06
234 1 43.59987409836066 17.954582295081966 7.905320607378342e-05
235 1 46.06018819672132 18.359980983606558 7.841344244836654e-05
236 1 48.98189639344263 16.417106885245904 3.287398318484971e-05
237 1 50.44646163934427 15.99676262295082 5.608772925434902e-06
238 1 52.57862950819673 17.42785180327869 5.960338215323373e-05
239 1 55.17744262295083 16.278961311475413 3.023288290916848e-06
240 1 58.0428524590164 15.969143606557378 7.671452596048568e-05
241 1 60.77900327868853 15.841601311475412 1.3092883229854103e-05
242 1 63.816590163934436 16.1932262295082 4.4353581098002515e-05
243 1 66.5512262295082 16.15904327868853 3.497728748338393e-05
244 1 69.26061639344263 16.542932459016395 4.6556357458966106e-05
245 1 72.84048524590165 16.057958688524593 5.6324960467728806e-05
246 1 74.04320000000001 15.12239606557377 6.019077208111583e-05
247 1 77.7932262295082 16.06346229508197 1.7281677262048936e-05
248 1 80.62884590163935 16.02680524590164 3.824176798820756e-06
249 1 1.1995135737704918 18.379167868852463 5.921106661762689e-05
250 1 5.142337704918034 18.825313442622953 2.3790230407171167e-05
251 1 6.650426885245903 19.142048524590166 1.36525006079527e-05
252 1 8.970020327868854 19.425408524590168 8.793714045756364e-05
253 1 11.287897049180328 20.74228524590164 1.3926936957569636e-06
254 1 15.095231475409838 20.13981704918033 1.6309570908728965e-05
255 1 17.30278360655738 19.609905573770494 9.279275874535076e-05
256 1 19.42561049180328 21.166416393442624 6.825169944242039e-05
257 1 21.967519344262296 19.550527213114755 3.290366573924394e-05
258 1 25.52481836065574 20.836048524590165 9.55888469369105e-06
259 1 28.27066360655738 19.605866229508198 7.009794830356298e-06
260 1 30.922493114754104 20.87159475409836 7.119671205160102e-05
261 1 33.80714032786885 20.408433442622954 8.043453638460723e-05
262 1 36.160058360655746 20.076752786885248 9.44134198752101e-05
263 1 40.66155409836066 20.113409836065575 4.1461420894586155e-06
264 1 42.190698360655745 19.954209180327872 6.596141607644665e-05
265 1 44.75346032786885 21.310873442622952 3.945318973992076e-05
266 1 47.49895213114754 20.230096393442626 6.243491669908875e-05
267 1 50.11407409836066 18.86469704918033 6.932121423464914e-05
268 1 51.678360655737706 18.673131147540985 7.908648837489094e-05
269 1 54.52508852459017 18.858032131147542 7.904655342442177e-05
270 1 57.10219016393443 18.169475409836068 4.078439248187503e-05
271 1 59.05016393442624 19.581478688524594 7.415866183708531e-06
272 1 62.261442622950824 17.901212459016396 9.79177326702424e-05
273 1 64.52549508196722 17.54883016393443 7.558033730340796e-05
274 1 68.45224262295082 18.609662950819676 3.0501718168906237e-06
275 1 70.02556721311477 18.897971147540986 7.807891987225516e-05
276 1 72.8384655737705 18.619205901639347 2.0227149442053883e-05
277 1 75.68064918032788 18.075510163934428 7.513939059396353e-05
278 1 78.4905180327869 18.11045049180328 7.615656008037904e-05
279 1 82.34556721311476 18.372603934426234 8.674048261182754e-05
280 1 81.9820262295082 21.017314098360657 7.929518856801735e-05
281 1 1.9696145573770494 20.713959344262296 6.245816558526738e-05
282 1 4.533204590163935 21.256039344262298 6.54976813334851e-05
283 1 7.740342950819673 21.86264786885246 4.951646786794816e-05
284 1 10.369047213114756 21.973022950819676 6.03726365559238e-05
285 1 12.615881967213117 23.73266229508197 3.655301988626975e-05
286 1 14.267670819672134 21.43957704918033 9.376993893364958e-05
287 1 18.01295081967213 22.9770524590164 2.9189219755851192e-05
288 1 22.077137049180333 21.55899016393443 6.727644458455057e-05
289 1 23.18750229508197 20.457006557377053 2.627248089658505e-05
290 1 27.2497193442623 21.97171016393443 8.817454970725954e-05
291 1 30.114422295081972 22.172364590163934 9.790313182891336e-05
292 1 33.291316065573774 22.44173836065574 5.193456162070453e-05
293 1 34.81268459016393 22.66935540983607 3.291632595562845e-05
294 1 38.44334819672132 23.32519344262295 8.111426207265769e-05
295 1 41.08714950819673 23.424712786885248 2.2008805236470973e-06
296 1 43.92453639344262 22.599272786885248 8.087177953392194e-05
297 1 46.23327409836066 22.775388196721316 1.1974300379390102e-05
298 1 48.583061639344265 22.724896393442627 4.77395684956888e-05
299 1 50.72810491803279 22.04138885245902 6.816093326256198e-05
300 1 53.3112655737705 20.861142950819673 1.9778406287669038e-05
301 1 56.09235409836066 20.83897704918033 8.387759334809425e-05
302 1 58.81941639344262 21.10299868852459 3.0821575303456026e-05
303 1 60.463429508196725 20.14410885245902 1.9577568999355834e-05
304 1 63.5560524590164 21.567876721311478 2.314701708450896e-05
305 1 66.11800655737706 21.977213770491804 5.8380279801350736e-05
306 1 68.70874098360657 22.156611147540985 1.77046017530318e-05
307 1 72.58196721311477 20.567280655737708 5.549130583971148e-05
308 1 74.14115409836066 20.469074098360657 3.593171604187581e-05
309 1 77.4120131147541 20.210404590163936 7.459729811265136e-05
310 1 78.81215081967214 19.60652262295082 4.533420418965244e-05
311 1 0.6995588852459018 23.06273704918033 7.219324135467274e-05
312 1 3.1496736393442624 23.229713442622955 6.248169856730483e-05
313 1 5.287097704918033 22.626942295081967 1.700680099131886e-05
314 1 8.683428852459018 24.233086557377053 1.3422134726643586e-05
315 1 12.059664262295083 25.1275993442623 6.658224523670481e-05
316 1 14.11377180327869 23.95578557377049 5.557371398684321e-05
317 1 16.443514098360655 24.924773770491804 6.863446991114973e-05
318 1 19.289535081967216 24.572038032786885 5.5578438848246475e-05
319 1 21.88370295081967 24.128366557377053 6.843227740858476e-05
320 1 25.585812459016395 23.930792131147545 2.2044435197807632e-05
321 1 28.21103278688525 24.06494885245902 4.953537599467344e-05
322 1 30.290083278688527 25.680888524590166 9.82994018537109e-05
323 1 33.22219278688525 25.086347540983606 9.882979981276812e-05
324 1 36.126582295081974 23.4613193442623 1.9397550941426823e-05
325 1 40.49785967213115 24.825405901639346 3.018069276945621e-05
326 1 42.93575540983607 24.862870819672132 5.0854469971573615e-06
327 1 45.1175062295082 26.454372459016398 5.541634306228851e-05
328 1 47.63199803278689 25.22025180327869 4.2654766922146315e-05
329 1 50.0748924590164 24.842320655737705 8.223921166992059e-05
330 1 52.33778360655739 23.43269049180328 4.028138327850584e-06
331 1 54.77906229508197 22.985232131147544 2.1479023526420082e-05
332 1 56.75783606557378 22.23805442622951 1.1933759122534583e-06
333 1 60.441718032786895 23.162963278688526 3.8107086434031715e-06
334 1 63.04810491803279 23.04344918032787 5.034894053133139e-05
335 1 65.65297704918032 23.427287868852464 2.5783727849775307e-05
336 1 68.27047213114756 23.614612459016396 8.629639391886002e-05
337 1 70.41233442622952 23.60557442622951 6.023482456757975e-05
338 1 72.58651147540984 24.68049442622951 2.92300059694646e-05
339 1 74.87681967213115 23.092527213114757 1.7229859915997137e-05
340 1 77.66194754098362 22.94842360655738 3.898595161201347e-05
341 1 80.8505049180328 23.33650360655738 2.789581524365892e-05
342 1 82.51118032786886 25.506136393442624 7.679262373089628e-05
343 1 2.3609563278688523 25.444586885245904 9.600371704843889e-05
344 1 4.123377770491803 26.889207868852463 2.2112703679866e-05
345 1 6.83340918032787 26.113754754098363 6.907731479698738e-05
346 1 9.370521311475411 25.611664262295086 9.453654560563241e-05
347 1 13.39810098360656 26.880018360655743 2.0873676606031722e-05
348 1 15.881085901639345 26.351571147540984 7.835965366524926e-05
349 1 18.25440262295082 26.710769836065577 7.26286808650961e-05
350 1 20.89552786885246 26.57585573770492 2.314070071428265e-06
351 1 23.017092459016396 25.16486229508197 6.519726878186494e-05
352 1 26.473761311475414 26.29916065573771 7.537243341391956e-05
353 1 29.39723672131148 26.904405901639347 6.716836802998303e-05
354 1 32.0144793442623 27.158884590163936 8.923019559750889e-06
355 1 34.42672524590164 26.075431475409836 7.433807375890791e-05
356 1 37.97241114754099 24.77087475409836 9.7292724121316e-05
357 1 40.97051344262295 27.081985573770496 2.5886132158455867e-05
358 1 45.22762885245902 27.972761967213117 4.538999582921434e-05
359 1 46.74415016393443 27.8702131147541 1.2412928392562862e-05
360 1 49.73700131147542 27.221494426229512 2.4653743873109892e-05
361 1 52.315567213114754 26.053619016393444 2.6584359549228134e-05
362 1 53.74347540983607 25.567786885245905 5.5636015835507724e-05
363 1 56.1756655737705 25.18723016393443 9.284438324876212e-05
364 1 58.84668196721312 25.380613770491806 5.14474483653742e-05
365 1 61.50103606557378 25.462259016393446 4.1030973770414985e-06
366 1 64.22102950819674 25.540016393442627 7.239631430041236e-05
367 1 66.9480918032787 25.79752459016394 7.712200780628426e-05
368 1 69.33584918032787 26.202165901639347 2.7853726176994353e-05
369 1 71.96142295081967 26.080329180327873 2.027351355016358e-05
370 1 74.06844590163935 25.954049180327875 6.723507749845155e-05
371 1 76.7541049180328 25.051205245901645 9.297622015529353e-05
372 1 78.68844590163935 24.158611147540988 8.386215349575554e-05
373 1 1.4372592786885248 27.821084590163938 3.028979462922388e-06
374 1 3.8386746885245904 29.25424393442623 2.484565525841258e-05
375 1 6.345759344262295 29.780419016393445 9.66802273298164e-05
376 1 8.777848524590164 28.139940327868853 7.325699526164376e-05
377 1 11.58352655737705 28.66030885245902 9.536773679786327e-06
378 1 15.303863606557378 28.88742098360656 6.01041568311454e-05
379 1 16.832957377049183 28.96401704918033 6.695433627687024e-05
380 1 19.532602622950822 28.887118032786887 3.4036036269048485e-05
381 1 22.29314098360656 28.099445901639346 2.3274011741125014e-05
382 1 24.72977442622951 28.105454426229514 7.522235439420153e-05
383 1 26.83503016393443 27.790840000000003 5.4987327781582266e-05
384 1 30.319368524590168 29.24273180327869 5.589080328968243e-05
385 1 33.283994754098366 28.790628196721315 1.9806550877793217e-05
386 1 36.73308983606558 27.830021639344263 2.1966632132237098e-05
387 1 38.26324393442623 28.14897836065574 8.061612153441175e-05
388 1 40.67644918032788 29.188251147540985 9.740541642857587e-05
389 1 43.060773114754106 29.2832262295082 5.760159423929096e-05
390 1 47.83845901639345 28.927259016393442 4.122650451695953e-06
391 1 50.58571803278689 29.555326557377054 1.9756540839093917e-05
392 1 52.80432786885246 29.61384655737705 1.766091202318916e-05
393 1 55.10372459016394 27.805583606557377 8.807966049940798e-05
394 1 57.05270819672132 28.767755409836067 5.982469406369873e-06
395 1 59.936800000000005 27.77862098360656 1.4555272962236766e-05
396 1 63.31116721311476 27.67470885245902 2.4638395127155313e-05
397 1 66.12103606557378 27.755344262295083 2.621768242408238e-05
398 1 68.3684262295082 29.67019540983607 1.2323002799292038e-05
399 1 70.86625573770493 28.410424918032792 3.8897381236829314e-05
400 1 73.49233442622952 28.58866098360656 8.29983123671493e-05
401 1 74.90156065573771 27.211699016393446 9.916878727979063e-06
402 1 78.62179672131148 28.591539016393448 5.3000104923993634e-05
403 1 81.43116065573771 27.495462950819675 4.3274731460658955e-05
404 1 82.4980524590164 29.982537704918037 2.7736153297875157e-05
405 1 3.3307220983606562 30.72926098360656 5.2520078699752605e-05
406 1 6.55080655737705 31.30648327868853 2.6916859171457288e-05
407 1 8.538668852459018 30.623531147540987 7.01759243469311e-05
408 1 10.74546360655738 31.84694754098361 5.2651448616698526e-05
409 1 13.273184262295084 32.171306885245905 2.6555274934309737e-05
410 1 15.926629508196722 32.12480393442623 3.435055145950525e-05
411 1 18.646673442622955 31.12052196721312 4.1831627670025675e-05
412 1 21.408221639344266 30.471500327868856 4.857933487359812e-06
413 1 23.56780655737705 31.841544918032792 8.353297915783308e-06
414 1 26.157581639344265 30.588237377049182 1.221011736494001e-05
415 1 28.950889180327874 31.437459016393447 6.298368481971517e-06
416 1 31.911880000000004 30.823781639344265 6.131086069369472e-05
417 1 34.632277377049185 30.992323278688527 1.0070208967017203e-05
418 1 36.83170032786885 32.22235409836066 6.939206436677351e-05
419 1 39.374265573770494 30.932440000000003 4.7240980145022404e-05
420 1 41.7110262295082 32.6119993442623 3.076925045684327e-05
421 1 45.76243803278689 31.81266360655738 9.524402418206949e-05
422 1 48.47167672131148 31.5062793442623 8.514124936983601e-05
423 1 51.25019016393443 32.12288524590164 1.9760153823601135e-05
424 1 54.714432786885254 30.648575081967216 9.356569023472753e-05
425 1 56.11053114754099 29.99697836065574 3.061680130631509e-05
426 1 58.556859016393446 29.951586229508198 3.280301895836514e-05
427 1 60.68256393442624 29.140586885245906 7.340478503619659e-05
428 1 64.3376655737705 29.744367868852464 1.2846956111829812e-05
429 1 68.60523278688525 31.195047868852463 7.022067691803478e-05
430 1 70.66630819672132 30.872001311475415 3.453868360068265e-05
431 1 72.17651803278689 30.76859409836066 9.594791537869954e-05
432 1 74.5319606557377 29.723666229508197 3.667382919923254e-05
433 1 76.80712131147541 27.78897180327869 2.8210887000936302e-05
434 1 79.83864918032788 29.768149508196725 1.9911316350103837e-05
435 1 0.8643035409836066 32.5518131147541 9.226468525026729e-05
436 1 4.095576983606558 32.057801311475416 2.353628698906781e-05
437 1 8.772092459016395 33.28111672131148 8.48215693785783e-05
438 1 10.318353442622952 33.332113442622955 9.56162808190148e-05
439 1 12.679956065573771 33.57821049180328 4.191163273272654e-05
440 1 15.320828852459018 33.52559803278689 3.76923543972918e-07
441 1 18.088688524590168 33.51736786885246 1.5629695465610738e-05
442 1 20.81484196721312 32.763121311475416 3.6991346597319454e-05
443 1 22.757160655737707 34.32321704918033 6.028385306390594e-06
444 1 25.368697704918038 33.32600393442623 7.465846617921641e-05
445 1 29.2955462295082 32.91535409836066 1.5285719129931487e-06
446 1 30.800302950819674 32.77271475409836 1.678238583447569e-05
447 1 33.25602229508197 33.99138491803279 9.844703611503651e-05
448 1 36.35990491803279 33.706358688524595 9.043256121376772e-05
449 1 38.910144918032785 33.50888524590164 9.912220566518065e-05
450 1 41.39454360655738 34.67852786885246 8.61219211980721e-05
451 1 43.247390819672134 32.87415278688525 4.3934845321300456e-05
452 1 47.55918885245902 33.78987213114754 8.006089716431901e-05
453 1 49.905240000000006 35.23267540983607 3.335128748539712e-05
454 1 52.588727868852466 34.35260327868853 6.18949067573071e-05
455 1 54.88711475409836 33.419514754098365 2.464020649674217e-05
456 1 58.21351475409837 32.08259278688525 8.998785588263478e-05
457 1 59.72321967213115 31.964744918032792 4.296117760645835e-06
458 1 62.07916721311476 31.69375540983607 9.01737297598395e-05
459 1 64.7532131147541 31.19863278688525 1.802374358300547e-05
460 1 67.98670819672132 33.67540721311476 7.183446366911748e-05
461 1 70.47696393442624 33.54044262295082 5.4736466605306536e-05