# input file

2232 atoms
1 atom types

0.0 82.68810555352132 xlo xhi
0.0 83.16 ylo yhi
-10.0 10.0 zlo zhi
0.0 0.0 0.0 xy xz yz

Masses

1 12.0100 #C

Atoms

1 1 1.8453744262295082 0.10298156721311476 3.962891426452786e-05
2 1 4.511760721311476 0.9397281967213116 1.692848437660567e-05
3 1 7.406440655737706 1.5277001967213117 6.634085978070937e-05
4 1 8.920740327868854 1.041817573770492 3.8962520595618356e-05
5 1 12.80012655737705 0.11556917377049182 8.24314823688267e-06
6 1 14.365826885245902 0.05563489836065574 1.0689663396243543e-05
7 1 17.126567213114754 83.11556721311476 4.20604746015992e-05
8 1 19.93492131147541 0.01663169704918033 5.863608216124995e-05
9 1 22.663397377049183 0.2857825967213115 1.3017449386976078e-05
10 1 26.26401836065574 1.2420630163934427 9.551006849622029e-05
11 1 28.523324590163938 0.7750138360655738 4.665169906228124e-05
12 1 30.74471147540984 2.062857770491804 4.8362200467594655e-05
13 1 34.70407672131148 0.6622656393442624 9.776202402926487e-05
14 1 36.225192786885245 0.5422062295081967 8.957789220170839e-05
15 1 39.59940852459017 0.08827582950819672 6.518785990699747e-05
16 1 41.185002622950826 0.3490962885245902 1.1394267995452834e-05
17 1 44.13306754098361 0.8268386229508198 7.551607678113756e-05
18 1 46.872500327868856 1.2750291147540984 8.810116719124536e-05
19 1 49.66944327868853 1.9611369836065575 7.900270371892994e-05
20 1 52.43220327868853 1.5836047213114754 3.7256886262674594e-05
21 1 53.937868852459026 1.2935293114754098 3.266053362954681e-05
22 1 57.661639344262305 1.4083628196721312 3.7680094764249065e-05
23 1 60.01910163934427 0.49041224262295086 1.5189894129752114e-05
24 1 62.577016393442634 0.6393676065573771 6.203974604203393e-05
25 1 64.86278032786885 0.7603510163934427 2.339161147324386e-05
26 1 67.5792393442623 0.7060218360655739 8.083440276679024e-05
27 1 70.50422950819673 0.7398412459016395 4.802647023572392e-05
28 1 73.63573114754098 1.34558131147541 7.50339820542415e-06
29 1 76.57788852459016 0.7349586885245902 7.658287850464179e-05
30 1 79.15196065573771 83.08173770491804 1.8673040728338032e-05
31 1 81.65685901639345 82.90703606557379 5.217401148883538e-05
32 1 0.39018702295081975 1.9212030163934428 7.507408416528477e-05
33 1 1.2333632786885247 3.71358124590164 1.0035818238210504e-05
34 1 5.069932459016394 3.528599475409836 8.98694110872906e-05
35 1 7.279908196721312 3.7176761311475417 3.5146182565858e-06
36 1 10.45705442622951 3.1963078688524593 4.419321174269452e-05
37 1 12.922215737704919 2.678519475409836 3.777296119211714e-05
38 1 16.470527213114753 2.086977704918033 1.3088699258970005e-05
39 1 18.011385573770493 2.044024327868853 6.512181048512968e-05
40 1 20.654681967213115 2.2603766557377054 9.027078268159193e-05
41 1 23.091062950819676 2.9717455737704923 3.6527123157856835e-05
42 1 24.977638688524593 2.0587123934426232 2.3307715558673802e-05
43 1 29.786528524590167 3.2620229508196723 2.1277323410187177e-05
44 1 32.93029967213115 3.5916283934426234 7.075001427748888e-05
45 1 34.39324918032787 3.2109555409836066 3.829490363869126e-05
46 1 37.06906229508197 3.162796459016394 3.404531766633551e-05
47 1 39.6111731147541 2.628199344262295 3.286036589227277e-05
48 1 42.55837967213115 2.6653865573770497 9.702581496883839e-05
49 1 45.67922754098361 3.2405790819672133 7.48578493468592e-05
50 1 48.150195409836066 4.536648131147542 3.1824460641415907e-05
51 1 50.183449836065584 5.683811803278689 7.81422436058487e-05
52 1 52.57711475409836 4.768127803278689 5.423704914105415e-05
53 1 55.05474754098361 3.8057641311475416 2.1599299307993325e-05
54 1 56.61494426229508 2.524569967213115 7.74850185765107e-06
55 1 60.86433442622952 4.1533951475409845 5.3354986412770704e-05
56 1 63.74034754098361 3.355912459016394 9.637210141952444e-05
57 1 66.98697049180329 2.750192590163935 2.565832253015913e-05
58 1 68.50424918032788 2.564064655737705 4.893977266341163e-05
59 1 70.9556262295082 2.2143180327868857 5.3924691284495664e-05
60 1 74.47389508196723 2.6226856393442626 9.817654089683596e-05
61 1 78.24058360655738 2.4951786885245903 9.697010318909395e-06
62 1 80.68842622950821 2.2235479344262297 1.6260103619044677e-05
63 1 2.3562959344262295 4.7219681967213125 4.274537720544902e-05
64 1 3.7001201311475413 5.988933770491804 7.783445189238324e-05
65 1 7.230072786885247 5.608881967213115 6.902386612454924e-05
66 1 8.41607475409836 4.688684 4.942178346074232e-05
67 1 11.643763278688526 5.2792209836065584 1.6754048272185375e-05
68 1 13.945078688524593 5.063469508196722 6.78270129740895e-05
69 1 16.788474098360656 4.6260489180327875 1.2218907438839533e-05
70 1 19.506902295081968 4.430034688524591 1.6340562176323525e-05
71 1 22.044670819672135 5.927990163934427 7.50410552418729e-05
72 1 24.90765704918033 4.982717967213116 1.423839958359725e-05
73 1 27.825729836065577 4.88798524590164 1.8869842585166862e-05
74 1 30.189756065573775 6.055078032786886 4.693889758393186e-05
75 1 32.68778754098361 6.195748196721312 5.582144205696093e-05
76 1 35.500231475409834 5.428222295081968 4.433281942977605e-05
77 1 39.46727147540984 4.8453499672131155 4.231598847216581e-05
78 1 40.956375737704924 4.540551147540984 9.297414751758035e-05
79 1 43.31924065573771 4.0135681967213115 7.170451419323762e-05
80 1 46.944097704918036 5.521985573770492 3.176690922117115e-05
81 1 48.99421639344263 6.607559344262295 8.829991397410475e-07
82 1 51.370865573770494 7.469000000000001 5.4304560202604236e-05
83 1 55.47180983606558 5.851495081967214 4.33960973476537e-05
84 1 57.02342295081968 5.522540983606558 3.6274847377167456e-05
85 1 59.98274754098361 5.456295737704918 4.8476676806048313e-05
86 1 62.605796721311485 5.720569836065574 4.880798029550344e-05
87 1 65.30862295081968 5.946823606557377 6.179124045364969e-05
88 1 67.7100131147541 5.034103475409837 3.354270529304977e-05
89 1 70.42394754098362 5.682095081967214 7.819754669284614e-05
90 1 72.63245901639344 3.983303409836066 6.868550240589966e-07
91 1 76.48750819672132 4.662771606557377 1.088025810454959e-05
92 1 79.29384262295083 4.742048786885246 8.615441569719588e-05
93 1 82.55157377049181 4.429499475409837 4.016753541535325e-05
94 1 82.21125901639346 7.369480655737705 2.383703927214922e-05
95 1 1.8538873442622954 7.716864262295083 6.515957688697621e-05
96 1 3.7924948852459024 7.500304918032787 3.558026932204399e-05
97 1 7.189224918032788 8.36260393442623 9.401486815403862e-05
98 1 10.043880000000001 7.614719344262295 1.3994349619547841e-05
99 1 12.816637377049183 7.6699068852459025 9.66203372312497e-05
100 1 14.750826885245903 6.352878688524592 8.259952002351499e-05
101 1 18.216281311475413 6.776302950819673 6.0776693331557554e-05
102 1 21.405798032786887 7.327875409836066 5.767819934465892e-05
103 1 24.223038688524593 7.159636721311476 2.9542301850827448e-05
104 1 26.86219475409836 6.884860327868854 5.040162462810537e-05
105 1 28.713577704918038 9.114174426229509 7.867337148247237e-05
106 1 31.425542950819676 8.518270163934426 2.6977261785858464e-06
107 1 35.06933442622951 7.4919232786885255 4.323395851225668e-05
108 1 36.36409573770492 6.683145573770493 3.522187465629634e-06
109 1 40.69891803278689 6.969989508196722 9.909473283046292e-05
110 1 42.21811540983607 6.711320000000001 5.06902075750556e-06
111 1 44.94452131147541 7.3977560655737715 2.0608975986688894e-05
112 1 47.13379540983607 8.391333770491803 2.7181230523774426e-05
113 1 49.674189508196726 9.771880655737705 5.681022151488214e-06
114 1 52.38373114754099 8.59133180327869 7.150076653447701e-06
115 1 56.084780327868856 8.503324590163936 3.471376108616071e-05
116 1 58.85072131147542 7.637440655737706 5.328955864347673e-07
117 1 62.011508196721316 7.687276065573771 8.377969712847929e-05
118 1 63.39346885245902 7.0364367213114765 6.016900493689589e-05
119 1 67.02534426229509 7.791794098360657 8.326265070222809e-05
120 1 69.92761311475411 7.134188852459017 9.027192607930344e-05
121 1 72.58146229508198 6.799731147540984 4.2653023425331194e-05
122 1 75.16108852459017 6.875923278688526 5.7813507467631004e-05
123 1 77.68416393442624 6.8035180327868865 8.351344429362804e-05
124 1 79.55539016393443 8.333874098360658 2.499911537303671e-05
125 1 0.8782594754098361 10.035750819672133 5.388464966591997e-05
126 1 3.3821126557377053 10.243272131147542 1.6336132732230047e-05
127 1 6.14964918032787 10.966062295081967 2.1001021423325097e-05
128 1 8.78845180327869 9.770365901639346 5.1677721049854346e-05
129 1 11.245736393442625 10.218733114754098 1.9816432826424536e-06
130 1 14.533661639344263 9.328259672131148 9.572314542165504e-05
131 1 16.628869508196722 8.929071475409836 6.280092857526387e-06
132 1 18.79501836065574 8.187952786885246 2.3227475061195824e-06
133 1 22.059262950819676 8.69635475409836 1.2749223757398265e-05
134 1 25.776671475409838 9.246109508196723 6.377163384064072e-05
135 1 28.426582295081968 10.639834754098361 2.9597871540591925e-05
136 1 30.447163278688528 10.946723934426231 2.6688959255745704e-05
137 1 32.644011147540986 10.737687868852461 8.911781659512809e-05
138 1 35.03378819672131 10.072912786885247 5.859643475318142e-05
139 1 37.812049180327875 9.725478688524593 1.4419360239852575e-06
140 1 40.501444590163935 9.692103606557378 2.1963839253227003e-05
141 1 43.08243409836066 9.170573770491805 9.810664121241278e-05
142 1 45.832722622950826 11.81225442622951 9.94826578446344e-05
143 1 48.75185573770492 10.978180327868854 5.502909225953601e-05
144 1 51.4400393442623 11.049676721311476 8.281009542908968e-06
145 1 54.18073442622951 10.797520655737705 8.307593178264366e-05
146 1 58.159488524590174 9.99576131147541 8.403749974101987e-05
147 1 59.67020327868853 10.172634098360655 2.4246218007253784e-05
148 1 62.11653114754099 10.583687868852461 9.316244714018186e-05
149 1 65.76102950819673 10.37152131147541 4.5289872760920425e-05
150 1 68.92535081967215 9.347800000000001 7.765368179731972e-05
151 1 71.6943213114754 9.190619016393445 5.44070278910363e-05
152 1 74.10379016393443 9.22843737704918 3.675193201450675e-05
153 1 76.67079344262297 9.250552786885248 1.2485753721703797e-05
154 1 79.23426229508198 9.81368786885246 3.7235472621318226e-05
155 1 80.76012459016394 9.857767213114755 5.3539544596231437e-05
156 1 82.15975737704919 12.030883934426232 9.383245379489608e-05
157 1 1.7394678688524592 11.343791475409837 4.101321557694815e-05
158 1 5.828622295081967 12.443300983606559 7.571978838462965e-05
159 1 8.587948852459018 13.178360655737707 1.2006443453191929e-05
160 1 11.314960655737707 11.751361311475412 4.725719543018755e-05
161 1 14.290190163934428 12.24729180327869 6.807040271969344e-05
162 1 15.736123934426232 11.724600655737706 4.533650297734021e-05
163 1 17.852285901639345 11.030388852459017 2.0882385531401648e-05
164 1 20.73627672131148 11.256996065573771 2.8025751881140537e-06
165 1 24.777337704918036 11.210947540983607 8.827321732238188e-05
166 1 26.19363278688525 10.69153836065574 8.151049823667583e-05
167 1 28.94089180327869 13.41622754098361 4.4036902010509786e-05
168 1 31.487496393442626 13.41112786885246 6.146139322974129e-05
169 1 34.014459672131146 12.756400655737705 9.172042160397606e-05
170 1 36.45452655737705 12.007354754098362 1.770318588844998e-05
171 1 39.345788196721315 11.906926557377052 1.6051666831470104e-05
172 1 42.66158491803279 11.516826885245903 3.590936699441622e-05
173 1 43.812848524590166 10.507192786885247 4.377267539499441e-06
174 1 47.30178163934427 13.043295081967214 7.034166539791095e-05
175 1 49.893323934426235 13.196739672131148 7.216308865238596e-05
176 1 53.36680655737705 12.98952131147541 8.85979456281403e-05
177 1 54.682118032786896 12.228003934426232 1.5926882933025456e-05
178 1 58.26703606557378 12.642996065573772 1.7787894152023488e-05
179 1 60.89462950819672 12.795683278688525 7.934863946538573e-06
180 1 63.192006557377056 11.739596721311475 5.389890426690216e-05
181 1 67.01474098360656 11.306023606557378 7.965708752565811e-05
182 1 69.88419016393443 11.316475409836068 5.7461374678070116e-05
183 1 72.5264262295082 11.652346885245903 8.512701395340761e-06
184 1 75.90281311475411 11.546112131147542 1.560111036948918e-05
185 1 76.04873442622953 14.04212393442623 6.022278915287753e-05
186 1 79.67051147540984 13.669191475409837 3.975847270612358e-05
187 1 1.8737356721311478 15.222874754098362 1.782196353929073e-05
188 1 4.665008393442624 14.417631475409838 6.569825377396317e-05
189 1 7.718681967213116 14.461104918032788 4.021868223483127e-05
190 1 10.29840918032787 14.186278032786886 3.102896291385446e-05
191 1 13.106813770491804 14.631262295081969 7.172562264369184e-05
192 1 15.084375737704919 15.088819016393444 8.58979382318104e-05
193 1 17.92580196721312 13.728317377049182 2.8788458504846394e-05
194 1 19.30089573770492 13.07500393442623 4.4192783619584165e-05
195 1 21.808672131147546 13.922508852459018 2.2176914434908134e-05
196 1 25.263826229508197 14.038084590163937 2.651953397209509e-05
197 1 26.896781639344262 16.054020327868855 6.50417880143726e-05
198 1 29.241923934426232 14.928709508196723 4.055100397930766e-05
199 1 32.98058950819673 15.355264262295083 9.715634654369132e-05
200 1 35.39207803278689 14.695588852459018 2.025178155108194e-05
201 1 38.001948852459016 13.917712131147542 6.112121128831838e-06
202 1 39.8845862295082 15.367079344262295 4.8745047435214185e-05
203 1 43.3351455737705 15.650085901639345 2.2663947918124216e-05
204 1 45.868874754098364 14.997984262295084 1.610467390024083e-05
205 1 48.3709455737705 15.377834098360657 3.777349737768124e-05
206 1 50.875036065573774 16.42619540983607 1.0300429151747048e-05
207 1 52.99619672131148 17.04169049180328 7.885444249225822e-05
208 1 56.99363278688525 14.954106885245904 7.787149935472134e-05
209 1 59.152662295081974 16.036701639344262 7.407621887649066e-05
210 1 62.61135081967214 14.678118688524592 9.096703322467826e-05
211 1 65.8160655737705 14.418287868852461 4.092941301974731e-05
212 1 68.2492655737705 14.070399344262297 3.4564957485142025e-05
213 1 70.91876721311476 13.761036065573773 2.6640033009486453e-05
214 1 72.81978360655738 15.383135737704919 9.370200307671006e-05
215 1 75.59733770491805 15.490026885245904 1.5327931105980685e-05
216 1 77.51249180327869 14.523664262295082 8.170608205145932e-05
217 1 81.96132459016394 14.269539016393443 5.574012116922645e-06
218 1 0.9090897704918034 16.422206557377052 2.7189388289658757e-05
219 1 3.5394198688524594 16.926266229508197 7.508898501619241e-05
220 1 6.27093049180328 16.385902950819673 4.959233697202394e-05
221 1 10.033478688524593 16.347680655737705 7.234687401215937e-05
222 1 11.555604590163934 16.42846754098361 3.1142185523766306e-05
223 1 13.579518032786886 18.5285731147541 5.9297368321863445e-05
224 1 16.15343868852459 17.141967213114757 6.758764574113851e-05
225 1 18.74563737704918 16.64048262295082 8.513388709823002e-05
226 1 22.942566557377052 16.733942950819674 1.901158357048789e-05
227 1 22.52186885245902 15.272912131147542 3.550177053156859e-05
228 1 25.932337704918034 17.25380655737705 2.3093461884522383e-05
229 1 28.2983331147541 17.783667540983608 9.884974297064184e-05
230 1 31.626146885245905 17.56948131147541 5.9343778950752835e-05
231 1 34.46212 17.386751475409838 3.4397109393004776e-05
232 1 37.43709704918034 16.337733770491806 6.333473086095115e-05
233 1 41.357634098360656 15.650035409836068 2.3786606142329826e-05
234 1 42.67905508196722 17.030430819672134 4.930907324944915e-05
235 1 44.670401311475416 17.651782950819673 7.448262789823024e-06
236 1 47.41190426229509 17.559736393442623 8.875365804344568e-05
237 1 50.31149704918033 17.833401967213117 1.5649667896783004e-05
238 1 54.49832786885246 16.75146360655738 3.733624510342377e-05
239 1 56.35743606557378 17.37518885245902 5.9507981370254095e-05
240 1 58.773468852459025 17.49207737704918 2.96264740646484e-05
241 1 60.50483278688525 16.70440524590164 1.747685576843e-05
242 1 63.51313442622951 15.933142950819674 4.336100885456217e-05
243 1 67.02534426229509 16.688146885245903 1.0479320993991081e-05
244 1 70.31589508196723 16.181158688524594 9.694881552902999e-05
245 1 71.81903606557378 16.527986885245905 2.2207362453665327e-05
246 1 74.3092918032787 17.553626885245905 4.983992503924329e-06
247 1 76.57182950819673 16.660275409836068 3.0754303966991914e-05
248 1 80.61470819672131 16.42887147540984 1.3859344515437456e-05
249 1 1.349312655737705 19.9970262295082 3.32464536962908e-05
250 1 5.876993442622951 20.002529836065577 4.5345061659421574e-05
251 1 7.620626885245903 18.64904655737705 3.09506162131731e-05
252 1 9.124222295081967 19.046316065573773 8.178052952928222e-05
253 1 13.398000000000001 20.05443540983607 5.9694258500677245e-05
254 1 15.719562622950821 19.584053770491806 6.199551701099693e-05
255 1 17.166960655737704 19.108875409836067 1.6550586182530313e-05
256 1 19.56774491803279 18.999257704918033 9.481177543673147e-05
257 1 22.70167016393443 18.540388196721313 8.670573164891455e-05
258 1 24.19844918032787 18.86055672131148 4.4013505014483825e-05
259 1 26.949899016393445 19.999954754098365 6.22864253393979e-05
260 1 29.22278754098361 19.005771147540987 3.896413353014978e-05
261 1 33.02249770491804 19.565169836065575 5.990026879729335e-05
262 1 35.794598688524594 18.13630229508197 8.018058465239332e-06
263 1 38.78866163934427 18.034359344262295 5.30228545512956e-05
264 1 40.64968852459017 19.887913442622953 5.770896458754777e-05
265 1 42.9212137704918 20.75622098360656 9.350372650992075e-05
266 1 45.72956786885246 19.797785573770494 4.762157504308655e-05
267 1 48.99724590163935 19.77491278688525 6.956503276676844e-05
268 1 52.291836065573776 19.4888262295082 2.7206268593466367e-05
269 1 55.00375081967214 19.67352524590164 3.676833268191139e-05
270 1 57.601554098360666 19.828888524590166 4.026584695180343e-05
271 1 60.22460327868853 19.67862491803279 7.801058282984204e-05
272 1 62.547226229508205 18.834502950819676 3.075879110576039e-05
273 1 65.09403278688525 18.59219278688525 4.772402318423937e-05
274 1 67.57873442622952 18.114035409836067 6.318321009229352e-05
275 1 70.78041967213115 19.038944262295086 2.8060518973198714e-05
276 1 72.98337704918033 20.52900786885246 5.4405437788089355e-05
277 1 76.51780327868853 19.327403934426233 2.0990201413649713e-05
278 1 79.26253770491803 18.551092459016395 8.500611627763138e-05
279 1 82.07695081967215 18.39684 3.167711431591948e-05
280 1 0.4491134819672132 21.239730491803282 4.2395700419529494e-05
281 1 2.5564959344262297 21.80150229508197 9.242951016184206e-05
282 1 5.062661639344263 21.53192655737705 9.701811984755282e-05
283 1 6.567771803278689 21.383127213114754 2.1267341371476735e-05
284 1 9.91648918032787 21.480980327868856 5.280925004973025e-05
285 1 12.172513442622952 21.915765245901643 6.043853336176689e-05
286 1 15.6025731147541 22.125811147540986 6.858918845345304e-05
287 1 18.075106229508197 21.49314885245902 5.310175620879839e-05
288 1 20.879572459016398 21.55000262295082 4.5211100568167595e-05
289 1 23.36907081967213 20.84978229508197 1.627974520853337e-06
290 1 24.782790819672133 20.295028852459016 1.8297438395508214e-05
291 1 28.764372459016396 21.836442622950823 4.548379847502738e-05
292 1 31.34874491803279 21.614682622950824 9.843593879067514e-05
293 1 35.2124786885246 21.466994098360658 1.468909723095524e-05
294 1 36.646092459016394 20.9333462295082 8.903090043353458e-05
295 1 39.596126557377055 21.06932065573771 9.255434434035707e-05
296 1 42.3523731147541 22.16797180327869 6.750118501935406e-05
297 1 44.73205180327869 22.08188327868853 2.1238957645414305e-05
298 1 46.592371803278695 21.05508196721312 7.325842810954805e-05
299 1 49.994156065573776 20.928196065573772 1.6536865067834483e-05
300 1 53.205737704918036 22.987908196721314 9.423848295167785e-05
301 1 56.83609836065574 21.924954754098366 3.102209817890711e-06
302 1 58.35489180327869 21.90804 9.326207732473136e-05
303 1 61.385409836065584 21.692339016393444 8.407089011413791e-05
304 1 63.898891803278694 21.099767213114756 1.929394325101069e-05
305 1 66.71179016393442 20.692298360655737 1.7914020581315672e-05
306 1 69.50146229508198 21.68330098360656 3.689977365072228e-06
307 1 72.51178360655737 21.971962622950823 2.202571425954373e-05
308 1 74.4203737704918 21.034531803278693 8.677685206515873e-05
309 1 77.87300327868854 21.049123934426234 6.603317982814338e-05
310 1 80.5879475409836 20.680432786885248 2.7333837190377242e-05
311 1 1.2265266885245902 24.068180327868852 2.3466985275355967e-05
312 1 3.3040977704918033 24.596779016393445 1.2128015485829692e-05
313 1 5.920113442622951 23.998552131147544 9.195703003357551e-05
314 1 7.436079344262295 22.67804 5.3366097318241373e-05
315 1 10.129059672131149 25.369455081967217 5.821281750302988e-05
316 1 12.954025573770492 24.488474098360655 6.605589245001498e-06
317 1 14.712958032786887 23.37073704918033 9.04537723076936e-05
318 1 19.300390819672135 23.589669508196724 8.998934275385203e-05
319 1 22.07486491803279 24.30624918032787 4.084258220328712e-05
320 1 24.347652459016395 24.16729573770492 4.362300414359419e-05
321 1 26.326577704918037 22.79432262295082 2.8026695002439028e-05
322 1 29.99536262295082 24.058637377049184 4.258739843433935e-05
323 1 32.61442295081968 24.11367344262295 3.153692013624514e-05
324 1 35.288216393442625 24.852822950819675 2.1127617873507454e-05
325 1 37.565144262295085 22.94443475409836 3.366408253896252e-05
326 1 40.032931147540985 22.543378360655737 1.8978627756740487e-05
327 1 43.455518032786884 24.55891016393443 8.434474289598238e-06
328 1 46.310880000000004 24.03404786885246 1.6775038065009354e-05
329 1 49.06510688524591 23.682725901639348 7.837274211778112e-06
330 1 51.91516721311476 23.8392 4.673448426391711e-05
331 1 54.358465573770495 24.717000000000002 8.552867025107468e-05
332 1 57.61316721311476 24.103524590163936 2.4290998381451292e-05
333 1 58.95120000000001 23.302825573770495 8.104093206971958e-05
334 1 62.518950819672135 23.724028196721314 6.633462194455841e-05
335 1 65.97814426229509 22.850015081967214 7.019098091848364e-06
336 1 67.48986885245903 22.98457573770492 8.680560289199682e-05
337 1 69.85036065573772 23.22829967213115 5.772734965117558e-05
338 1 73.53626229508197 23.931095081967214 9.475623609376079e-05
339 1 76.38349508196723 23.61945967213115 8.177999363343092e-05
340 1 79.04744262295083 23.032189508196723 4.836171336070705e-05
341 1 81.63413770491805 23.272782950819675 7.541578016895144e-05
342 1 82.59348196721312 26.081086557377052 5.882888540538502e-05
343 1 2.396593442622951 26.84533049180328 3.496581588417881e-05
344 1 5.906834098360656 25.91567540983607 5.48576744258426e-05
345 1 7.407349508196722 25.778590163934428 1.8441801973362483e-05
346 1 9.672613770491804 26.852550819672135 4.564585768188189e-05
347 1 12.18569180327869 26.69693508196722 3.620532637514489e-05
348 1 14.793896393442624 26.3757062295082 2.3000286372926838e-06
349 1 18.43127540983607 25.458219672131147 2.9751125728365036e-05
350 1 19.933204590163935 25.78732524590164 7.070919455520207e-05
351 1 22.675969836065576 26.609129836065577 3.515945742922051e-05
352 1 26.019335081967213 25.873817704918036 6.317229832375731e-05
353 1 28.49121180327869 25.964601967213117 3.2439596396130367e-06
354 1 30.626661639344267 25.45513967213115 3.6419860342049574e-05
355 1 34.52932459016394 26.177576393442624 4.913124204039331e-05
356 1 37.26572786885246 25.60580721311476 7.478818330547451e-05
357 1 39.575929836065576 26.314358688524596 6.892006063058253e-05
358 1 41.10037836065574 27.557517377049184 7.670019600610671e-05
359 1 45.20107016393443 26.298453770491808 5.2062717879457354e-05
360 1 47.70824065573771 26.04735803278689 4.686674368760279e-05
361 1 50.089939016393444 25.839937704918032 9.470196748505987e-05
362 1 52.44028196721312 26.45048459016394 1.0893150392653228e-05
363 1 54.842177049180336 26.889157377049184 9.974337371983033e-05
364 1 57.03907540983607 27.09329573770492 4.538787190294375e-05
365 1 60.55885901639345 25.879725245901643 9.82217438140229e-05
366 1 64.13569836065575 25.933095081967213 5.1559147924423955e-06
367 1 66.57647213114754 25.18707868852459 8.288281238709811e-05
368 1 68.64461639344263 26.942931147540985 5.573475809309492e-06
369 1 71.39036065573771 25.88023016393443 2.7356298773526268e-05
370 1 74.01542950819673 25.378695081967216 4.575286546737314e-05
371 1 78.49758688524591 25.3808662295082 4.7231755134284884e-05
372 1 80.0189049180328 25.429641311475415 7.882712094823897e-05
373 1 1.175984393442623 28.747861639344265 4.648646980208817e-05
374 1 4.668482229508197 28.880251147540985 5.881757486806001e-05
375 1 6.035537704918033 28.180384262295085 6.11004006713664e-05
376 1 8.907814426229509 29.57850229508197 8.284083330944623e-05
377 1 11.478554098360657 29.04919672131148 8.252257757294208e-05
378 1 13.733669508196723 28.800221639344265 1.5649045251556515e-05
379 1 15.620093770491804 27.669053770491807 9.100358784772327e-05
380 1 19.106855737704922 28.275662295081972 5.922494030423551e-05
381 1 21.49612786885246 28.181646557377054 8.16514952027419e-05
382 1 23.740135081967217 27.691724590163936 1.9262728230337946e-05
383 1 27.255273442622954 28.369072131147544 3.10180738159731e-05
384 1 30.24448918032787 28.226129836065578 9.959955312710118e-05
385 1 33.08823803278688 28.278691803278694 4.024818340266386e-05
386 1 35.350220327868854 27.44870754098361 6.272142577744177e-05
387 1 38.9985055737705 27.72969442622951 7.987561896327034e-05
388 1 42.59609704918033 27.732976393442627 1.9436235410305427e-05
389 1 44.29413639344262 28.742055081967216 3.603326328563112e-05
390 1 46.593381639344265 28.55210491803279 8.29546443457966e-05
391 1 49.12100131147542 28.41820065573771 4.776771629838695e-06
392 1 51.299672131147545 28.511509508196724 5.8906010140609714e-05
393 1 53.64905573770492 30.095235409836068 2.1283439608596334e-05
394 1 56.292806557377055 30.030353442622957 6.737866512272422e-05
395 1 58.26350163934426 27.987354098360658 8.613630435904265e-05
396 1 61.41974426229509 27.144847868852462 2.858374136700699e-05
397 1 65.34043278688524 27.816136393442626 4.537127292469447e-05
398 1 67.67870819672132 28.17902098360656 8.13447680884815e-05
399 1 70.74961967213116 28.323528524590166 8.804167194494298e-05
400 1 73.24441967213116 28.010933770491807 1.6903407864748645e-05
401 1 75.5912786885246 27.85375278688525 4.2524998999614486e-05
402 1 78.28299672131148 27.98114360655738 3.553885775035324e-05
403 1 81.11659672131148 27.997099016393445 1.9840907433650634e-05
404 1 81.79167213114755 30.32775016393443 7.211998918274039e-05
405 1 1.7234114754098362 31.117088524590166 7.933330901780834e-05
406 1 4.794449180327869 31.411405245901644 2.876741521492591e-05
407 1 8.819958688524592 31.119360655737708 8.714469233698794e-05
408 1 10.298156721311477 31.55510491803279 9.422364527623403e-05
409 1 12.861474098360658 31.442205245901643 9.885711937479086e-05
410 1 15.407775737704918 30.664782950819674 5.0262258400939366e-05
411 1 18.11888262295082 30.72310098360656 8.817852136965956e-05
412 1 20.99888459016394 30.54178491803279 1.896221066427477e-05
413 1 24.040813770491805 30.92673442622951 8.298350686913076e-05
414 1 25.340169836065577 30.079380983606562 4.798632474298803e-05
415 1 27.990535081967217 29.727554098360656 3.877585525712051e-05
416 1 32.01710491803279 31.411657704918035 8.522958071919733e-05
417 1 35.68008327868853 29.816823606557378 2.3525833973853096e-05
418 1 37.226344262295086 29.865194754098365 1.4040556119182235e-05
419 1 39.66368459016394 30.22146491803279 8.751167566181825e-05
420 1 42.33081311475411 30.626611147540984 6.878012751871457e-05
421 1 45.03591147540984 31.0727062295082 1.9772516356004002e-05
422 1 47.86299803278689 30.843574426229512 3.99858257665049e-05
423 1 50.404603934426234 31.039028196721315 5.900284231565909e-05
424 1 52.88460983606558 31.430895081967215 5.056789432763e-05
425 1 55.609652459016395 31.38656327868853 2.4984479492020897e-05
426 1 58.01407213114754 30.957231475409838 5.01610519313102e-05
427 1 60.193803278688534 29.72831147540984 7.036781052589987e-05
428 1 62.67345573770493 29.65504786885246 2.524998623714423e-05
429 1 65.78526557377049 30.405002622950825 7.325487838724391e-05
430 1 68.24371147540984 29.588600655737707 9.850602358190952e-05
431 1 71.89982295081968 30.580865573770495 6.848242442900259e-05
432 1 74.9868918032787 30.475287213114758 7.016477592379556e-06
433 1 76.45670819672132 30.069989508196723 9.925697866959334e-05
434 1 80.31226229508198 29.965118032786886 6.783856643205951e-05
435 1 0.2536496131147541 32.8830393442623 4.916353675351343e-05
436 1 2.622120131147541 32.34631147540984 2.376276149429766e-05
437 1 6.250380327868853 33.63950754098361 5.345802937280309e-05
438 1 9.149417704918033 34.44868918032787 8.057559622893931e-05
439 1 12.07900262295082 33.82592327868853 6.371339508447566e-05
440 1 14.799400000000002 33.24844852459017 6.301469307315379e-05
441 1 17.80861049180328 33.314289836065576 5.4751197744533934e-05
442 1 20.496188196721313 33.498433442622954 5.1118642231336555e-06
443 1 23.438446557377052 33.43289508196722 3.0115714457764166e-05
444 1 27.436690491803283 33.137013114754104 8.077669889584128e-06
445 1 26.206962622950822 32.16050163934426 1.0972947116102606e-05
446 1 31.88279672131148 32.95226360655738 2.6027503476774896e-05
447 1 34.221476065573775 32.88834098360656 1.7590249356985722e-07
448 1 35.712902950819675 32.58857114754098 8.767615605833268e-06
449 1 38.32827737704918 32.555196065573774 2.764742417428279e-06
450 1 41.0320124590164 32.64492 3.3606837897870035e-05
451 1 43.79770098360656 33.60628393442624 2.7914807745928782e-05
452 1 46.761569836065576 33.00628983606558 2.711329063649144e-05
453 1 49.30363016393443 33.28525704918033 6.60962411569848e-05
454 1 51.30219672131148 34.99142557377049 5.490798439180151e-05
455 1 54.9396262295082 33.42617967213115 3.166713683893977e-05
456 1 56.283213114754105 32.73979409836066 6.002793905889712e-05
457 1 59.85853770491804 32.5589324590164 2.8807300407954328e-05
458 1 62.04735737704918 31.948335081967215 5.710600648397507e-05
459 1 64.31140983606558 33.039614426229505 8.21247169827074e-06
460 1 67.1288524590164 32.26956393442623 3.4269035511560164e-05
461 1 69.73220983606558 32.20180393442623 6.222992933993762e-05