# input file

2232 atoms
1 atom types

0.0 82.68810555352132 xlo xhi
0.0 83.16 ylo yhi
-10.0 10.0 zlo zhi
0.0 0.0 0.0 xy xz yz

Masses

1 12.0100 #C

Atoms

1 1 1.6197518032786886 1.2342923278688525 3.26540157312459e-05
2 1 4.32889455737705 1.2362716065573771 8.873129790972102e-05
3 1 7.030832131147542 1.121362360655738 3.191487146068757e-05
4 1 9.731184262295082 1.0129413114754098 7.672072050166515e-05
5 1 12.439463606557378 0.9722752131147542 2.167321127879244e-05
6 1 15.044083278688527 0.8546343606557378 2.1463281530457324e-05
7 1 17.655569836065574 1.8413956721311477 7.618149388809193e-05
8 1 20.377280000000003 0.522256918032787 2.0296842174125207e-05
9 1 23.28237639344262 0.42222912131147544 9.276380225870084e-05
10 1 26.78984 0.14949108196721314 9.18860004784345e-05
11 1 28.326305573770494 0.2642367344262295 5.647150592841278e-05
12 1 30.846704918032792 0.2925207278688525 2.8194723786247602e-05
13 1 33.56457770491804 0.12577003278688526 5.340634715881669e-05
14 1 36.20610688524591 0.13693074098360655 9.612700661632792e-05
15 1 38.83157967213115 0.23662832131147543 7.128158156957693e-05
16 1 41.52688262295082 0.3425974885245902 8.179041560207459e-05
17 1 44.30085180327869 0.6207563278688525 9.134333712197737e-05
18 1 46.85402032786885 0.8848133114754099 4.067794131552668e-05
19 1 49.3825993442623 0.8447076721311476 9.702548115711173e-05
20 1 51.835390163934434 1.07338 7.477736318054626e-05
21 1 54.229206557377054 0.9150074098360657 9.774891210450953e-05
22 1 56.7840918032787 0.6396705573770493 3.8582511856298365e-05
23 1 59.46419672131148 0.6765447213114755 3.489137528832015e-05
24 1 62.784537704918044 0.7418255737704919 6.543490845427917e-05
25 1 65.54997377049182 0.7849910163934426 9.729992420539816e-05
26 1 68.1715081967213 0.9879276721311476 6.143570152203259e-05
27 1 70.88493770491804 1.0609590163934426 6.199557988707791e-05
28 1 73.666531147541 1.2553575081967214 2.2095579075880645e-05
29 1 76.40823606557377 1.4609601311475413 3.5048263356583964e-05
30 1 79.00200000000001 1.0264983606557379 4.680937344336389e-06
31 1 81.67857049180328 1.1051241967213117 3.7685123317347994e-05
32 1 0.18671363934426233 3.510871803278689 5.352656442857079e-05
33 1 3.0081855081967217 3.5102255081967217 4.5371938483715426e-05
34 1 5.722993442622951 3.4671055081967217 1.885582630872187e-05
35 1 8.459901639344263 3.353781704918033 1.8142996937345014e-05
36 1 11.260580983606559 3.2680062295081966 4.042334695478378e-05
37 1 14.068935081967215 3.2507228852459016 5.1123763338710165e-05
38 1 16.90733180327869 3.200912721311476 2.1227101433922746e-05
39 1 19.425206557377052 3.0625651803278693 3.853887974819826e-06
40 1 21.88350098360656 2.53877331147541 7.641512094131653e-06
41 1 24.50806491803279 2.8093235409836073 7.310701963082934e-05
42 1 26.924905573770495 2.828904262295082 1.6358736291150955e-05
43 1 29.57380655737705 2.7337221639344262 1.0869218572888018e-05
44 1 32.20347016393443 2.446898426229508 7.411668960672678e-05
45 1 34.85297704918033 2.4539470819672133 2.45891024846869e-05
46 1 37.3862518032787 2.534324983606558 7.681903953945992e-05
47 1 40.01808655737705 2.579818098360656 4.913202972510522e-05
48 1 42.67456131147541 2.689289377049181 5.566289989339185e-05
49 1 45.32947081967213 3.09378931147541 7.366473528062793e-05
50 1 48.05390754098361 3.2688696393442624 1.4648852559235648e-05
51 1 50.59935081967213 3.4250256393442626 2.7574710059018816e-05
52 1 53.21381639344263 3.471468 1.6532573418012776e-05
53 1 55.88483278688525 3.1472853770491804 9.561742366663395e-05
54 1 58.38316721311476 2.861395737704918 8.714290171681981e-05
55 1 60.443232786885254 1.88365731147541 8.358110878730707e-06
56 1 63.987252459016396 2.9532201311475412 9.43870393496419e-05
57 1 66.51891147540984 3.219306885245902 5.101307169239511e-05
58 1 69.60699016393444 3.297407606557377 1.986860860913534e-05
59 1 72.31688524590164 3.3392097704918036 8.740878322547564e-06
60 1 74.93488524590164 3.5949255081967215 5.275201253898132e-06
61 1 78.61876721311475 3.368353639344263 7.061488723257972e-05
62 1 80.16735081967214 3.33604393442623 5.6194510361732264e-05
63 1 1.71980131147541 5.680580327868853 1.2322138745589673e-05
64 1 4.422496262295082 5.7793422950819675 2.4944202430687956e-06
65 1 7.120556065573771 5.673864918032788 1.287321072292994e-05
66 1 9.916994098360655 5.50436393442623 5.494715360062696e-05
67 1 12.731710163934427 5.461092459016394 3.289820624565815e-05
68 1 15.543548196721314 5.4331704918032795 6.832557594174664e-05
69 1 18.337007213114756 5.524560655737705 9.015430661046624e-05
70 1 21.527988196721314 5.008463737704918 4.87874070993401e-05
71 1 23.047135081967216 4.933695475409837 9.518781483550327e-05
72 1 25.611613770491804 5.271293770491804 8.132267706098514e-05
73 1 28.219515409836067 5.1532439344262295 1.344197561649253e-05
74 1 31.735865573770493 4.72396262295082 3.634895752457669e-05
75 1 33.27945049180328 4.726052983606558 2.8101100272043114e-05
76 1 35.86942754098361 4.896397180327869 8.332615725068465e-05
77 1 38.517975081967215 4.889883737704919 5.85887850620713e-05
78 1 41.18424524590164 4.9477372459016395 9.052082620501136e-05
79 1 43.819008524590174 5.16440262295082 3.2599703455153765e-05
80 1 46.398281311475415 5.392373114754099 3.028256331851903e-05
81 1 49.053039344262295 5.7435436065573775 2.5368629103457674e-05
82 1 52.06714754098361 5.805648524590165 1.7282039151394835e-05
83 1 54.81945573770492 5.580354098360656 3.3130706021414424e-05
84 1 58.30591475409837 5.006999475409837 7.688946599168845e-05
85 1 59.850459016393444 4.843002098360656 8.438365852813612e-05
86 1 62.46542950819673 5.0865442622950825 6.0818709359809004e-05
87 1 65.11624918032787 5.461546885245903 5.7483595340141793e-05
88 1 67.22327213114755 4.581883737704919 9.32575117662769e-05
89 1 70.79051803278689 5.534860983606558 5.34066443595061e-05
90 1 73.20251147540985 5.754904262295082 9.746427148703777e-05
91 1 75.63975081967214 5.946116721311476 5.364810702115317e-05
92 1 78.17696393442623 6.06684262295082 1.4016636625716151e-05
93 1 81.53062950819674 5.731829508196722 4.491299640710365e-05
94 1 0.1407524655737705 7.757358688524591 3.152049557367147e-05
95 1 2.854008786885246 8.011938360655739 7.076923069738941e-05
96 1 5.926475409836066 8.032539016393443 5.029548418627632e-05
97 1 8.638996065573771 7.777605901639346 7.635990812347338e-05
98 1 11.237203278688526 7.662383606557378 6.088118400530254e-05
99 1 14.048536393442625 7.64960918032787 2.464930632045974e-05
100 1 17.547365901639346 7.563419672131149 9.556510883611641e-05
101 1 19.05868655737705 7.843043278688525 9.939317435648292e-05
102 1 22.31848786885246 7.484500983606558 2.75149374187343e-05
103 1 23.867525901639347 7.4031586885245915 9.8205273124657e-06
104 1 26.515164590163938 7.527520000000001 4.9122829889638124e-05
105 1 29.172093770491806 7.597653114754099 6.690655730284088e-05
106 1 31.76096 7.40628918032787 8.878885835517931e-05
107 1 34.50428065573771 7.210885901639345 6.387214443247325e-05
108 1 37.14762754098361 7.229062950819673 1.9751449709817127e-06
109 1 39.77693770491803 7.221994098360656 2.80669787964131e-05
110 1 42.48935737704918 7.365794754098362 5.884975589017223e-05
111 1 45.03570950819673 7.632441967213115 2.5267689596916754e-05
112 1 47.55888590163935 7.819362622950821 2.90299351380801e-05
113 1 49.73068983606558 7.127220983606558 5.3121095713069e-05
114 1 53.33550163934427 7.876519344262296 3.969794563701822e-05
115 1 55.86261639344263 7.958669508196722 1.828540225972801e-05
116 1 58.37458360655738 7.7149960655737715 9.835527956759556e-05
117 1 61.09558688524591 7.375388196721313 4.349349125452292e-05
118 1 63.80952131147542 7.62072786885246 1.593838245179553e-05
119 1 67.35808524590165 7.323179672131149 6.931711406837806e-05
120 1 68.90515409836065 7.451630819672133 7.2452673151562674e-06
121 1 71.52416393442624 8.05884524590164 5.162017738875924e-07
122 1 74.20729836065574 8.279696393442624 1.298298682432013e-05
123 1 76.8616524590164 8.34796131147541 5.156911624649603e-05
124 1 79.13226885245903 7.2693049180327876 1.4493045943879769e-05
125 1 1.2815021639344264 10.07700262295082 3.592963011896281e-05
126 1 3.580908983606558 9.365623606557378 3.3543904566189165e-06
127 1 7.261680655737705 10.131129836065575 7.270701116889112e-06
128 1 9.81944393442623 10.081597377049182 8.861988912825247e-05
129 1 12.405432131147542 9.786018360655738 9.858227254705117e-05
130 1 14.961781639344265 10.155921311475412 1.9167157530354973e-05
131 1 17.334845901639348 10.27260786885246 7.5057213430996255e-06
132 1 19.932144262295083 10.43084918032787 4.303908333509281e-05
133 1 22.43603278688525 10.227619672131148 4.074473978695376e-05
134 1 25.111997377049182 9.834036065573772 1.0843116374469564e-05
135 1 27.822498360655743 9.867916065573771 3.377302306860668e-05
136 1 30.59050950819672 9.841155409836066 8.452043563609981e-05
137 1 33.32403475409837 9.570216393442625 9.992425563050228e-05
138 1 35.98576065573771 9.569560000000001 4.843244115663015e-06
139 1 38.57881770491804 9.566076065573771 8.478812837317796e-05
140 1 41.22468918032787 9.523107540983608 8.403522470548486e-05
141 1 43.74912786885246 9.87569180327869 2.6463769053888887e-05
142 1 46.31688852459017 10.120980983606557 5.6767311986851576e-05
143 1 49.013958688524596 10.005152786885247 1.4806295154078387e-05
144 1 51.70815081967214 10.030550163934427 8.342020217214342e-05
145 1 54.39280000000001 10.286796065573771 1.6991263309623275e-05
146 1 57.09310163934427 10.21403737704918 8.550269131157508e-05
147 1 59.73079344262296 9.807477377049182 3.6125365500629946e-06
148 1 62.37201967213115 9.799095737704919 6.691742860799303e-05
149 1 64.92488524590165 10.10931737704918 1.0068744231342897e-05
150 1 67.32779016393442 10.055190163934427 1.3794192468247813e-05
151 1 70.03112131147542 10.075083934426232 6.16309119169364e-05
152 1 72.83644590163935 10.44730950819672 2.917878875562503e-05
153 1 75.64278032786886 10.598380983606559 9.311775894296914e-05
154 1 78.45062950819673 10.151982950819674 8.423554268273298e-05
155 1 81.25999344262297 9.872712786885247 6.564946075148972e-05
156 1 0.07957457704918033 12.216643278688526 5.4667647634170695e-05
157 1 2.8046833442622954 12.174028196721313 5.855717510811991e-05
158 1 5.53364918032787 12.222096393442623 5.82140872875358e-05
159 1 8.20436262295082 12.45870098360656 8.460374569744245e-08
160 1 11.822504262295084 12.129898360655739 8.235786182011737e-05
161 1 13.347407213114755 12.26269180327869 9.355945746072307e-05
162 1 16.01801967213115 12.68768131147541 5.796653258312111e-05
163 1 18.69105573770492 12.694750163934428 6.314769664218327e-05
164 1 21.31294360655738 12.727923278688525 4.693937025099393e-06
165 1 23.91660393442623 12.325806557377051 1.8320388453481584e-05
166 1 26.543440000000004 12.132725901639345 6.153249446139557e-05
167 1 29.267220327868856 12.065521311475411 3.932889662421269e-05
168 1 32.05603409836066 11.941715409836068 9.55476112625142e-07
169 1 34.81763278688525 11.898191475409837 1.929824539834941e-05
170 1 37.57761573770492 11.9342931147541 8.233642591290532e-05
171 1 40.48230819672132 11.749644590163935 6.802898712119126e-05
172 1 42.03876852459017 12.036539016393444 8.667092461001988e-05
173 1 44.78956196721312 12.36928 1.8771536731537498e-05
174 1 47.58761573770492 12.36049442622951 4.122905703621164e-05
175 1 50.32376655737705 12.330401311475411 7.3944281317516405e-06
176 1 53.00932459016394 12.446481967213117 6.915835019426865e-05
177 1 55.707606557377055 12.513838032786886 9.371840417021043e-05
178 1 58.37559344262296 12.302378360655739 6.510478647419304e-05
179 1 61.0304524590164 12.132776393442624 8.274648492051583e-05
180 1 63.7524655737705 12.323534426229509 5.119909730774465e-05
181 1 66.27554098360656 12.569782950819674 1.3075017448092287e-05
182 1 68.77438032786885 12.392102295081969 9.540075223430946e-05
183 1 71.35350163934427 12.434414426229509 4.206869234361134e-05
184 1 74.11186885245903 12.71585573770492 6.33203206820054e-05
185 1 77.3584918032787 12.520654426229509 8.788502673569721e-05
186 1 80.11080000000001 12.158931147540985 8.468923261467133e-05
187 1 1.3532207213114755 14.465548196721313 5.4091318772528435e-05
188 1 4.018940524590165 14.476353442622953 4.1994045959256466e-05
189 1 6.624979016393444 14.651711475409838 4.4156918827333014e-05
190 1 9.10261180327869 14.888518032786886 9.053364564628747e-05
191 1 11.746261639344263 14.688671475409837 8.455531137605723e-05
192 1 14.557645245901641 14.723561311475411 8.46763012869045e-05
193 1 17.35090229508197 14.979706229508198 7.160731852988938e-05
194 1 20.046407213114758 15.058372459016395 5.2093512447041274e-05
195 1 22.713434754098362 14.864837377049183 7.884794541392319e-05
196 1 25.38207803278689 14.568904918032787 7.448053521557992e-05
197 1 27.940851147540986 14.358101639344262 8.441263996958968e-05
198 1 30.672861639344262 14.194558688524593 5.277834990619249e-05
199 1 33.35589508196721 14.152145573770493 7.4196461806248396e-06
200 1 35.948245245901646 14.184561311475411 6.969544899584567e-05
201 1 38.55862098360656 14.911744262295084 7.64518092264181e-05
202 1 40.85387737704919 14.818940327868853 1.9534412313980545e-05
203 1 43.51933967213115 14.512859016393444 8.333759594444548e-05
204 1 46.23039606557377 14.59733180327869 5.30066298083152e-05
205 1 49.002042622950825 14.618689836065576 4.059513324052519e-05
206 1 51.725822950819676 14.695083934426231 2.7630696733856452e-05
207 1 54.41501639344263 14.76945836065574 6.030979195845895e-05
208 1 57.068865573770495 14.709777049180328 5.2823982336299516e-05
209 1 59.678281967213124 14.5177062295082 8.590017636771378e-05
210 1 62.40786885245902 14.451259016393443 5.989904728483182e-05
211 1 65.05616393442624 14.870946885245903 9.893138471966763e-05
212 1 67.67466885245902 14.932647868852461 9.457452869238666e-05
213 1 70.20885245901641 14.796673442622952 4.8234775864626024e-05
214 1 72.89451147540984 14.73790098360656 3.7698429414237435e-05
215 1 75.0136524590164 13.962750819672133 8.844935327783017e-05
216 1 78.83891147540984 14.501952786885246 2.3486321823262604e-05
217 1 81.43772459016394 14.494076065573772 6.711778539697227e-05
218 1 82.53087213114755 16.82932196721312 2.1372611567865385e-05
219 1 2.4945778360655737 16.77650754098361 8.63669843042967e-05
220 1 5.242715409836066 16.926266229508197 9.040931065349235e-05
221 1 7.893181639344263 17.20387016393443 1.6080001958190448e-05
222 1 10.531630819672133 17.049617704918035 3.003817135752448e-05
223 1 13.224762622950822 16.85840524590164 6.41359641207964e-05
224 1 15.78585836065574 17.01124393442623 5.9346652109454425e-05
225 1 18.51044655737705 17.301470819672133 2.7784725680383427e-05
226 1 21.584185573770494 17.278396065573773 7.734418298126156e-05
227 1 24.336241311475412 16.99321836065574 2.012314313642979e-05
228 1 26.85184393442623 16.854365901639348 4.0878143513751444e-05
229 1 29.331344918032787 16.49925704918033 7.954230807064634e-05
230 1 31.945659016393446 16.4526531147541 1.33386685245104e-05
231 1 34.405518688524594 16.528087868852463 3.25438615490681e-05
232 1 36.95636459016394 16.766207213114757 6.016231318357278e-05
233 1 39.71796327868853 17.364636065573773 1.8382767737075147e-07
234 1 42.41220590163935 16.990138360655738 9.924440134532481e-05
235 1 44.9682524590164 16.873805245901643 2.1279542525278595e-05
236 1 47.722378360655746 16.843308196721313 2.441598280884383e-05
237 1 50.468021639344265 16.93086098360656 1.909773549970748e-05
238 1 53.20068852459017 17.034924590163936 2.629431317320108e-06
239 1 55.8903868852459 17.069662950819676 7.247206698010647e-05
240 1 58.5588786885246 16.9561068852459 8.290099428850993e-05
241 1 61.335927868852465 16.671636065573775 7.261500569483436e-05
242 1 63.74287213114755 18.01840393442623 5.353557595331884e-05
243 1 66.55375081967215 17.2825868852459 5.470503635014987e-05
244 1 69.27273442622952 17.28435409836066 3.9904720042489916e-05
245 1 71.95586885245902 16.994985573770496 4.7458904652429335e-05
246 1 74.68040655737705 16.841692459016397 3.312476669744112e-05
247 1 77.31102950819674 16.605239344262298 7.165450295126335e-05
248 1 79.97497704918034 16.829372459016394 4.947548319467847e-05
249 1 0.9207079344262296 19.106653770491803 7.310931022710184e-05
250 1 3.617783147540984 19.05954491803279 3.0473516909077727e-05
251 1 6.371257704918033 19.384712131147545 8.000656726521743e-05
252 1 10.214239344262296 19.12912262295082 4.9669576043507716e-05
253 1 11.75146229508197 19.16810229508197 5.805820319889303e-05
254 1 14.35673836065574 19.298775081967218 2.5696218540526617e-05
255 1 17.059312131147543 19.351135081967215 1.5219776041939359e-06
256 1 19.299380983606557 18.619407868852463 6.62317747729292e-05
257 1 22.951251147540983 19.308419016393444 7.291501391011583e-05
258 1 25.699570491803282 19.351791475409836 9.918349750466121e-05
259 1 28.834000655737707 18.963206557377053 9.706315417731663e-05
260 1 30.351784262295084 18.758310819672136 8.416426055135828e-06
261 1 32.828508196721316 18.918521311475413 2.2171453807287235e-05
262 1 35.34855409836066 18.999611147540985 6.824980276857696e-05
263 1 38.03527344262295 19.154166557377053 2.3131709456930096e-05
264 1 40.86387475409837 19.392487868852463 2.7304714408159503e-05
265 1 43.87308524590164 19.363455081967214 5.926709392007101e-05
266 1 46.52042098360656 19.097969180327873 1.8506554326826308e-05
267 1 49.16609049180328 19.138918032786886 2.876389299862823e-05
268 1 51.92829508196722 19.24939409836066 2.4588660136412977e-05
269 1 54.67959344262295 19.36719147540984 1.0374173628050432e-05
270 1 57.37131147540984 19.34896393442623 6.0656996853294656e-05
271 1 60.17057704918033 18.99481442622951 9.729619869192324e-05
272 1 62.96378360655738 19.341238688524594 4.7858779732552215e-05
273 1 65.37123278688524 19.691904262295083 4.2121840641097564e-05
274 1 67.97560000000001 19.607229508196724 8.443696621214877e-05
275 1 71.633731147541 19.16280065573771 7.511439487939481e-05
276 1 73.2004918032787 19.17496918032787 7.53571489439087e-05
277 1 76.80207213114755 18.90317180327869 6.777481741102989e-05
278 1 78.35520000000001 18.987695081967214 7.705901236764731e-05
279 1 80.96562622950822 19.20940459016394 3.478123892362716e-05
280 1 82.27992786885247 21.502792786885248 9.6735013750739e-05
281 1 2.237816918032787 21.346217704918036 4.132184820685807e-05
282 1 4.968494426229508 21.382672786885248 4.942362441014347e-05
283 1 7.057239344262296 20.767480655737707 7.45226144718442e-05
284 1 10.566318688524591 21.92243016393443 7.84156142852902e-05
285 1 13.12852524590164 21.584337049180327 3.4817253389997395e-05
286 1 15.827716065573773 21.56848262295082 9.30214501851211e-06
287 1 18.666466229508195 21.45038229508197 1.446720562250007e-05
288 1 21.376512786885247 21.518344262295084 5.4269278652063316e-05
289 1 24.123317377049183 21.526877377049182 5.4155796533616875e-05
290 1 26.2686131147541 22.950392786885246 2.2369892718492623e-05
291 1 29.666509508196725 21.332332459016396 4.300344178836394e-05
292 1 31.241146885245904 21.262199344262296 9.44374761618986e-05
293 1 33.841020327868854 21.361516721311478 8.920971667019681e-05
294 1 36.60095278688525 21.323950819672135 1.7198894001879718e-05
295 1 39.33266032786886 21.351165901639348 6.529698705380498e-05
296 1 41.65376852459017 20.701134426229512 2.0910668662473022e-05
297 1 45.18097442622952 21.519152131147546 3.6611477595288166e-05
298 1 47.73863672131149 21.445131147540984 5.4216306757346294e-05
299 1 50.46140721311476 21.419986229508197 6.466831460374567e-05
300 1 53.2920786885246 21.57045180327869 2.213143200938048e-05
301 1 55.95299672131148 21.712283278688528 5.543753282367864e-05
302 1 59.70655737704919 21.095172459016396 6.950314398070795e-05
303 1 61.23595409836066 21.301481967213117 5.6438471024617914e-05
304 1 63.74438688524591 21.946868196721315 2.357672564832214e-06
305 1 66.35834754098362 21.982666885245905 1.5919518362723796e-05
306 1 68.94908196721312 22.016950819672132 4.308398997822362e-05
307 1 71.50396721311476 21.804077377049182 1.133314305355887e-05
308 1 74.24668196721312 21.687390819672135 7.252652766546932e-05
309 1 76.85054426229509 21.533643278688526 7.544193437414549e-05
310 1 79.672531147541 21.511376393442628 4.6609077622051135e-05
311 1 1.2702172459016396 23.712768524590167 6.042165190873128e-05
312 1 3.9200624262295087 23.529988196721312 7.189238587894675e-06
313 1 6.591805901639344 23.62986098360656 7.379113380326607e-05
314 1 9.15381049180328 24.160075409836068 1.1614505721679726e-05
315 1 11.836339016393444 24.097415081967217 5.040781779147669e-05
316 1 14.414349508196722 23.841825573770496 7.578464607278227e-05
317 1 17.143532459016395 23.634152786885245 5.995593989571714e-05
318 1 19.78910098360656 23.799866885245905 6.317068077669295e-05
319 1 22.499349508196723 23.81380262295082 7.06495463792466e-05
320 1 25.255192131147542 24.112007213114758 2.7136924494421846e-05
321 1 27.77862098360656 24.614097704918034 9.190982494248431e-05
322 1 30.272360655737707 24.051164590163935 9.478646644891795e-05
323 1 32.90818426229508 23.727411147540987 3.1815670637352644e-05
324 1 35.48205442622952 23.52246491803279 9.115396018255911e-05
325 1 38.161502950819674 23.53251278688525 1.1462899430368845e-05
326 1 40.86488459016394 23.454048524590167 5.6914639541717664e-05
327 1 43.49777967213115 23.716706885245905 4.694555455738341e-05
328 1 46.20944196721312 23.853236721311475 5.155548263815604e-05
329 1 48.88752721311476 23.674142295081968 6.8586322871051e-05
330 1 51.6440262295082 23.623196065573772 3.228906438723167e-06
331 1 54.29888524590165 23.99254360655738 3.838159964731447e-05
332 1 57.84744918032787 23.916048524590167 9.309895054113939e-05
333 1 59.373816393442624 23.772348852459018 2.99455856009041e-05
334 1 62.1735868852459 24.00794360655738 7.882478697889906e-05
335 1 64.90115409836066 24.332252459016395 9.909443803390399e-05
336 1 67.59236721311476 24.358811147540987 5.9142548807383345e-05
337 1 70.37951475409837 24.265401311475415 8.604188234663388e-05
338 1 73.06466885245902 23.986989508196725 4.3916209895147044e-05
339 1 75.77355409836066 23.9524531147541 4.4102824270889566e-05
340 1 78.51778360655739 23.75381836065574 1.3865567926844369e-05
341 1 81.32462295081967 23.907262950819675 3.652481813750174e-05
342 1 0.9401422295081968 25.971165901639345 6.448208975559788e-06
343 1 3.466964131147541 25.693107540983608 6.983163394757442e-05
344 1 5.010286491803279 25.83569639344263 7.089767929404856e-06
345 1 7.703988852459017 26.23538950819672 2.7425492424031407e-05
346 1 10.46089180327869 26.418321311475413 9.346909914315112e-05
347 1 13.263893770491805 26.330112131147544 2.4381600360159196e-05
348 1 15.988633442622953 25.943546885245905 5.978062088973867e-05
349 1 18.230520000000002 27.17726360655738 1.94742851315449e-05
350 1 20.99721836065574 26.126327213114756 9.845646525183995e-05
351 1 23.715495081967216 26.191512131147544 5.764539172170958e-05
352 1 26.364749508196724 26.67143672131148 9.422581287159176e-05
353 1 29.129377704918035 26.652401311475412 1.7509501700369147e-05
354 1 31.832860327868854 26.237106229508196 9.616463043029932e-05
355 1 35.255497704918035 25.7234531147541 9.058003070384547e-06
356 1 36.82730754098361 25.78929442622951 9.178545130220923e-05
357 1 39.640811803278694 25.735419672131147 4.323790884867107e-05
358 1 42.017713442622956 27.012761311475412 3.9101768038067664e-05
359 1 44.85848327868853 26.108756065573772 4.505237813960272e-06
360 1 47.690921967213114 26.064323278688526 5.985003326999185e-05
361 1 50.40005967213115 25.84200786885246 5.121450096349489e-05
362 1 52.54580983606558 27.234723278688527 4.8859821565214325e-05
363 1 55.32740327868853 26.56393967213115 3.786503877359937e-06
364 1 57.88834754098361 26.40993967213115 6.672021864196998e-06
365 1 60.62853770491804 26.11077573770492 2.223954379305676e-05
366 1 63.362668852459024 26.46512721311476 7.954111030455202e-05
367 1 66.48306229508196 26.649220327868854 8.993119135854501e-05
368 1 69.2197180327869 26.481082622950822 8.758766083167208e-05
369 1 71.86245901639344 26.398932459016397 5.943256476177047e-05
370 1 74.49106229508197 26.250234098360657 2.5874926733774664e-05
371 1 77.16510819672132 26.11158360655738 1.3163971994848301e-05
372 1 79.85632131147543 26.07618885245902 8.198736303970524e-05
373 1 0.6519602622950821 28.449505573770494 7.638545003557884e-05
374 1 3.2058912131147546 28.049913442622955 2.7723740910162333e-05
375 1 6.185346885245902 28.322973114754102 9.606901074673941e-05
376 1 9.013796721311476 28.58866098360656 5.050724860890423e-05
377 1 11.834066885245903 28.58366229508197 8.095282777872043e-05
378 1 14.698214426229509 28.41012196721312 7.982792087421437e-05
379 1 17.444665573770493 28.511358032786887 9.927503050236828e-05
380 1 19.882005901639346 28.61254360655738 4.614824767974151e-05
381 1 22.43633573770492 28.42496655737705 2.6964341139517535e-05
382 1 25.104928524590164 28.68247475409836 1.9809813938290356e-05
383 1 27.653653770491804 28.841826885245904 4.032553569913641e-05
384 1 30.32699278688525 28.6395062295082 8.994116565254199e-05
385 1 32.77932918032788 28.76921967213115 8.24074047221812e-05
386 1 35.36925573770492 28.38654229508197 1.436801685057858e-05
387 1 38.37548721311476 28.042945573770496 3.235725953844745e-05
388 1 41.249985573770495 28.3646793442623 5.285462806450961e-05
389 1 43.76503278688525 28.526455081967217 2.2239758374374877e-05
390 1 46.484420327868854 28.268542950819675 9.365430742428474e-05
391 1 49.165787540983615 28.256172459016398 5.3571351407045856e-05
392 1 51.845993442622955 28.596588196721314 3.123577786081584e-05
393 1 54.36553442622951 28.90908196721312 1.481870431773874e-05
394 1 56.968386885245906 28.8134 2.4297228794690287e-05
395 1 59.557606557377056 28.49207016393443 8.36866356163519e-05
396 1 62.10895737704919 28.49131278688525 9.220447745937972e-05
397 1 64.18871475409837 27.78548786885246 2.828288756007075e-05
398 1 67.96348196721313 28.76765442622951 6.208008355688755e-06
399 1 70.57592786885246 28.7603331147541 6.124233684866464e-05
400 1 73.19796721311477 28.660561311475412 3.5663740459727e-05
401 1 75.78617704918034 28.487879344262296 4.078902814041766e-05
402 1 78.39155409836066 28.38936983606558 4.041116118899142e-05
403 1 80.9388655737705 28.556093770491806 8.032391531497865e-05
404 1 82.42736393442624 30.944659016393445 3.616026074547992e-05
405 1 2.1700872131147544 30.600052459016396 3.3678696117231524e-05
406 1 4.809500786885246 30.239187540983608 2.89198025293138e-05
407 1 7.521057049180329 30.68831213114754 5.60199651665533e-05
408 1 10.59636131147541 30.810401311475413 9.337081287181258e-05
409 1 13.400928524590165 30.63600262295082 9.142182236950592e-06
410 1 16.059473442622952 30.736380327868858 2.028431069967274e-06
411 1 18.578862950819673 31.017266229508202 2.987723954930222e-06
412 1 21.12541704918033 30.878110819672134 7.79683968698012e-05
413 1 23.833696393442626 30.803382950819675 6.069880761545756e-05
414 1 26.47517508196722 31.145313442622953 2.2038394434181963e-05
415 1 29.20122754098361 30.987880000000004 7.613469125947314e-05
416 1 31.61372590163935 32.24174295081968 3.841897521758939e-05
417 1 34.125289180327876 30.923048524590165 3.5557706345817874e-05
418 1 36.87633508196722 30.149261639344264 9.367984427300327e-05
419 1 39.7575993442623 30.39500524590164 1.9711049879820765e-05
420 1 42.63487475409836 30.870739016393443 5.9892418236522165e-05
421 1 45.30977901639345 30.631256393442623 9.138935907983759e-07
422 1 47.899301639344266 30.57369573770492 9.813492716078564e-05
423 1 50.491449836065584 30.70467147540984 9.607483112609772e-06
424 1 53.09819016393443 31.111685901639348 3.655858690647377e-05
425 1 55.78940327868853 31.17621442622951 4.737029797240777e-05
426 1 58.47051803278689 30.981669508196724 7.550368651729891e-05
427 1 61.137495081967224 30.85599540983607 8.451982488346716e-05
428 1 63.8140655737705 30.6931593442623 5.141939307473143e-06
429 1 66.49619016393443 30.855742950819675 1.8476318555854232e-05
430 1 69.17881967213116 31.10456655737705 1.9274547029167022e-05
431 1 71.86599344262295 31.052913442622955 1.2375763741894386e-05
432 1 74.54458360655738 30.943952131147544 6.875048573692577e-05
433 1 77.12774426229508 30.786821639344264 1.1865559288567784e-05
434 1 79.83057049180329 30.82716459016394 9.117307322111026e-05
435 1 1.1802812459016394 33.22411147540984 2.302094218032008e-05
436 1 3.693233049180328 32.691725901639344 7.338366110534961e-05
437 1 6.24932 32.66117836065574 8.747099866378554e-05
438 1 8.28020131147541 32.04941967213115 9.628694393866868e-05
439 1 11.916116065573773 32.8598131147541 7.903351434318457e-05
440 1 14.72401573770492 33.00452262295082 8.845797050329423e-05
441 1 17.34630754098361 33.29464852459017 9.79851043964646e-05
442 1 19.99308786885246 33.33473901639344 8.819726744716971e-05
443 1 22.775186229508197 33.03491868852459 6.2045833068353e-05
444 1 25.142191475409838 34.36876065573771 2.6912475584338525e-05
445 1 27.888895081967213 33.34907868852459 3.192372918134684e-05
446 1 30.79399147540984 33.549682622950826 3.4061785609608486e-06
447 1 33.70772196721312 33.587702950819676 7.35710121091532e-05
448 1 35.88033377049181 32.573322622950826 8.486264259308022e-05
449 1 38.43183606557377 32.26476721311476 4.265110246713533e-06
450 1 40.38879737704918 31.8327593442623 2.6167606242919674e-05
451 1 43.94210754098361 33.00512852459017 5.723853681424229e-05
452 1 46.57823409836066 32.96231147540984 5.9708387727629244e-05
453 1 49.217238688524596 32.99982688524591 6.805162361020706e-05
454 1 51.83337049180328 33.21280131147541 6.684616089529567e-05
455 1 54.49984262295083 33.402246557377055 1.9478575882339668e-05
456 1 57.185501639344274 33.3495331147541 7.627838639797632e-05
457 1 59.87570491803279 33.21270032786886 6.046761225071096e-05
458 1 62.60478688524591 33.08919737704918 3.3973910779731074e-05
459 1 65.258131147541 33.10848524590165 5.940853827095228e-05
460 1 67.85744918032788 33.29596131147541 2.0792664047828003e-05
461 1 70.54159344262295 33.38220131147541 7.161705747668723e-05
462 1 73.25603278688526 33.298990819672134 8.551119141957813e-05