ITEM: TIMESTEP
0
ITEM: NUMBER OF ATOMS
2232
ITEM: BOX BOUNDS xy xz yz pp pp pp
0.0 82.68810555352132 0
0.0 83.16 0
-10.0 10.0 0
ITEM: ATOMS id type x y z vx vy vz
1 1 1.8572601967213116 0.0668864918032787 6.33599140377e-05 0.0 0.0 0.0
2 1 3.3090611147540985 0.5631855737704918 4.77581508238e-05 0.0 0.0 0.0
3 1 5.733192786885246 1.1977009180327869 4.21126389548e-05 0.0 0.0 0.0
4 1 8.585727213114755 0.851352393442623 5.24127271763e-05 0.0 0.0 0.0
5 1 11.367270163934428 1.329065442622951 3.70618088645e-05 0.0 0.0 0.0
6 1 15.48058491803279 1.0429081967213116 1.98209324064e-06 0.0 0.0 0.0
7 1 17.02159475409836 0.9879478688524591 8.50709041282e-05 0.0 0.0 0.0
8 1 19.589304918032788 1.1276182950819673 2.77426055022e-05 0.0 0.0 0.0
9 1 22.08784131147541 1.100524393442623 7.18731268814e-05 0.0 0.0 0.0
10 1 25.050397377049183 0.9195617704918033 2.18246727167e-05 0.0 0.0 0.0
11 1 27.920553442622953 0.5277504262295083 2.89674442549e-05 0.0 0.0 0.0
12 1 32.29511278688525 0.9551231475409837 1.78404906006e-06 0.0 0.0 0.0
13 1 31.99276786885246 82.6247868852459 1.88510272061e-05 0.0 0.0 0.0
14 1 35.3022531147541 0.5722034098360655 5.77965335512e-05 0.0 0.0 0.0
15 1 38.28884327868853 0.5369904262295082 7.84502869369e-06 0.0 0.0 0.0
16 1 41.24549180327869 0.7132674098360656 6.51073766899e-05 0.0 0.0 0.0
17 1 44.89498885245902 0.9344568524590166 9.1115100349e-05 0.0 0.0 0.0
18 1 47.862796065573775 82.99236721311476 8.42268681913e-05 0.0 0.0 0.0
19 1 49.44793573770492 1.6060988196721313 5.34690093958e-05 0.0 0.0 0.0
20 1 52.17065573770493 2.0459581639344266 6.38921553457e-05 0.0 0.0 0.0
21 1 54.496813114754104 2.958728786885246 1.8001657465e-05 0.0 0.0 0.0
22 1 56.89416393442624 1.9462873442622952 2.5549582057e-05 0.0 0.0 0.0
23 1 59.63031475409837 1.456506754098361 2.62645955725e-05 0.0 0.0 0.0
24 1 62.4780524590164 1.2294855081967215 6.33699563523e-05 0.0 0.0 0.0
25 1 65.3076131147541 0.9048383606557378 7.69072518145e-05 0.0 0.0 0.0
26 1 68.28713442622951 0.46321988196721314 7.89679465949e-05 0.0 0.0 0.0
27 1 70.90311475409837 0.2503535081967213 9.62794728148e-05 0.0 0.0 0.0
28 1 73.15151475409836 0.6565499672131149 7.27049699844e-05 0.0 0.0 0.0
29 1 75.1257442622951 0.21465883278688527 7.14441007988e-05 0.0 0.0 0.0
30 1 78.71167213114754 83.08022295081967 5.13106845191e-05 0.0 0.0 0.0
31 1 81.08529180327871 83.14990163934428 6.2071202018e-05 0.0 0.0 0.0
32 1 82.21984262295082 2.616167147540984 7.6164824473e-05 0.0 0.0 0.0
33 1 2.019288393442623 3.9352352131147543 1.95076315688e-05 0.0 0.0 0.0
34 1 3.9244956065573775 4.5590059016393445 2.5033977805e-05 0.0 0.0 0.0
35 1 7.785280655737706 3.0616563278688527 2.87680528837e-05 0.0 0.0 0.0
36 1 10.244433442622952 4.355847081967213 7.37694968552e-05 0.0 0.0 0.0
37 1 12.993712131147543 3.5206874098360657 8.41633462406e-05 0.0 0.0 0.0
38 1 15.795956721311477 4.33377206557377 1.55948837929e-05 0.0 0.0 0.0
39 1 18.545992786885247 3.399749442622951 1.91065361118e-05 0.0 0.0 0.0
40 1 21.062453770491803 4.58420131147541 6.7732305798e-05 0.0 0.0 0.0
41 1 23.3764931147541 3.0314925245901643 3.18016453316e-05 0.0 0.0 0.0
42 1 27.483395409836067 2.485903344262295 2.24002382246e-05 0.0 0.0 0.0
43 1 28.98911147540984 2.7285215081967213 7.03259554478e-05 0.0 0.0 0.0
44 1 31.327841311475414 3.0876899016393446 4.43707952403e-05 0.0 0.0 0.0
45 1 34.097973114754105 2.6413524590163937 5.87700323365e-05 0.0 0.0 0.0
46 1 37.03907016393443 2.5823123934426233 4.949732951e-05 0.0 0.0 0.0
47 1 39.79713442622951 2.5954705573770496 1.13937760181e-05 0.0 0.0 0.0
48 1 42.12127213114754 2.018717836065574 2.32138867127e-05 0.0 0.0 0.0
49 1 46.00015344262296 2.940884983606558 4.75965169044e-05 0.0 0.0 0.0
50 1 48.90994557377049 3.0329921311475414 8.51741976979e-05 0.0 0.0 0.0
51 1 52.33576393442623 3.5684375081967215 8.82235850816e-05 0.0 0.0 0.0
52 1 53.69853770491804 4.255711737704919 1.82254563907e-05 0.0 0.0 0.0
53 1 55.846963934426235 4.7403674098360655 2.59828451829e-05 0.0 0.0 0.0
54 1 58.79013114754099 3.744795278688525 6.60566298623e-05 0.0 0.0 0.0
55 1 61.48184918032788 3.289344065573771 8.41113448392e-05 0.0 0.0 0.0
56 1 63.0975868852459 2.6397619672131154 1.22421872137e-05 0.0 0.0 0.0
57 1 66.27251147540984 2.0851549508196725 4.435973858e-05 0.0 0.0 0.0
58 1 69.64990819672133 2.6586004590163936 2.80963441937e-05 0.0 0.0 0.0
59 1 71.91093114754099 2.9435257049180334 1.04088452368e-05 0.0 0.0 0.0
60 1 74.5708393442623 3.071078098360656 7.71642877421e-06 0.0 0.0 0.0
61 1 76.23656393442624 1.2389375737704917 7.26512531041e-05 0.0 0.0 0.0
62 1 80.00981639344263 2.4498673442622954 7.08670436519e-05 0.0 0.0 0.0
63 1 1.4676805901639345 5.415296393442623 1.47188975202e-05 0.0 0.0 0.0
64 1 5.444278688524591 4.636919803278689 4.93685572578e-05 0.0 0.0 0.0
65 1 7.189628852459017 5.854423606557377 7.80655970112e-05 0.0 0.0 0.0
66 1 9.924719344262295 5.8484655737704925 6.14777259238e-05 0.0 0.0 0.0
67 1 12.39477836065574 5.824078032786886 5.11002740861e-05 0.0 0.0 0.0
68 1 14.967638688524591 5.6209495081967225 7.40056416485e-05 0.0 0.0 0.0
69 1 17.491269508196726 5.9381390163934435 9.22341849469e-05 0.0 0.0 0.0
70 1 20.615045901639345 6.058864918032788 9.42809788476e-05 0.0 0.0 0.0
71 1 23.655056393442624 5.483106885245903 5.98159204341e-05 0.0 0.0 0.0
72 1 25.115784262295083 5.047044524590165 3.84647591564e-05 0.0 0.0 0.0
73 1 28.06198098360656 5.382375737704919 9.68563108497e-05 0.0 0.0 0.0
74 1 29.622884590163938 5.373640655737705 1.79011077496e-05 0.0 0.0 0.0
75 1 33.687676721311476 4.7699253114754105 9.71181512461e-05 0.0 0.0 0.0
76 1 36.532081967213124 5.3375895081967215 2.62348777591e-05 0.0 0.0 0.0
77 1 39.236776393442625 4.611088196721313 8.62843421524e-05 0.0 0.0 0.0
78 1 41.470028852459016 6.2651744262295095 5.88164905256e-05 0.0 0.0 0.0
79 1 44.408702295081966 4.827183016393444 8.35203261592e-05 0.0 0.0 0.0
80 1 47.290572459016396 4.960254163934427 4.00467373118e-05 0.0 0.0 0.0
81 1 49.40905704918033 5.818422950819673 8.00371500124e-05 0.0 0.0 0.0
82 1 51.62938360655738 7.391545573770492 1.46870402248e-05 0.0 0.0 0.0
83 1 54.52609836065574 7.089554098360656 8.93510613309e-05 0.0 0.0 0.0
84 1 56.63211147540984 6.04720131147541 1.24585542644e-05 0.0 0.0 0.0
85 1 60.37254426229509 5.61948524590164 5.8542205495e-05 0.0 0.0 0.0
86 1 62.7436393442623 5.69340524590164 4.99944990042e-05 0.0 0.0 0.0
87 1 65.32528524590164 4.918951868852459 3.81333046315e-05 0.0 0.0 0.0
88 1 68.04527868852459 4.86971731147541 8.95268559295e-05 0.0 0.0 0.0
89 1 70.62036065573771 5.323249836065574 6.19057385019e-06 0.0 0.0 0.0
90 1 73.23533114754099 5.23372786885246 2.73536955688e-05 0.0 0.0 0.0
91 1 75.69983606557378 4.113304655737705 2.49310239989e-05 0.0 0.0 0.0
92 1 77.87199344262297 2.5644837377049186 5.19027556739e-05 0.0 0.0 0.0
93 1 80.71771147540984 5.050846557377049 6.2484362298e-05 0.0 0.0 0.0
94 1 81.90881311475411 7.529287213114754 2.81328012529e-05 0.0 0.0 0.0
95 1 2.7590993442622955 7.276575737704919 1.88364411575e-05 0.0 0.0 0.0
96 1 5.29643868852459 7.574931803278689 5.73886104733e-05 0.0 0.0 0.0
97 1 7.664251803278689 7.306012459016394 1.40457103504e-05 0.0 0.0 0.0
98 1 10.924154098360656 8.203857704918034 2.59580209504e-06 0.0 0.0 0.0
99 1 13.504436721311476 8.041425573770493 9.35258721672e-05 0.0 0.0 0.0
100 1 16.10996524590164 8.095603278688525 4.79698369366e-05 0.0 0.0 0.0
101 1 18.11625704918033 7.3423665573770505 6.89728789466e-05 0.0 0.0 0.0
102 1 21.27133836065574 8.294742950819673 1.12766976272e-05 0.0 0.0 0.0
103 1 23.898022950819676 8.437180327868854 6.98840894657e-05 0.0 0.0 0.0
104 1 26.201408524590168 7.785028196721313 6.28060087426e-05 0.0 0.0 0.0
105 1 28.610776393442627 7.314798032786886 5.15872892148e-05 0.0 0.0 0.0
106 1 32.01296459016394 7.253601967213116 6.38596633052e-06 0.0 0.0 0.0
107 1 35.86341901639344 6.696374426229509 3.44764899241e-06 0.0 0.0 0.0
108 1 38.23663475409836 7.100157377049181 3.52206765418e-05 0.0 0.0 0.0
109 1 40.66832 7.578819672131148 3.14764444325e-06 0.0 0.0 0.0
110 1 42.78781442622951 7.141257704918034 9.29368531757e-05 0.0 0.0 0.0
111 1 45.56940786885246 6.834318032786887 6.50182749574e-05 0.0 0.0 0.0
112 1 47.821089836065575 8.755834098360657 5.0569225961e-05 0.0 0.0 0.0
113 1 50.813436065573775 8.68948786885246 2.74998275798e-07 0.0 0.0 0.0
114 1 52.95277377049181 10.45821573770492 9.28278675539e-05 0.0 0.0 0.0
115 1 57.06432131147541 10.722237377049183 3.50859000344e-05 0.0 0.0 0.0
116 1 58.983514754098366 7.707220327868853 5.54025442998e-05 0.0 0.0 0.0
117 1 60.57148196721312 7.9081777049180335 3.21990018577e-05 0.0 0.0 0.0
118 1 64.85318688524592 7.4497626229508205 3.63915733504e-05 0.0 0.0 0.0
119 1 66.35834754098362 7.099248524590164 1.82294764387e-07 0.0 0.0 0.0
120 1 69.15256393442624 7.423254426229509 1.02338495129e-05 0.0 0.0 0.0
121 1 72.70567213114755 7.391545573770492 9.39775875089e-05 0.0 0.0 0.0
122 1 74.22648524590164 7.521158032786886 6.42664063212e-05 0.0 0.0 0.0
123 1 76.57435409836067 7.081121967213115 4.71641235149e-05 0.0 0.0 0.0
124 1 79.18276065573771 6.597360000000001 4.89678449691e-07 0.0 0.0 0.0
125 1 1.2061936393442625 9.554563934426229 6.82533154887e-05 0.0 0.0 0.0
126 1 4.619303213114754 9.58076918032787 3.91602717288e-05 0.0 0.0 0.0
127 1 5.980956065573771 8.92397180327869 9.97961155308e-05 0.0 0.0 0.0
128 1 8.89847344262295 11.404634098360656 5.5671891467e-05 0.0 0.0 0.0
129 1 12.74276786885246 10.33188524590164 2.77447608935e-05 0.0 0.0 0.0
130 1 13.994813114754098 9.48104786885246 2.03388981795e-05 0.0 0.0 0.0
131 1 16.53121836065574 11.664666885245904 3.20495476745e-05 0.0 0.0 0.0
132 1 19.7390131147541 10.314465573770493 8.02009038871e-05 0.0 0.0 0.0
133 1 22.445474754098363 10.58333442622951 2.13889857817e-05 0.0 0.0 0.0
134 1 24.45641180327869 9.871198032786886 5.66571011905e-05 0.0 0.0 0.0
135 1 28.308986885245904 9.664787540983609 2.48027487699e-05 0.0 0.0 0.0
136 1 29.974560000000004 7.970636065573771 7.33704733499e-05 0.0 0.0 0.0
137 1 33.993202622950825 8.487268196721313 4.78643732453e-06 0.0 0.0 0.0
138 1 36.3973193442623 9.232880655737707 8.30964110117e-05 0.0 0.0 0.0
139 1 38.826429508196725 9.689579016393443 3.35624526763e-05 0.0 0.0 0.0
140 1 41.057258360655744 10.34112524590164 1.29670796775e-05 0.0 0.0 0.0
141 1 43.48838819672132 10.208735737704918 2.03870226119e-05 0.0 0.0 0.0
142 1 47.17439081967213 10.141278688524592 7.66339005457e-05 0.0 0.0 0.0
143 1 48.64036983606558 10.540769836065575 1.55180828202e-05 0.0 0.0 0.0
144 1 52.32617049180328 11.843458360655738 2.0926285328e-05 0.0 0.0 0.0
145 1 54.3236262295082 11.110468852459018 3.12475300315e-05 0.0 0.0 0.0
146 1 58.39528524590165 11.436746885245903 5.04650482875e-05 0.0 0.0 0.0
147 1 59.33796721311476 10.262812459016395 5.73806576313e-05 0.0 0.0 0.0
148 1 61.437416393442625 9.218540983606559 2.32893366385e-06 0.0 0.0 0.0
149 1 65.05363934426231 10.093260983606557 6.22195259375e-05 0.0 0.0 0.0
150 1 67.71102295081968 9.397231475409837 1.55439923895e-05 0.0 0.0 0.0
151 1 70.22147540983606 9.977937704918034 6.32284210608e-05 0.0 0.0 0.0
152 1 72.65619016393443 9.910682622950821 2.32888308739e-05 0.0 0.0 0.0
153 1 75.48979016393443 9.796015737704918 9.1190505799e-06 0.0 0.0 0.0
154 1 78.5440393442623 9.057674098360657 3.92047541075e-05 0.0 0.0 0.0
155 1 81.3741049180328 9.004051803278688 6.82730043935e-05 0.0 0.0 0.0
156 1 81.928 11.597563278688526 7.96604380873e-06 0.0 0.0 0.0
157 1 1.90614131147541 11.84997180327869 8.6383924649e-05 0.0 0.0 0.0
158 1 4.663857180327869 12.328078688524592 5.56992880689e-05 0.0 0.0 0.0
159 1 8.00067868852459 12.691821639344262 1.95591188067e-05 0.0 0.0 0.0
160 1 10.538396721311477 13.033752131147542 9.88833687138e-05 0.0 0.0 0.0
161 1 12.9291331147541 12.908128524590166 3.54198777346e-05 0.0 0.0 0.0
162 1 15.966063606557379 13.095806557377049 8.85130679909e-05 0.0 0.0 0.0
163 1 17.834108852459018 12.419064918032788 8.96384328614e-05 0.0 0.0 0.0
164 1 21.221250491803282 12.610529836065576 3.10071294522e-05 0.0 0.0 0.0
165 1 24.34522885245902 13.73725442622951 4.71904869666e-06 0.0 0.0 0.0
166 1 27.98341573770492 11.43684786885246 1.45034707515e-05 0.0 0.0 0.0
167 1 29.45000065573771 10.973989508196723 4.36472488291e-05 0.0 0.0 0.0
168 1 32.77897573770492 10.276041311475412 6.42894989386e-05 0.0 0.0 0.0
169 1 34.167247868852456 10.963537704918034 5.58499060136e-05 0.0 0.0 0.0
170 1 36.71935606557377 11.675876065573773 5.34865480604e-05 0.0 0.0 0.0
171 1 39.311756721311475 12.455923934426231 2.87846391468e-05 0.0 0.0 0.0
172 1 41.82241114754099 12.657487213114756 9.77409677099e-05 0.0 0.0 0.0
173 1 44.32412852459017 12.829866229508198 7.65133100377e-06 0.0 0.0 0.0
174 1 46.970000000000006 12.599876065573772 5.74409366451e-06 0.0 0.0 0.0
175 1 49.57608393442624 13.008910163934427 1.61330628804e-05 0.0 0.0 0.0
176 1 54.50943606557377 13.778051803278691 3.38520017719e-05 0.0 0.0 0.0
177 1 56.592727868852464 14.36673573770492 3.69494821055e-05 0.0 0.0 0.0
178 1 59.07490491803279 13.980422950819674 8.48026746128e-06 0.0 0.0 0.0
179 1 61.27937704918033 12.106268196721313 3.11837060153e-05 0.0 0.0 0.0
180 1 63.201600000000006 11.26704393442623 5.57097791873e-05 0.0 0.0 0.0
181 1 66.78500327868854 11.859767213114754 8.90732919482e-05 0.0 0.0 0.0
182 1 69.04855081967214 13.22213704918033 5.31716893194e-05 0.0 0.0 0.0
183 1 71.70542950819673 12.363019016393443 8.12797712625e-05 0.0 0.0 0.0
184 1 74.38755409836065 11.938988852459017 4.76770947849e-05 0.0 0.0 0.0
185 1 76.43550163934427 11.015493770491805 1.36275061058e-05 0.0 0.0 0.0
186 1 79.41199344262296 12.588212459016395 5.08144284547e-05 0.0 0.0 0.0
187 1 0.5930868196721312 13.946896393442625 2.40364041538e-05 0.0 0.0 0.0
188 1 3.290268065573771 14.152448524590165 1.93855499579e-05 0.0 0.0 0.0
189 1 5.539708196721312 13.637179672131149 7.44873371134e-05 0.0 0.0 0.0
190 1 9.24575606557377 15.150772459016395 8.80989167492e-05 0.0 0.0 0.0
191 1 11.7002131147541 16.27749704918033 2.31295113167e-05 0.0 0.0 0.0
192 1 14.398747540983608 14.874279344262296 3.77863201011e-05 0.0 0.0 0.0
193 1 18.537409180327874 14.871401311475411 4.76431178346e-05 0.0 0.0 0.0
194 1 20.068421639344265 14.645147540983608 4.96999309035e-05 0.0 0.0 0.0
195 1 22.16065049180328 13.798299016393443 1.8818299364e-05 0.0 0.0 0.0
196 1 25.9445062295082 14.65120655737705 3.11979510539e-05 0.0 0.0 0.0
197 1 27.665165901639348 15.650186885245903 1.92183122706e-05 0.0 0.0 0.0
198 1 30.59727540983607 13.576387540983609 5.98782730539e-05 0.0 0.0 0.0
199 1 32.83759672131148 14.317708196721313 6.97840612694e-05 0.0 0.0 0.0
200 1 35.36637770491804 13.613499016393444 6.24957127559e-05 0.0 0.0 0.0
201 1 37.456182950819674 15.354355409836067 8.82860046836e-05 0.0 0.0 0.0
202 1 40.47720852459017 14.98273573770492 8.63714093535e-05 0.0 0.0 0.0
203 1 42.95681049180329 15.139613770491806 6.456497121e-05 0.0 0.0 0.0
204 1 45.073174426229514 14.17153442622951 8.06317286841e-05 0.0 0.0 0.0
205 1 49.124485245901646 14.463377049180329 3.42181545451e-05 0.0 0.0 0.0
206 1 51.746524590163936 15.416712786885247 3.7406947707e-05 0.0 0.0 0.0
207 1 53.29763278688525 14.650853114754101 8.07961277353e-05 0.0 0.0 0.0
208 1 57.20317377049181 15.747636065573772 8.50716739321e-05 0.0 0.0 0.0
209 1 60.92997377049181 14.851507540983608 8.76240919082e-05 0.0 0.0 0.0
210 1 63.21775737704918 14.21571475409836 3.08800644131e-05 0.0 0.0 0.0
211 1 65.67771803278688 14.359111475409838 9.57936761823e-05 0.0 0.0 0.0
212 1 68.28814426229509 14.537801967213117 4.76123321461e-05 0.0 0.0 0.0
213 1 70.7975868852459 14.87720786885246 9.5859793388e-05 0.0 0.0 0.0
214 1 73.40195409836066 14.347195409836067 1.59169056678e-05 0.0 0.0 0.0
215 1 76.02096393442623 14.007284590163936 1.35045736637e-05 0.0 0.0 0.0
216 1 78.63542950819674 13.938514754098362 4.25361048636e-05 0.0 0.0 0.0
217 1 81.04843278688526 14.346034098360658 6.90704901952e-05 0.0 0.0 0.0
218 1 0.6942420983606558 16.31304327868853 8.41835178036e-05 0.0 0.0 0.0
219 1 2.2377613770491807 16.18201704918033 3.58132415838e-05 0.0 0.0 0.0
220 1 4.720135344262295 17.428104262295083 4.19853229669e-05 0.0 0.0 0.0
221 1 7.661323278688526 16.96711409836066 2.99654382731e-05 0.0 0.0 0.0
222 1 11.38832524590164 17.774478032786888 6.4604099421e-05 0.0 0.0 0.0
223 1 13.496408524590166 17.142017704918032 8.33758981968e-05 0.0 0.0 0.0
224 1 15.636907540983609 15.775558032786886 9.86151449917e-05 0.0 0.0 0.0
225 1 19.153712131147543 17.754432786885246 8.63891556916e-05 0.0 0.0 0.0
226 1 22.368373770491807 16.580397377049184 1.74602518044e-05 0.0 0.0 0.0
227 1 23.9271062295082 16.6275062295082 8.10232742281e-05 0.0 0.0 0.0
228 1 26.713243934426234 16.835431475409838 1.48240155577e-06 0.0 0.0 0.0
229 1 29.10105180327869 16.11764 8.42348518535e-05 0.0 0.0 0.0
230 1 32.39700524590164 16.694559344262295 9.50848766568e-05 0.0 0.0 0.0
231 1 33.860661639344265 16.193327213114756 7.98823229622e-05 0.0 0.0 0.0
232 1 36.495677377049184 16.563280655737707 2.27619754654e-05 0.0 0.0 0.0
233 1 39.128622950819675 16.926417704918034 4.25189395538e-05 0.0 0.0 0.0
234 1 41.89234229508197 17.53868131147541 1.62553971536e-05 0.0 0.0 0.0
235 1 45.07706229508197 16.9639331147541 1.59981807903e-05 0.0 0.0 0.0
236 1 47.080526557377055 15.57520655737705 5.83242753074e-05 0.0 0.0 0.0
237 1 51.11234754098361 17.611339016393448 1.21138370864e-05 0.0 0.0 0.0
238 1 52.66497049180329 17.600129836065573 8.93902963171e-05 0.0 0.0 0.0
239 1 55.57127868852459 17.980131147540984 2.49415573516e-05 0.0 0.0 0.0
240 1 60.608845901639356 17.484352131147546 6.60741497181e-05 0.0 0.0 0.0
241 1 62.052406557377054 16.96539737704918 9.09701452186e-05 0.0 0.0 0.0
242 1 64.44672786885246 16.77918360655738 7.75977159849e-05 0.0 0.0 0.0
243 1 67.22983606557378 16.75600786885246 9.4154664658e-05 0.0 0.0 0.0
244 1 70.14422295081968 17.718836065573772 2.46232974117e-05 0.0 0.0 0.0
245 1 72.7612131147541 16.780395409836068 7.40006873971e-05 0.0 0.0 0.0
246 1 74.2628393442623 16.415743606557378 1.52353255833e-05 0.0 0.0 0.0
247 1 77.53319344262296 16.361969836065576 8.64441704964e-05 0.0 0.0 0.0
248 1 79.06460983606559 16.459116065573774 3.98391367922e-07 0.0 0.0 0.0
249 1 1.0782575081967214 18.80769180327869 6.14074957875e-05 0.0 0.0 0.0
250 1 4.02724137704918 18.795068852459018 7.59440221377e-05 0.0 0.0 0.0
251 1 6.462041967213115 19.10034229508197 3.55077705869e-05 0.0 0.0 0.0
252 1 8.63485573770492 18.20865704918033 4.68453710851e-05 0.0 0.0 0.0
253 1 14.00061967213115 20.757129836065577 6.9146478017e-05 0.0 0.0 0.0
254 1 15.418833442622951 18.587699016393444 2.73263346701e-05 0.0 0.0 0.0
255 1 16.854012459016396 18.128678032786887 2.41779770026e-05 0.0 0.0 0.0
256 1 19.962691803278688 19.972133770491805 3.90039573629e-05 0.0 0.0 0.0
257 1 22.68430098360656 19.463479344262296 2.20214147543e-05 0.0 0.0 0.0
258 1 25.53981442622951 18.92044 4.42832553289e-05 0.0 0.0 0.0
259 1 28.421482622950823 18.806833442622953 5.04958048217e-05 0.0 0.0 0.0
260 1 30.32083278688525 19.94835213114754 1.61708460489e-05 0.0 0.0 0.0
261 1 32.72222295081968 18.710444590163934 9.07266583064e-05 0.0 0.0 0.0
262 1 35.123663606557386 19.713514754098362 2.9654523915e-06 0.0 0.0 0.0
263 1 37.893240000000006 18.98017180327869 6.06849471105e-05 0.0 0.0 0.0
264 1 40.39929967213115 20.126184262295084 8.09500273581e-05 0.0 0.0 0.0
265 1 42.83371147540984 18.808600655737706 8.90649142406e-05 0.0 0.0 0.0
266 1 46.76939606557378 18.56285704918033 8.24929428116e-05 0.0 0.0 0.0
267 1 49.2842918032787 19.68044262295082 1.34007236936e-05 0.0 0.0 0.0
268 1 51.69148852459017 20.22216918032787 3.79964097854e-05 0.0 0.0 0.0
269 1 54.29888524590165 19.749666885245905 7.46038723787e-05 0.0 0.0 0.0
270 1 56.64826885245902 19.082518688524594 5.10192718207e-05 0.0 0.0 0.0
271 1 60.284688524590166 20.003034754098362 2.5578370285e-05 0.0 0.0 0.0
272 1 62.915311475409844 19.353710163934426 2.33951740577e-05 0.0 0.0 0.0
273 1 65.40203278688526 18.95396655737705 6.42568866993e-05 0.0 0.0 0.0
274 1 67.95287868852459 19.530582950819674 5.82551621319e-05 0.0 0.0 0.0
275 1 70.09928524590164 20.375714754098365 2.33035435059e-05 0.0 0.0 0.0
276 1 72.4380655737705 19.283779016393442 1.79053210256e-05 0.0 0.0 0.0
277 1 75.05556065573771 19.11084459016394 3.51445575828e-05 0.0 0.0 0.0
278 1 79.76897049180329 17.826232131147542 7.31695556356e-05 0.0 0.0 0.0
279 1 80.95300327868854 19.621821639344265 6.02816958316e-05 0.0 0.0 0.0
280 1 81.85327213114755 20.85165049180328 4.2034494177e-05 0.0 0.0 0.0
281 1 2.535577180327869 22.060323278688525 4.10990078362e-05 0.0 0.0 0.0
282 1 5.2067147540983605 21.37363475409836 3.01113001822e-05 0.0 0.0 0.0
283 1 8.098380327868854 21.10264524590164 4.06538402783e-05 0.0 0.0 0.0
284 1 10.423275409836066 21.276993442622953 1.35867844227e-06 0.0 0.0 0.0
285 1 12.72272262295082 23.07586491803279 6.46000640782e-05 0.0 0.0 0.0
286 1 15.213079344262296 21.729299016393444 1.91053145691e-05 0.0 0.0 0.0
287 1 18.14251278688525 21.89541704918033 2.77633700868e-05 0.0 0.0 0.0
288 1 20.57530885245902 21.367020327868854 2.63631047132e-06 0.0 0.0 0.0
289 1 24.25777704918033 21.250283278688524 1.38150656711e-05 0.0 0.0 0.0
290 1 26.71152721311476 21.00029836065574 9.4480855641e-05 0.0 0.0 0.0
291 1 29.346441967213117 21.12001442622951 5.52703417991e-05 0.0 0.0 0.0
292 1 32.114049180327875 21.434527868852463 9.53312604179e-05 0.0 0.0 0.0
293 1 34.6232393442623 21.1551062295082 1.02494007262e-05 0.0 0.0 0.0
294 1 37.04497770491804 21.324102295081968 1.69016948721e-05 0.0 0.0 0.0
295 1 39.74204786885247 21.488200655737707 5.49159143378e-05 0.0 0.0 0.0
296 1 42.31733180327869 21.498198032786885 8.84965151739e-05 0.0 0.0 0.0
297 1 44.82758229508197 21.048568524590166 8.79806544791e-05 0.0 0.0 0.0
298 1 47.404835409836075 21.303956065573775 1.00627497949e-05 0.0 0.0 0.0
299 1 50.017331803278694 22.29354491803279 2.56144402522e-05 0.0 0.0 0.0
300 1 54.15144918032787 21.909554754098362 4.74661685877e-05 0.0 0.0 0.0
301 1 55.7136655737705 21.829373770491806 2.98329470184e-05 0.0 0.0 0.0
302 1 58.587154098360664 22.09420327868853 9.02378667557e-05 0.0 0.0 0.0
303 1 61.574754098360664 21.953028196721313 7.87389392873e-05 0.0 0.0 0.0
304 1 64.40431475409837 21.569290491803283 7.75235691116e-06 0.0 0.0 0.0
305 1 68.5991737704918 22.938527213114757 5.87178813553e-05 0.0 0.0 0.0
306 1 67.51057049180328 21.839421639344263 7.61830243341e-05 0.0 0.0 0.0
307 1 72.41281967213115 21.871736393442625 3.36630320376e-05 0.0 0.0 0.0
308 1 73.9124262295082 21.548689836065574 4.98514491135e-05 0.0 0.0 0.0
309 1 77.10754754098362 20.750919344262297 6.33936504481e-05 0.0 0.0 0.0
310 1 79.70939016393444 21.75181836065574 1.53853531161e-05 0.0 0.0 0.0
311 1 2.0034844590163936 23.486716721311478 6.61180294146e-05 0.0 0.0 0.0
312 1 4.555708786885246 24.887763278688528 4.67138996729e-05 0.0 0.0 0.0
313 1 6.981855081967214 23.201640000000005 9.98504529062e-05 0.0 0.0 0.0
314 1 9.55491737704918 23.70256918032787 9.75557836216e-05 0.0 0.0 0.0
315 1 12.165545573770494 24.484636721311478 7.19091766693e-05 0.0 0.0 0.0
316 1 14.953854426229508 24.217989508196723 4.40784291934e-05 0.0 0.0 0.0
317 1 17.412754754098362 25.089881967213117 9.08943433483e-05 0.0 0.0 0.0
318 1 20.003842622950824 24.042278032786886 1.45343346395e-05 0.0 0.0 0.0
319 1 22.759230819672133 23.60400918032787 9.96403217443e-05 0.0 0.0 0.0
320 1 25.29826163934427 23.557657704918036 4.47825829174e-05 0.0 0.0 0.0
321 1 27.654512131147545 23.329737704918035 5.05993825523e-05 0.0 0.0 0.0
322 1 30.478064262295085 23.358518032786886 9.92469755927e-05 0.0 0.0 0.0
323 1 33.24203606557377 23.64011081967213 8.96069585241e-05 0.0 0.0 0.0
324 1 35.563901639344266 23.648139016393444 7.00829431581e-05 0.0 0.0 0.0
325 1 38.2706662295082 23.611229508196725 5.54333493902e-05 0.0 0.0 0.0
326 1 40.83595278688525 23.798554098360658 7.08802941196e-05 0.0 0.0 0.0
327 1 43.826279344262296 23.621125901639346 7.58015251061e-05 0.0 0.0 0.0
328 1 46.17783409836066 23.617692459016396 6.95611809685e-05 0.0 0.0 0.0
329 1 48.549484590163935 23.92018885245902 3.70130187702e-05 0.0 0.0 0.0
330 1 51.32592786885247 24.372948852459018 5.07582961884e-05 0.0 0.0 0.0
331 1 54.06712786885247 25.310329180327873 8.47725826508e-05 0.0 0.0 0.0
332 1 56.839632786885254 24.11539016393443 1.30477956688e-05 0.0 0.0 0.0
333 1 59.65152131147542 24.048438032786887 6.19489830326e-05 0.0 0.0 0.0
334 1 63.033967213114764 24.04460065573771 1.6806180317e-05 0.0 0.0 0.0
335 1 65.77819672131149 24.05525442622951 8.21151647208e-05 0.0 0.0 0.0
336 1 67.55449836065574 25.085388196721315 7.1420890339e-05 0.0 0.0 0.0
337 1 70.36487213114755 24.865243934426232 2.31023985715e-05 0.0 0.0 0.0
338 1 72.82432786885246 24.290091803278692 5.53047993216e-05 0.0 0.0 0.0
339 1 74.97578360655739 22.683796065573773 8.65247521871e-05 0.0 0.0 0.0
340 1 78.97220983606559 23.076925245901645 1.71314268199e-05 0.0 0.0 0.0
341 1 81.84569836065575 23.621580327868855 2.84711978107e-05 0.0 0.0 0.0
342 1 0.5652860327868854 25.67457704918033 1.67735089683e-05 0.0 0.0 0.0
343 1 4.846137639344263 26.387773770491805 1.36223261324e-05 0.0 0.0 0.0
344 1 7.073598688524591 25.31542885245902 4.9938076639e-05 0.0 0.0 0.0
345 1 7.666877377049181 27.546661639344265 6.52421089951e-05 0.0 0.0 0.0
346 1 10.574195409836067 26.347026885245903 5.56092695635e-06 0.0 0.0 0.0
347 1 13.63096918032787 26.485980327868855 5.35041477268e-05 0.0 0.0 0.0
348 1 16.671636065573775 26.441446557377052 6.75113083656e-05 0.0 0.0 0.0
349 1 19.148662950819674 26.722685901639345 2.20199613047e-06 0.0 0.0 0.0
350 1 22.265168524590166 25.830344262295085 5.52982323087e-05 0.0 0.0 0.0
351 1 23.80163409836066 25.977376393442626 1.59818754357e-05 0.0 0.0 0.0
352 1 26.709204590163935 25.951322622950823 2.7140027761e-05 0.0 0.0 0.0
353 1 29.440811147540987 25.352186885245906 2.03092786741e-05 0.0 0.0 0.0
354 1 31.782772459016396 26.614885901639347 1.51521046567e-05 0.0 0.0 0.0
355 1 34.4083462295082 26.1539462295082 7.61275600117e-06 0.0 0.0 0.0
356 1 36.57570688524591 25.78697180327869 8.12063110816e-05 0.0 0.0 0.0
357 1 39.723466885245905 27.10829180327869 8.2912046251e-05 0.0 0.0 0.0
358 1 42.227203934426235 25.490281967213118 8.47554608587e-05 0.0 0.0 0.0
359 1 44.927000655737714 26.168285901639347 7.86850187328e-05 0.0 0.0 0.0
360 1 47.71980327868853 26.225745573770496 3.22568007658e-05 0.0 0.0 0.0
361 1 50.335379672131154 27.226695081967218 6.63952078506e-05 0.0 0.0 0.0
362 1 53.284504918032795 26.635436065573774 9.57551783965e-05 0.0 0.0 0.0
363 1 55.777285245901645 26.58782229508197 9.81348692676e-05 0.0 0.0 0.0
364 1 58.10596721311476 26.262049180327875 7.71157999861e-05 0.0 0.0 0.0
365 1 60.6765049180328 26.566060327868858 1.27160784572e-05 0.0 0.0 0.0
366 1 62.28769836065574 25.41575606557377 6.82881380908e-05 0.0 0.0 0.0
367 1 65.45959344262296 27.54762098360656 7.78875674142e-05 0.0 0.0 0.0
368 1 68.41184918032788 26.866032131147545 4.15451369678e-05 0.0 0.0 0.0
369 1 71.05358032786887 26.223523934426233 9.83113968113e-05 0.0 0.0 0.0
370 1 74.898531147541 25.6125731147541 9.05246583078e-05 0.0 0.0 0.0
371 1 78.05729836065574 24.811520655737706 9.30668689033e-05 0.0 0.0 0.0
372 1 79.54983606557379 24.48145573770492 2.29353261848e-05 0.0 0.0 0.0
373 1 1.3818546229508197 27.967914754098363 3.83045954593e-05 0.0 0.0 0.0
374 1 3.2759940327868855 29.738005901639347 4.12076661191e-05 0.0 0.0 0.0
375 1 7.137319344262296 29.005016393442627 7.76714673313e-05 0.0 0.0 0.0
376 1 9.708160000000001 28.61668393442623 9.5291015042e-05 0.0 0.0 0.0
377 1 12.488996065573772 28.242236721311478 9.79529485599e-05 0.0 0.0 0.0
378 1 15.385660327868854 28.308986885245904 2.72727185652e-05 0.0 0.0 0.0
379 1 17.978515409836067 29.01521573770492 1.44199031449e-05 0.0 0.0 0.0
380 1 20.31078229508197 29.339322622950824 1.38786920831e-05 0.0 0.0 0.0
381 1 22.567008524590168 28.496109508196724 6.21671195958e-05 0.0 0.0 0.0
382 1 24.64767475409836 27.29778754098361 4.48987218933e-05 0.0 0.0 0.0
383 1 28.445920655737705 27.707528524590167 3.82176251729e-06 0.0 0.0 0.0
384 1 31.243873442622956 28.017093770491805 2.46802441567e-05 0.0 0.0 0.0
385 1 32.69384655737705 30.00212852459017 3.06270388204e-05 0.0 0.0 0.0
386 1 36.73743213114755 28.087176393442626 4.64218534635e-05 0.0 0.0 0.0
387 1 37.6368931147541 26.854368524590168 2.26235840647e-05 0.0 0.0 0.0
388 1 41.48457049180328 27.905961311475416 4.26057132209e-05 0.0 0.0 0.0
389 1 43.949883278688525 28.948768524590164 4.91534184999e-05 0.0 0.0 0.0
390 1 46.08538360655738 28.67025573770492 4.19837923186e-05 0.0 0.0 0.0
391 1 49.52003803278689 28.52367803278689 9.28986439031e-05 0.0 0.0 0.0
392 1 52.01211147540984 28.79204196721312 1.83302349497e-06 0.0 0.0 0.0
393 1 54.65636721311476 29.008449836065576 6.18539243516e-05 0.0 0.0 0.0
394 1 57.15621639344263 28.93134885245902 7.75448462855e-05 0.0 0.0 0.0
395 1 59.42632786885246 28.70539803278689 3.74968751677e-05 0.0 0.0 0.0
396 1 62.141272131147545 28.572806557377053 5.45846411375e-05 0.0 0.0 0.0
397 1 65.16219672131149 29.045561311475414 9.75712696745e-05 0.0 0.0 0.0
398 1 67.6140786885246 28.822488524590167 3.13447619419e-06 0.0 0.0 0.0
399 1 69.25455737704918 30.036513442622955 2.74707105334e-05 0.0 0.0 0.0
400 1 73.81295737704919 28.246982950819675 3.98791451552e-05 0.0 0.0 0.0
401 1 76.09720655737705 27.93681180327869 9.26496019772e-05 0.0 0.0 0.0
402 1 78.79750819672132 27.52111278688525 9.7388808962e-05 0.0 0.0 0.0
403 1 81.47458360655739 27.76791672131148 4.1992296475e-05 0.0 0.0 0.0
404 1 0.40881950819672136 30.191270819672134 3.56218742056e-05 0.0 0.0 0.0
405 1 1.9224956065573773 30.440649836065578 7.70551273991e-05 0.0 0.0 0.0
406 1 4.236605639344263 30.92410885245902 6.32143002029e-06 0.0 0.0 0.0
407 1 8.325542950819674 31.043118032786886 6.18117714185e-05 0.0 0.0 0.0
408 1 10.352940327868854 29.993140983606562 9.04238588444e-05 0.0 0.0 0.0
409 1 13.946391475409836 30.237773770491806 6.28964789566e-05 0.0 0.0 0.0
410 1 16.23730557377049 30.862407868852465 3.32965811513e-05 0.0 0.0 0.0
411 1 18.767449836065577 31.728645245901642 4.06754797525e-05 0.0 0.0 0.0
412 1 22.917371147540987 30.843372459016397 3.04807646554e-05 0.0 0.0 0.0