ITEM: TIMESTEP
0
ITEM: NUMBER OF ATOMS
2232
ITEM: BOX BOUNDS xy xz yz pp pp pp
0.0 82.68810555352132 0
0.0 83.16 0
-10.0 10.0 0
ITEM: ATOMS id type x y z vx vy vz
1 1 0.9920124590163935 0.8192951475409836 2.21918111033e-05 0.0 0.0 0.0
2 1 4.352489377049181 2.429251540983607 3.34286834558e-05 0.0 0.0 0.0
3 1 6.952519344262296 1.0698506229508198 7.62506342271e-05 0.0 0.0 0.0
4 1 9.624747540983607 1.0214592786885246 4.74921999736e-05 0.0 0.0 0.0
5 1 12.29657180327869 0.8458992786885247 5.09361207283e-05 0.0 0.0 0.0
6 1 15.066804590163935 0.6594936393442624 2.44138149996e-05 0.0 0.0 0.0
7 1 18.140190163934427 1.0543849836065573 3.32406015865e-06 0.0 0.0 0.0
8 1 20.843571803278692 1.0410299016393445 9.57131503041e-05 0.0 0.0 0.0
9 1 23.49928918032787 1.1205292459016394 1.44619925182e-05 0.0 0.0 0.0
10 1 26.116026885245905 1.009437180327869 6.42174248419e-06 0.0 0.0 0.0
11 1 28.794667540983607 0.9590463606557378 5.67377100648e-05 0.0 0.0 0.0
12 1 31.43735803278689 0.9347497049180329 9.87633239969e-06 0.0 0.0 0.0
13 1 33.749074754098366 2.218872393442623 6.47144600759e-05 0.0 0.0 0.0
14 1 36.316280000000006 1.0653619016393445 4.16291086693e-05 0.0 0.0 0.0
15 1 38.99451672131148 0.8178561311475411 9.42516250439e-05 0.0 0.0 0.0
16 1 41.530467540983615 0.44876811803278693 5.35579681845e-05 0.0 0.0 0.0
17 1 44.25030950819672 0.34345130491803283 8.14594049845e-05 0.0 0.0 0.0
18 1 47.01700786885246 0.20697196065573772 3.42567779848e-05 0.0 0.0 0.0
19 1 49.313880000000005 1.6892941639344266 8.13866823505e-06 0.0 0.0 0.0
20 1 52.22367213114755 0.8708523278688525 8.62861910225e-05 0.0 0.0 0.0
21 1 54.85530491803279 0.5665988196721312 6.59610926334e-05 0.0 0.0 0.0
22 1 57.561160655737716 0.2639883147540984 7.14994391273e-05 0.0 0.0 0.0
23 1 60.17714098360656 83.11859672131148 3.79688194098e-05 0.0 0.0 0.0
24 1 62.7784786885246 0.0580888 2.91535089974e-05 0.0 0.0 0.0
25 1 65.31367213114754 0.4882410950819673 6.61017983786e-05 0.0 0.0 0.0
26 1 68.03063606557377 0.9157748852459017 4.36827673548e-05 0.0 0.0 0.0
27 1 70.78496393442624 1.0574195409836067 6.63944037558e-05 0.0 0.0 0.0
28 1 73.42518032786886 0.7978916721311476 6.29273300145e-05 0.0 0.0 0.0
29 1 76.01238032786887 0.6979936393442624 4.4936975703e-05 0.0 0.0 0.0
30 1 78.53949508196722 0.6623413770491804 9.83403320948e-05 0.0 0.0 0.0
31 1 81.01864262295084 0.6766356065573771 8.68144636188e-05 0.0 0.0 0.0
32 1 82.40817704918034 3.0314117377049183 2.36396067928e-05 0.0 0.0 0.0
33 1 2.031164065573771 1.9428942950819674 8.40323098933e-05 0.0 0.0 0.0
34 1 6.0151895081967215 3.641842491803279 3.48837156255e-05 0.0 0.0 0.0
35 1 8.47388786885246 3.3429360655737708 6.077444738e-05 0.0 0.0 0.0
36 1 11.242908852459017 3.218135475409836 8.51265629428e-06 0.0 0.0 0.0
37 1 14.547496393442623 2.6759746885245907 8.83123129883e-05 0.0 0.0 0.0
38 1 15.88669049180328 1.949685442622951 9.26030342009e-05 0.0 0.0 0.0
39 1 19.406726557377052 3.315286754098361 4.06677473182e-05 0.0 0.0 0.0
40 1 22.02598885245902 3.423712852459017 6.07628081619e-05 0.0 0.0 0.0
41 1 24.738105573770497 3.46455062295082 5.86313460368e-05 0.0 0.0 0.0
42 1 28.29288 3.0742136393442627 3.2569208498e-05 0.0 0.0 0.0
43 1 29.84065573770492 3.181210819672131 7.69220651822e-05 0.0 0.0 0.0
44 1 32.77114950819672 3.395099147540984 8.45094768948e-05 0.0 0.0 0.0
45 1 36.250085245901644 3.369525049180328 1.55018745964e-05 0.0 0.0 0.0
46 1 37.77190819672132 3.18296793442623 2.57786635937e-05 0.0 0.0 0.0
47 1 40.383748196721314 3.0085036065573774 5.34732817789e-05 0.0 0.0 0.0
48 1 42.98806491803279 2.652051672131148 7.93350264473e-05 0.0 0.0 0.0
49 1 45.769708852459026 2.499520983606558 5.40316498105e-05 0.0 0.0 0.0
50 1 48.458144918032794 3.0029596065573774 5.03194684885e-05 0.0 0.0 0.0
51 1 50.79778360655738 3.2828154754098366 7.99943546243e-05 0.0 0.0 0.0
52 1 54.50186229508197 2.7525051147540984 8.13443119821e-05 0.0 0.0 0.0
53 1 56.04186229508198 2.614500918032787 2.3164061867e-05 0.0 0.0 0.0
54 1 59.75401967213115 2.222634032786886 8.19197669263e-05 0.0 0.0 0.0
55 1 61.2960393442623 2.3418603278688526 8.26009171085e-05 0.0 0.0 0.0
56 1 63.837796721311484 2.646043147540984 4.90533972342e-05 0.0 0.0 0.0
57 1 66.60070819672131 2.912074360655738 6.38582696205e-05 0.0 0.0 0.0
58 1 69.34039344262297 3.1858661639344263 2.1888488262e-05 0.0 0.0 0.0
59 1 72.0412 3.2354895081967214 8.24231280036e-05 0.0 0.0 0.0
60 1 74.62587540983607 3.13608124590164 2.83184509973e-06 0.0 0.0 0.0
61 1 77.20752131147542 3.139984262295082 9.22481771059e-06 0.0 0.0 0.0
62 1 79.75988196721313 3.1554044590163937 1.07439825714e-05 0.0 0.0 0.0
63 1 1.3922256393442625 4.850924262295083 9.40471413008e-05 0.0 0.0 0.0
64 1 4.095511344262296 5.455891803278689 1.80730349319e-05 0.0 0.0 0.0
65 1 7.194425573770492 5.911933770491804 9.06344893035e-05 0.0 0.0 0.0
66 1 9.775465573770491 5.470281967213115 1.44867310427e-05 0.0 0.0 0.0
67 1 12.343327213114756 5.553694426229509 7.65105457727e-05 0.0 0.0 0.0
68 1 14.97925180327869 5.400552786885246 3.23236863459e-05 0.0 0.0 0.0
69 1 17.702173770491804 5.398331147540984 2.19707034511e-05 0.0 0.0 0.0
70 1 20.37384655737705 5.712491147540985 8.61146284729e-05 0.0 0.0 0.0
71 1 23.11585442622951 5.7376360655737715 6.79288871335e-05 0.0 0.0 0.0
72 1 25.82771868852459 5.931878032786886 2.48034147928e-05 0.0 0.0 0.0
73 1 28.3845731147541 5.6832563934426235 5.59135126329e-05 0.0 0.0 0.0
74 1 31.221051147540987 5.317039344262295 6.24755726125e-05 0.0 0.0 0.0
75 1 33.86651868852459 6.518946229508197 9.45817723858e-05 0.0 0.0 0.0
76 1 36.481741639344264 5.768234098360656 4.44511555184e-05 0.0 0.0 0.0
77 1 39.25293377049181 5.446651803278689 4.79036500256e-05 0.0 0.0 0.0
78 1 41.93258426229509 5.155263606557378 4.00444471115e-05 0.0 0.0 0.0
79 1 44.60021770491804 4.731617180327869 1.15873747363e-05 0.0 0.0 0.0
80 1 46.43473639344263 6.3063757377049185 4.15753982803e-05 0.0 0.0 0.0
81 1 49.267326557377054 5.676944918032787 8.38047725082e-05 0.0 0.0 0.0
82 1 51.784898360655745 5.663110163934427 4.28394085524e-06 0.0 0.0 0.0
83 1 54.22213770491804 5.350212459016394 3.0662862038e-05 0.0 0.0 0.0
84 1 56.9648524590164 4.94503593442623 6.55730765149e-05 0.0 0.0 0.0
85 1 59.72321967213115 4.757282163934426 8.03849759204e-06 0.0 0.0 0.0
86 1 62.607311475409844 4.925520852459017 4.28937735356e-05 0.0 0.0 0.0
87 1 65.2652 4.970509049180328 6.54750388917e-06 0.0 0.0 0.0
88 1 67.95136393442624 5.267910819672132 5.24025745202e-05 0.0 0.0 0.0
89 1 70.56078032786887 5.485278032786885 4.7909166956e-05 0.0 0.0 0.0
90 1 73.20958032786886 5.5650550819672135 3.95716888612e-05 0.0 0.0 0.0
91 1 75.63116721311475 5.521783606557378 3.32777373432e-05 0.0 0.0 0.0
92 1 78.26481967213115 5.5890891803278695 9.953602003e-05 0.0 0.0 0.0
93 1 81.36855081967214 5.425748196721312 5.40569124294e-05 0.0 0.0 0.0
94 1 0.1316467737704918 7.332874098360657 2.00360494658e-05 0.0 0.0 0.0
95 1 2.6526878688524596 7.35276786885246 2.96298589225e-05 0.0 0.0 0.0
96 1 4.77755462295082 6.849364590163935 9.01543543621e-05 0.0 0.0 0.0
97 1 8.412843278688525 7.968414426229509 3.40706161302e-05 0.0 0.0 0.0
98 1 10.874975081967214 7.843194754098361 9.18109698696e-05 0.0 0.0 0.0
99 1 13.5666931147541 7.746048524590165 6.01409453752e-06 0.0 0.0 0.0
100 1 16.121780327868855 7.729184262295083 3.44045543809e-05 0.0 0.0 0.0
101 1 18.69267147540984 7.897978360655738 3.18324811526e-05 0.0 0.0 0.0
102 1 21.723492459016395 8.005071475409837 7.67582083996e-05 0.0 0.0 0.0
103 1 24.42490491803279 8.096007213114756 1.0682879718e-05 0.0 0.0 0.0
104 1 27.364588196721314 8.168866885245903 8.94825225555e-05 0.0 0.0 0.0
105 1 30.339110819672136 7.573518032786886 6.93700696547e-06 0.0 0.0 0.0
106 1 33.210125245901644 7.873792786885247 4.18189577316e-05 0.0 0.0 0.0
107 1 35.706641967213116 8.27671737704918 7.27644892421e-05 0.0 0.0 0.0
108 1 38.205733770491804 7.801185573770493 7.78306643707e-06 0.0 0.0 0.0
109 1 40.90568196721312 7.586746885245903 4.31796603104e-05 0.0 0.0 0.0
110 1 43.60653901639345 7.2090681967213115 4.81345848883e-05 0.0 0.0 0.0
111 1 45.58980655737705 8.71215868852459 7.02100019953e-05 0.0 0.0 0.0
112 1 48.36796655737705 8.033346885245903 4.26663248063e-06 0.0 0.0 0.0
113 1 50.97702950819673 8.041678032786885 2.81479502394e-05 0.0 0.0 0.0
114 1 53.24158688524591 7.917316721311477 2.53062755958e-05 0.0 0.0 0.0
115 1 55.75001967213115 7.311667540983607 9.73805031774e-05 0.0 0.0 0.0
116 1 58.267540983606565 7.001698360655739 8.01414977074e-06 0.0 0.0 0.0
117 1 60.88604590163935 6.9413101639344275 6.04691784647e-05 0.0 0.0 0.0
118 1 64.83652459016393 7.05784524590164 8.10227628545e-05 0.0 0.0 0.0
119 1 66.37652459016394 7.366552131147542 2.79008774789e-05 0.0 0.0 0.0
120 1 69.05864918032788 7.720600655737706 1.71118793432e-05 0.0 0.0 0.0
121 1 71.72562622950821 7.839963278688526 1.55267564816e-05 0.0 0.0 0.0
122 1 74.2593049180328 8.06197573770492 2.98537134332e-05 0.0 0.0 0.0
123 1 76.82630819672133 7.882729836065574 2.9381980952e-05 0.0 0.0 0.0
124 1 79.07066885245902 6.909853770491804 1.66198949081e-05 0.0 0.0 0.0
125 1 1.385192131147541 9.74330229508197 4.1382372095e-05 0.0 0.0 0.0
126 1 4.143882491803279 9.709876721311476 4.27438400917e-05 0.0 0.0 0.0
127 1 6.885567213114755 10.066803278688525 2.68595638322e-05 0.0 0.0 0.0
128 1 9.618991475409837 10.329057704918034 7.54123834925e-05 0.0 0.0 0.0
129 1 12.393465573770493 10.01080786885246 5.42164656479e-05 0.0 0.0 0.0
130 1 14.31240655737705 11.343185573770493 3.26740263079e-05 0.0 0.0 0.0
131 1 17.510001967213118 10.209341639344263 2.58212851472e-05 0.0 0.0 0.0
132 1 19.524877377049183 9.201474754098362 8.4245459921e-06 0.0 0.0 0.0
133 1 23.161044590163936 10.253673442622953 1.96538235518e-05 0.0 0.0 0.0
134 1 25.03711803278689 9.500840655737706 4.43412794735e-05 0.0 0.0 0.0
135 1 28.39270229508197 9.287613770491804 2.65071399387e-05 0.0 0.0 0.0
136 1 31.94924393442623 9.688973114754099 3.88718492456e-05 0.0 0.0 0.0
137 1 34.159522622950824 11.408269508196723 7.99076939289e-05 0.0 0.0 0.0
138 1 36.90461049180328 10.398786885245903 2.58468541636e-05 0.0 0.0 0.0
139 1 39.479944918032785 9.972636065573772 2.98325375481e-05 0.0 0.0 0.0
140 1 42.171158032786884 9.71785442622951 5.55592090302e-05 0.0 0.0 0.0
141 1 44.856463606557384 10.061097704918035 8.57356212507e-05 0.0 0.0 0.0
142 1 47.365502295081974 10.394747540983607 9.24402556486e-05 0.0 0.0 0.0
143 1 50.15679016393443 10.306942295081969 4.24948541734e-05 0.0 0.0 0.0
144 1 52.72051147540984 10.49048 6.37435593051e-06 0.0 0.0 0.0
145 1 54.91236065573771 9.900281311475412 6.88978704919e-05 0.0 0.0 0.0
146 1 57.62074098360657 9.408844590163936 2.66948833407e-05 0.0 0.0 0.0
147 1 59.98426229508197 9.194506885245904 6.65870954197e-05 0.0 0.0 0.0
148 1 62.44270819672131 10.464072786885247 1.52143503532e-05 0.0 0.0 0.0
149 1 65.15563278688525 9.5842531147541 5.99933708477e-05 0.0 0.0 0.0
150 1 68.00488524590165 9.86680524590164 6.25090466613e-05 0.0 0.0 0.0
151 1 70.6592393442623 10.067358688524592 1.58489292272e-05 0.0 0.0 0.0
152 1 73.1040524590164 11.558028196721311 7.40917313421e-05 0.0 0.0 0.0
153 1 75.79021639344263 10.385356065573772 6.31594878388e-05 0.0 0.0 0.0
154 1 78.59857049180329 9.795662295081968 4.05671817999e-05 0.0 0.0 0.0
155 1 81.3932918032787 9.60732786885246 9.16840335479e-05 0.0 0.0 0.0
156 1 0.1768934885245902 11.99553967213115 6.84503702149e-05 0.0 0.0 0.0
157 1 2.6003985573770496 11.962921967213115 3.39856897069e-05 0.0 0.0 0.0
158 1 5.3483442622950825 12.15519475409836 9.69393595648e-05 0.0 0.0 0.0
159 1 8.344275409836067 12.473848524590165 1.22125366834e-05 0.0 0.0 0.0
160 1 11.023168524590165 12.37392524590164 3.21892122926e-05 0.0 0.0 0.0
161 1 13.556241311475413 12.662384918032787 9.08663879266e-05 0.0 0.0 0.0
162 1 15.6118131147541 12.127020327868854 5.94031788452e-05 0.0 0.0 0.0
163 1 19.246112131147544 12.158123278688526 9.09366611473e-05 0.0 0.0 0.0
164 1 21.94636327868853 12.298238032786886 3.93549348567e-05 0.0 0.0 0.0
165 1 24.835756721311476 12.454560655737705 6.09523496218e-05 0.0 0.0 0.0
166 1 27.64547409836066 12.101420983606557 2.85756976472e-05 0.0 0.0 0.0
167 1 30.449334426229512 11.900362622950821 6.30533174315e-06 0.0 0.0 0.0
168 1 33.16887344262295 12.569934426229509 7.09165858558e-05 0.0 0.0 0.0
169 1 35.623986885245905 12.876419672131147 4.85617053803e-05 0.0 0.0 0.0
170 1 38.12176590163935 12.525350163934426 2.45846533438e-05 0.0 0.0 0.0
171 1 40.53179016393443 12.100360655737706 4.60994189615e-05 0.0 0.0 0.0
172 1 43.31186885245902 12.157517377049182 5.27518732267e-05 0.0 0.0 0.0
173 1 46.111437377049185 12.59376655737705 3.46204428789e-05 0.0 0.0 0.0
174 1 48.8822255737705 12.469001311475411 2.87398493033e-05 0.0 0.0 0.0
175 1 51.4168131147541 12.79745049180328 6.54505634096e-05 0.0 0.0 0.0
176 1 55.229954098360665 12.34428655737705 7.00793181608e-06 0.0 0.0 0.0
177 1 56.65634754098362 11.759288524590165 4.63082744178e-05 0.0 0.0 0.0
178 1 58.89111475409837 13.029864262295083 8.37010525359e-05 0.0 0.0 0.0
179 1 61.665639344262296 11.789785573770494 8.28924651697e-05 0.0 0.0 0.0
180 1 64.40582950819673 11.960195409836066 5.62461862166e-05 0.0 0.0 0.0
181 1 66.47599344262296 13.089747540983607 6.41083381406e-05 0.0 0.0 0.0
182 1 69.3232262295082 12.4147731147541 5.27119007287e-05 0.0 0.0 0.0
183 1 72.58651147540984 13.044254426229509 8.49275632706e-05 0.0 0.0 0.0
184 1 75.20299672131148 12.956499672131148 1.37683097778e-05 0.0 0.0 0.0
185 1 77.64982950819673 12.207302295081968 5.984652965e-05 0.0 0.0 0.0
186 1 80.33094426229509 11.905664262295083 3.50452152345e-05 0.0 0.0 0.0
187 1 1.525958229508197 14.495035409836067 4.16147332532e-05 0.0 0.0 0.0
188 1 3.9689283934426234 14.23818360655738 9.8488064377e-05 0.0 0.0 0.0
189 1 6.064469508196722 13.530137049180329 4.94227192366e-06 0.0 0.0 0.0
190 1 9.627120655737706 14.689024918032787 1.70792966784e-05 0.0 0.0 0.0
191 1 12.2354262295082 14.885387540983608 1.65384078805e-05 0.0 0.0 0.0
192 1 14.957590819672133 14.965467540983607 5.78883287387e-05 0.0 0.0 0.0
193 1 17.65612524590164 14.49917573770492 7.44207785506e-05 0.0 0.0 0.0
194 1 20.339108196721313 14.502407213114756 7.16659914091e-05 0.0 0.0 0.0
195 1 23.092375737704923 14.515232131147542 6.73650034047e-05 0.0 0.0 0.0
196 1 27.062748196721316 14.334723934426231 3.33217609043e-05 0.0 0.0 0.0
197 1 29.711800655737708 14.039801311475411 9.38826298974e-05 0.0 0.0 0.0
198 1 31.238268852459022 14.318061639344263 7.76194583528e-05 0.0 0.0 0.0
199 1 33.88055540983607 15.081952131147544 6.66600443675e-05 0.0 0.0 0.0
200 1 36.66270426229509 15.068672786885248 9.52559828964e-05 0.0 0.0 0.0
201 1 39.26565770491804 14.772285901639345 9.97488898195e-05 0.0 0.0 0.0
202 1 41.83452918032788 14.257976393442624 4.13438759439e-05 0.0 0.0 0.0
203 1 43.98997377049181 13.538872131147542 4.25689001281e-06 0.0 0.0 0.0
204 1 47.58589901639345 14.64817704918033 6.06883313392e-06 0.0 0.0 0.0
205 1 49.45783213114755 16.162577704918036 1.0498133911e-05 0.0 0.0 0.0
206 1 52.13581639344263 15.321990163934428 3.87068216714e-05 0.0 0.0 0.0
207 1 53.97775737704919 14.390668852459019 5.45788866814e-05 0.0 0.0 0.0
208 1 57.98327213114755 14.310437377049182 1.44681087238e-06 0.0 0.0 0.0
209 1 61.36723278688525 13.916197377049182 3.10064334105e-05 0.0 0.0 0.0
210 1 62.884006557377056 14.052070819672133 4.49750047076e-05 0.0 0.0 0.0
211 1 65.5424 14.298622295081968 5.5678812176e-05 0.0 0.0 0.0
212 1 68.11293770491804 14.678522622950823 6.76691916316e-05 0.0 0.0 0.0
213 1 69.99022295081967 13.851618360655738 7.654155528e-06 0.0 0.0 0.0
214 1 73.27471475409837 14.40945180327869 1.65854584125e-05 0.0 0.0 0.0
215 1 76.72784918032788 14.930577704918035 7.65726271898e-06 0.0 0.0 0.0
216 1 79.27768524590165 14.29670360655738 7.34079483836e-06 0.0 0.0 0.0
217 1 81.82954098360656 14.356536393442624 6.06182594962e-05 0.0 0.0 0.0
218 1 0.16356112786885246 16.966508196721314 8.81209010206e-05 0.0 0.0 0.0
219 1 3.729178163934427 16.557979016393443 6.23355088584e-05 0.0 0.0 0.0
220 1 5.280735737704918 16.434324590163936 1.64805509802e-05 0.0 0.0 0.0
221 1 7.921305573770493 16.759643278688525 9.30289262842e-05 0.0 0.0 0.0
222 1 10.67341180327869 17.10783475409836 4.31858092226e-05 0.0 0.0 0.0
223 1 13.454045901639345 17.173019672131147 1.25722304445e-05 0.0 0.0 0.0
224 1 16.181815081967216 16.98155475409836 6.56987782779e-05 0.0 0.0 0.0
225 1 18.788252459016398 16.809832131147544 2.72471790495e-05 0.0 0.0 0.0
226 1 21.42458098360656 16.7360131147541 9.26200165175e-05 0.0 0.0 0.0
227 1 24.086761311475414 16.88506491803279 6.06686558022e-05 0.0 0.0 0.0
228 1 26.55884 16.72551081967213 7.64112892311e-05 0.0 0.0 0.0
229 1 29.206731147540985 16.365403278688525 2.04226055515e-05 0.0 0.0 0.0
230 1 32.11298885245902 16.92768 9.6760781629e-05 0.0 0.0 0.0
231 1 35.04706754098361 17.27657836065574 7.22043839499e-05 0.0 0.0 0.0
232 1 37.84981704918033 17.277234754098362 5.70355863574e-05 0.0 0.0 0.0
233 1 41.73273770491804 16.41841967213115 8.72462111059e-05 0.0 0.0 0.0
234 1 43.270869508196725 16.389336393442626 6.26909461204e-05 0.0 0.0 0.0
235 1 45.89442360655738 16.821041311475412 3.52795313346e-06 0.0 0.0 0.0
236 1 48.61673967213115 17.43401180327869 6.53637554671e-05 0.0 0.0 0.0
237 1 51.27543606557378 17.781344918032786 6.42095062546e-05 0.0 0.0 0.0
238 1 53.90858360655738 17.34777180327869 4.74941980242e-05 0.0 0.0 0.0
239 1 56.37561311475411 16.598321967213117 6.75894987798e-05 0.0 0.0 0.0
240 1 58.995127868852464 16.85224524590164 5.38656633126e-05 0.0 0.0 0.0
241 1 61.53991475409837 16.45623803278689 4.89545657515e-05 0.0 0.0 0.0
242 1 64.07813770491803 16.448209836065576 2.76664451242e-05 0.0 0.0 0.0
243 1 66.73148196721313 16.772720655737707 5.1045201623e-06 0.0 0.0 0.0
244 1 69.46157377049181 16.90995737704918 8.28262279179e-05 0.0 0.0 0.0
245 1 72.26992786885246 17.094706885245905 8.81459037441e-05 0.0 0.0 0.0
246 1 75.02980983606558 17.328332459016394 2.59978458743e-05 0.0 0.0 0.0
247 1 78.85708852459017 16.738537704918038 5.5353665271e-05 0.0 0.0 0.0
248 1 80.38699016393443 16.688449836065576 9.4742049927e-06 0.0 0.0 0.0
249 1 1.0786008524590165 19.427731147540985 1.84919384501e-05 0.0 0.0 0.0
250 1 3.6681739672131153 19.243183606557377 3.55212866347e-05 0.0 0.0 0.0
251 1 6.441643278688525 18.98764459016394 2.57729022881e-06 0.0 0.0 0.0
252 1 9.186428196721312 19.181381639344263 4.39792157305e-05 0.0 0.0 0.0
253 1 11.972515409836067 19.356790163934427 1.38987977534e-05 0.0 0.0 0.0
254 1 14.737244590163936 19.34598491803279 9.96869989698e-05 0.0 0.0 0.0
255 1 17.404625573770492 19.26226950819672 1.36026013952e-05 0.0 0.0 0.0
256 1 19.991421639344267 19.106552786885246 5.10451099955e-05 0.0 0.0 0.0
257 1 22.77720590163935 19.08564918032787 3.4573469873e-05 0.0 0.0 0.0
258 1 25.58990229508197 19.199558688524593 1.54767476381e-05 0.0 0.0 0.0
259 1 28.26687672131148 18.78693967213115 1.02074548264e-05 0.0 0.0 0.0
260 1 30.764049836065578 19.744112786885246 6.12888436747e-05 0.0 0.0 0.0
261 1 33.65818950819673 19.20460786885246 1.85829937304e-05 0.0 0.0 0.0
262 1 36.27709836065574 19.52836131147541 8.37464464714e-05 0.0 0.0 0.0
263 1 39.92947344262296 19.24015409836066 1.81856401348e-06 0.0 0.0 0.0
264 1 41.44155147540984 19.008093770491804 5.52181756436e-05 0.0 0.0 0.0
265 1 44.26368983606557 18.927710819672132 3.76894133882e-05 0.0 0.0 0.0
266 1 47.00388 19.300794754098362 6.30377295694e-05 0.0 0.0 0.0
267 1 49.79213836065574 19.851407868852462 5.1587135152e-05 0.0 0.0 0.0
268 1 52.638209836065585 19.836664262295084 9.97809056373e-05 0.0 0.0 0.0
269 1 55.31276065573771 19.3923868852459 7.72526077374e-05 0.0 0.0 0.0
270 1 58.06405901639345 18.97759672131148 5.45697718063e-05 0.0 0.0 0.0
271 1 61.07387540983607 18.80360196721312 4.42123504698e-05 0.0 0.0 0.0
272 1 62.63861639344263 18.821274098360657 2.55822216988e-05 0.0 0.0 0.0
273 1 65.40910163934427 18.856365901639347 9.0891474304e-05 0.0 0.0 0.0
274 1 67.73525901639346 20.06746229508197 9.11782517797e-05 0.0 0.0 0.0
275 1 70.6940786885246 19.271711475409838 4.10529214276e-05 0.0 0.0 0.0
276 1 73.48930491803279 19.5935462295082 4.93606855166e-05 0.0 0.0 0.0
277 1 76.90961967213116 19.552395409836066 7.08987936124e-05 0.0 0.0 0.0
278 1 78.43295737704919 19.369160655737705 6.31701099554e-05 0.0 0.0 0.0
279 1 81.13224918032788 19.271459016393443 7.68484696327e-05 0.0 0.0 0.0
280 1 82.42281967213115 21.697388196721313 2.53471332894e-05 0.0 0.0 0.0
281 1 2.4384208524590165 21.690824262295084 6.42026097517e-05 0.0 0.0 0.0
282 1 5.131835409836066 21.379744262295088 3.94969637085e-05 0.0 0.0 0.0
283 1 7.821432786885247 21.372120000000002 7.39200732199e-05 0.0 0.0 0.0
284 1 10.562026885245903 21.500470163934427 5.57418128336e-06 0.0 0.0 0.0
285 1 13.32221180327869 21.600797377049183 2.69840186415e-05 0.0 0.0 0.0
286 1 16.05568655737705 21.639120655737706 8.9894918326e-05 0.0 0.0 0.0
287 1 18.714736393442625 21.576207868852464 2.30824723586e-05 0.0 0.0 0.0
288 1 21.398123278688526 21.267854426229512 3.15512911175e-05 0.0 0.0 0.0
289 1 24.11801573770492 21.28830360655738 1.88202780546e-05 0.0 0.0 0.0
290 1 26.832253114754103 21.278558688524594 3.25243491273e-05 0.0 0.0 0.0
291 1 30.601264262295086 21.26270426229508 4.93929863194e-05 0.0 0.0 0.0
292 1 32.114604590163935 21.397769836065578 6.61943704276e-05 0.0 0.0 0.0
293 1 34.605870163934426 21.714201967213118 4.74016825817e-05 0.0 0.0 0.0
294 1 37.59271278688525 22.027958032786888 4.75386553709e-06 0.0 0.0 0.0
295 1 40.077060983606565 21.553032131147543 9.30164802936e-05 0.0 0.0 0.0
296 1 42.88289049180329 21.15389442622951 1.57294955952e-05 0.0 0.0 0.0
297 1 45.54466688524591 21.345207868852462 6.91827319695e-05 0.0 0.0 0.0
298 1 48.20800852459017 21.69819606557377 9.40495105184e-05 0.0 0.0 0.0
299 1 51.02398688524591 21.973426885245903 3.56319436071e-05 0.0 0.0 0.0
300 1 53.70661639344263 21.92041049180328 6.75492770863e-05 0.0 0.0 0.0
301 1 57.23245901639345 21.3429862295082 1.30035549287e-05 0.0 0.0 0.0
302 1 58.73862950819672 21.637100983606558 8.66149284849e-05 0.0 0.0 0.0
303 1 61.1612262295082 21.68673442622951 8.56836832302e-05 0.0 0.0 0.0
304 1 63.97765901639345 21.139150819672135 7.59386061374e-05 0.0 0.0 0.0
305 1 66.75672786885247 21.275781639344263 9.80177100055e-05 0.0 0.0 0.0
306 1 69.17579016393442 21.501732459016395 5.68658673423e-06 0.0 0.0 0.0
307 1 71.82610491803278 21.668355409836067 4.94370503533e-05 0.0 0.0 0.0
308 1 74.59406557377051 22.35206491803279 3.91316091052e-05 0.0 0.0 0.0
309 1 77.0924 22.03770295081967 3.53329221202e-05 0.0 0.0 0.0
310 1 79.78916721311477 21.669617704918032 2.837418982e-05 0.0 0.0 0.0
311 1 1.1260379016393445 23.99173573770492 9.83258642245e-05 0.0 0.0 0.0
312 1 3.7860369836065577 23.82703147540984 4.52206226697e-05 0.0 0.0 0.0
313 1 6.490569836065574 23.704487868852464 1.12819562947e-05 0.0 0.0 0.0
314 1 9.193295081967214 23.713626885245905 6.13547861865e-06 0.0 0.0 0.0
315 1 11.92732524590164 23.80920786885246 9.3651347153e-05 0.0 0.0 0.0
316 1 14.638684590163937 23.904889836065575 2.97633854282e-06 0.0 0.0 0.0
317 1 17.32207147540984 23.964268196721314 7.17350964016e-05 0.0 0.0 0.0
318 1 20.908453770491803 23.49015016393443 9.30344331029e-05 0.0 0.0 0.0
319 1 22.447393442622953 23.47772918032787 9.39241595772e-05 0.0 0.0 0.0
320 1 24.92876262295082 23.46763081967213 5.73931270539e-05 0.0 0.0 0.0
321 1 27.54928721311476 23.57982360655738 4.92380116667e-05 0.0 0.0 0.0
322 1 30.138052459016397 23.87959344262295 2.35956608946e-05 0.0 0.0 0.0
323 1 33.18553573770492 23.951544262295087 7.03247451611e-05 0.0 0.0 0.0
324 1 35.35218950819672 23.061474754098363 6.74204221408e-05 0.0 0.0 0.0
325 1 39.09100655737706 24.130739672131153 5.80991319614e-07 0.0 0.0 0.0
326 1 41.65922163934427 23.465712131147544 2.12091901402e-05 0.0 0.0 0.0
327 1 44.23450557377049 23.55089180327869 4.40140925575e-05 0.0 0.0 0.0
328 1 46.69648590163935 23.807592131147544 8.26620927496e-05 0.0 0.0 0.0
329 1 49.24723081967213 23.952251147540984 7.35951263762e-05 0.0 0.0 0.0
330 1 51.93435409836066 24.231773770491806 6.65283962837e-05 0.0 0.0 0.0
331 1 54.724026229508205 24.427278032786887 9.85224329677e-05 0.0 0.0 0.0
332 1 57.20519344262296 23.939628196721316 5.54802973654e-05 0.0 0.0 0.0
333 1 59.9524524590164 24.097011147540986 9.53202765374e-05 0.0 0.0 0.0
334 1 62.66487213114755 23.53433049180328 7.625952419e-05 0.0 0.0 0.0
335 1 65.2500524590164 23.45591672131148 3.38390707829e-05 0.0 0.0 0.0
336 1 67.72617049180329 23.82511278688525 3.93620770342e-05 0.0 0.0 0.0
337 1 70.18259672131148 23.82117442622951 4.05065839471e-05 0.0 0.0 0.0
338 1 72.35626885245902 23.118833442622954 5.54087559745e-05 0.0 0.0 0.0
339 1 76.21990163934427 24.55966754098361 3.0779560819e-06 0.0 0.0 0.0
340 1 78.68188196721312 24.15341049180328 9.19882259922e-05 0.0 0.0 0.0
341 1 81.20243278688525 24.056870163934427 1.27460214568e-05 0.0 0.0 0.0
342 1 82.58287868852459 26.402264918032788 3.49478971803e-05 0.0 0.0 0.0
343 1 2.415002754098361 26.24124655737705 9.31316393707e-05 0.0 0.0 0.0
344 1 5.051300983606558 26.053669508196723 4.94750440222e-05 0.0 0.0 0.0
345 1 7.889697704918033 26.01484131147541 6.51513021138e-05 0.0 0.0 0.0
346 1 10.531630819672133 26.034785573770492 3.39092770642e-05 0.0 0.0 0.0
347 1 13.257986229508198 26.15929836065574 4.15581745438e-05 0.0 0.0 0.0
348 1 15.798178360655738 26.265836065573776 6.55089231079e-05 0.0 0.0 0.0
349 1 18.375633442622956 26.361366557377053 4.66935155799e-05 0.0 0.0 0.0
350 1 21.020747540983606 26.085529836065575 1.50655968598e-05 0.0 0.0 0.0
351 1 23.758413114754102 25.941729180327872 9.78015132988e-06 0.0 0.0 0.0
352 1 26.276287868852464 25.805300327868856 9.71278931135e-05 0.0 0.0 0.0
353 1 28.898832131147543 25.998128524590168 4.47756904268e-05 0.0 0.0 0.0
354 1 30.921685245901642 25.211365245901643 5.35787183452e-05 0.0 0.0 0.0
355 1 34.6983206557377 25.943243934426235 1.7259733442e-05 0.0 0.0 0.0
356 1 37.40715540983607 26.166518688524594 6.80875069107e-05 0.0 0.0 0.0
357 1 41.21509573770493 25.899921967213118 8.22455042546e-06 0.0 0.0 0.0
358 1 42.74307868852459 25.842714754098363 4.75337362315e-05 0.0 0.0 0.0
359 1 45.23388983606558 26.117390163934427 1.93927078203e-05 0.0 0.0 0.0
360 1 47.76741704918033 26.259676065573775 9.83777920769e-05 0.0 0.0 0.0
361 1 50.30190360655739 26.31950885245902 5.64693646989e-05 0.0 0.0 0.0
362 1 52.45441967213115 25.680939016393445 1.67540919212e-05 0.0 0.0 0.0
363 1 56.086800000000004 26.52657573770492 3.41861715212e-05 0.0 0.0 0.0
364 1 58.57604590163935 26.20832590163935 7.17737864051e-05 0.0 0.0 0.0
365 1 61.35006557377049 25.983990819672133 6.1686900819e-05 0.0 0.0 0.0
366 1 63.9948262295082 25.86452721311476 7.06194261589e-06 0.0 0.0 0.0
367 1 66.50325901639346 26.051043934426232 8.79021895534e-05 0.0 0.0 0.0
368 1 69.05208524590164 26.250284590163936 1.70843653581e-05 0.0 0.0 0.0
369 1 71.58020983606558 25.97167081967213 6.1842238019e-06 0.0 0.0 0.0
370 1 73.85638032786886 25.216616393442624 8.42455257154e-05 0.0 0.0 0.0
371 1 77.31102950819674 26.75944393442623 2.23971206422e-06 0.0 0.0 0.0
372 1 79.91034754098362 26.54965049180328 6.28843604588e-05 0.0 0.0 0.0
373 1 1.2592403278688524 28.778207213114758 4.25265020731e-05 0.0 0.0 0.0
374 1 3.539344131147541 28.47929573770492 6.8992457349e-05 0.0 0.0 0.0
375 1 6.244018360655739 28.146150819672133 6.96515272958e-05 0.0 0.0 0.0
376 1 9.464486557377048 28.366446557377053 4.78246273783e-05 0.0 0.0 0.0
377 1 11.880620327868854 28.354480000000002 4.68272838997e-05 0.0 0.0 0.0
378 1 14.38405442622951 28.656471475409838 9.47903089909e-05 0.0 0.0 0.0
379 1 17.2534531147541 28.680606557377054 3.69696745427e-05 0.0 0.0 0.0
380 1 20.008942295081972 28.475003934426233 7.82537401557e-05 0.0 0.0 0.0
381 1 22.682634754098363 28.26404918032787 6.65686148819e-05 0.0 0.0 0.0
382 1 26.014033442622953 27.985940327868853 4.3545031183e-05 0.0 0.0 0.0
383 1 27.546560655737707 28.167660327868855 3.7762417065e-05 0.0 0.0 0.0
384 1 30.24767016393443 28.15635016393443 9.16202304847e-05 0.0 0.0 0.0
385 1 32.94191278688525 28.073695081967216 3.51542689327e-05 0.0 0.0 0.0
386 1 35.645597377049185 28.273491147540987 2.93839413989e-05 0.0 0.0 0.0
387 1 38.23380721311476 28.467985573770495 3.76171970613e-05 0.0 0.0 0.0
388 1 41.055945573770494 28.371596721311477 9.06420908268e-05 0.0 0.0 0.0
389 1 43.83456 28.408354754098365 3.2981762229e-05 0.0 0.0 0.0
390 1 46.41004590163935 28.597699016393445 6.4512265908e-05 0.0 0.0 0.0
391 1 49.046677377049186 28.684645901639346 3.92146451066e-05 0.0 0.0 0.0
392 1 51.74601967213115 28.546550819672134 5.49531596159e-05 0.0 0.0 0.0
393 1 54.49226885245902 28.644100983606563 1.27697288859e-05 0.0 0.0 0.0
394 1 57.234983606557385 28.744377704918037 5.02082675665e-05 0.0 0.0 0.0
395 1 59.89943606557378 28.24370098360656 6.8781078904e-05 0.0 0.0 0.0
396 1 62.61892459016394 28.213506885245906 7.73930871329e-06 0.0 0.0 0.0
397 1 65.23137049180329 28.369577049180332 7.09849432912e-06 0.0 0.0 0.0
398 1 67.82311475409836 28.53135278688525 8.9386718255e-05 0.0 0.0 0.0
399 1 70.48201311475411 28.50206754098361 6.75596305974e-05 0.0 0.0 0.0
400 1 73.21664918032788 28.04632852459017 8.22484085032e-05 0.0 0.0 0.0
401 1 75.11968524590165 29.85186491803279 4.47822093073e-05 0.0 0.0 0.0
402 1 78.73843278688526 29.04833836065574 6.39058904122e-05 0.0 0.0 0.0
403 1 81.39531147540986 28.787901639344266 8.95544307099e-05 0.0 0.0 0.0
404 1 82.59853114754098 31.19893573770492 5.16436612722e-06 0.0 0.0 0.0
405 1 2.6250587540983608 31.245287213114757 5.20667185942e-05 0.0 0.0 0.0
406 1 5.25448 30.479528524590165 2.86940584361e-05 0.0 0.0 0.0
407 1 7.280665573770492 29.256465573770495 8.19547151717e-05 0.0 0.0 0.0
408 1 10.540820327868854 30.83074950819672 9.71014171079e-05 0.0 0.0 0.0
409 1 12.93453573770492 30.892652459016396 4.03822770947e-05 0.0 0.0 0.0
410 1 15.032571147540986 30.059992131147542 6.45089799237e-05 0.0 0.0 0.0
411 1 18.68181573770492 30.739864262295082 5.77067851919e-05 0.0 0.0 0.0
412 1 21.267753442622954 30.632165245901643 1.67763377712e-05 0.0 0.0 0.0
413 1 23.825567213114756 30.754860327868858 2.09830377242e-05 0.0 0.0 0.0