ITEM: TIMESTEP
0
ITEM: NUMBER OF ATOMS
5580
ITEM: BOX BOUNDS xy xz yz pp pp pp
0.0 162.288381903 0
0.0 162.413224609 0
-10.0 10.0 0
ITEM: ATOMS id type x y z vx vy vz
1 1 3.08094902327 1.85871230444 0.0 0.0 0.0 0.0
2 1 10.8607890233 1.96397230444 0.0 0.0 0.0 0.0
3 1 13.9112890233 2.19512230444 0.0 0.0 0.0 0.0
4 1 18.9911890233 1.27458230444 0.0 0.0 0.0 0.0
5 1 24.7104890233 0.637092304445 0.0 0.0 0.0 0.0
6 1 30.0180890233 1.12304230444 0.0 0.0 0.0 0.0
7 1 34.4984890233 1.30929230444 0.0 0.0 0.0 0.0
8 1 39.2577890233 0.340652304445 0.0 0.0 0.0 0.0
9 1 43.5516890233 3.24959230444 0.0 0.0 0.0 0.0
10 1 49.4601890233 1.86860230444 0.0 0.0 0.0 0.0
11 1 55.0714890233 3.10790230444 0.0 0.0 0.0 0.0
12 1 60.0594890233 3.39994230444 0.0 0.0 0.0 0.0
13 1 64.5642890233 0.436542304445 0.0 0.0 0.0 0.0
14 1 69.5330890233 2.83011230444 0.0 0.0 0.0 0.0
15 1 75.1128890233 1.53343230444 0.0 0.0 0.0 0.0
16 1 79.8981890233 0.953302304445 0.0 0.0 0.0 0.0
17 1 84.0338890233 4.18191230444 0.0 0.0 0.0 0.0
18 1 89.8699890233 3.19930230444 0.0 0.0 0.0 0.0
19 1 96.0919890233 2.65810230444 0.0 0.0 0.0 0.0
20 1 101.519489023 3.60812230444 0.0 0.0 0.0 0.0
21 1 107.212489023 2.53613230444 0.0 0.0 0.0 0.0
22 1 112.026489023 2.10498230444 0.0 0.0 0.0 0.0
23 1 117.399489023 0.861222304445 0.0 0.0 0.0 0.0
24 1 123.651489023 0.809112304445 0.0 0.0 0.0 0.0
25 1 129.030489023 0.733902304445 0.0 0.0 0.0 0.0
26 1 133.799489023 1.66851230444 0.0 0.0 0.0 0.0
27 1 139.376489023 2.12089230444 0.0 0.0 0.0 0.0
28 1 144.392489023 1.31497230444 0.0 0.0 0.0 0.0
29 1 149.857489023 1.18305230444 0.0 0.0 0.0 0.0
30 1 154.183489023 4.23642230444 0.0 0.0 0.0 0.0
31 1 0.0596910232661 1.18031230444 0.0 0.0 0.0 0.0
32 1 0.399299023266 8.18662230444 0.0 0.0 0.0 0.0
33 1 5.73398902327 6.76280230444 0.0 0.0 0.0 0.0
34 1 10.2731890233 6.50861230444 0.0 0.0 0.0 0.0
35 1 18.9723890233 5.38153230444 0.0 0.0 0.0 0.0
36 1 21.8991890233 4.78268230444 0.0 0.0 0.0 0.0
37 1 26.8807890233 5.24141230444 0.0 0.0 0.0 0.0
38 1 31.5553890233 6.18588230444 0.0 0.0 0.0 0.0
39 1 36.3886890233 5.53189230444 0.0 0.0 0.0 0.0
40 1 41.5715890233 5.48948230444 0.0 0.0 0.0 0.0
41 1 45.8828890233 5.15637230444 0.0 0.0 0.0 0.0
42 1 53.6041890233 5.79104230444 0.0 0.0 0.0 0.0
43 1 58.7403890233 6.12173230444 0.0 0.0 0.0 0.0
44 1 65.3041890233 5.15840230444 0.0 0.0 0.0 0.0
45 1 68.3063890233 5.58008230444 0.0 0.0 0.0 0.0
46 1 73.1888890233 6.00892230444 0.0 0.0 0.0 0.0
47 1 78.2020890233 6.10761230444 0.0 0.0 0.0 0.0
48 1 82.6601890233 6.90115230444 0.0 0.0 0.0 0.0
49 1 87.2796890233 7.32212230444 0.0 0.0 0.0 0.0
50 1 91.7036890233 5.68714230444 0.0 0.0 0.0 0.0
51 1 99.5524890233 5.88232230444 0.0 0.0 0.0 0.0
52 1 104.417489023 6.84961230444 0.0 0.0 0.0 0.0
53 1 109.447489023 7.17846230444 0.0 0.0 0.0 0.0
54 1 116.754489023 5.03000230444 0.0 0.0 0.0 0.0
55 1 119.171489023 3.27072230444 0.0 0.0 0.0 0.0
56 1 125.953489023 5.11233230444 0.0 0.0 0.0 0.0
57 1 130.545489023 5.86705230444 0.0 0.0 0.0 0.0
58 1 135.135489023 4.35046230444 0.0 0.0 0.0 0.0
59 1 142.405489023 6.24946230444 0.0 0.0 0.0 0.0
60 1 147.171489023 5.39190230444 0.0 0.0 0.0 0.0
61 1 152.501489023 6.73553230444 0.0 0.0 0.0 0.0
62 1 157.753489023 6.91179230444 0.0 0.0 0.0 0.0
63 1 3.21638902327 11.5731123044 0.0 0.0 0.0 0.0
64 1 8.12042902327 11.6817123044 0.0 0.0 0.0 0.0
65 1 13.1405890233 10.0762123044 0.0 0.0 0.0 0.0
66 1 16.2369890233 7.80129230444 0.0 0.0 0.0 0.0
67 1 24.1741890233 9.65911230444 0.0 0.0 0.0 0.0
68 1 28.6166890233 12.7275123044 0.0 0.0 0.0 0.0
69 1 33.9363890233 10.6759123044 0.0 0.0 0.0 0.0
70 1 39.4533890233 9.98711230444 0.0 0.0 0.0 0.0
71 1 44.6303890233 12.1577123044 0.0 0.0 0.0 0.0
72 1 49.9716890233 10.1256123044 0.0 0.0 0.0 0.0
73 1 55.0121890233 10.3684123044 0.0 0.0 0.0 0.0
74 1 60.3939890233 10.8609123044 0.0 0.0 0.0 0.0
75 1 65.4298890233 10.6090123044 0.0 0.0 0.0 0.0
76 1 72.3312890233 10.0358123044 0.0 0.0 0.0 0.0
77 1 75.2787890233 10.7055123044 0.0 0.0 0.0 0.0
78 1 79.7903890233 11.5915123044 0.0 0.0 0.0 0.0
79 1 84.9902890233 12.0036123044 0.0 0.0 0.0 0.0
80 1 90.5604890233 11.2201123044 0.0 0.0 0.0 0.0
81 1 95.6087890233 10.1648123044 0.0 0.0 0.0 0.0
82 1 101.155489023 10.9259123044 0.0 0.0 0.0 0.0
83 1 106.597489023 11.6362123044 0.0 0.0 0.0 0.0
84 1 110.528489023 10.0123123044 0.0 0.0 0.0 0.0
85 1 117.692489023 10.2928123044 0.0 0.0 0.0 0.0
86 1 122.786489023 9.31151230444 0.0 0.0 0.0 0.0
87 1 127.301489023 10.2879123044 0.0 0.0 0.0 0.0
88 1 133.729489023 9.74771230444 0.0 0.0 0.0 0.0
89 1 139.506489023 10.3764123044 0.0 0.0 0.0 0.0
90 1 148.245489023 12.1946123044 0.0 0.0 0.0 0.0
91 1 147.464489023 9.32651230444 0.0 0.0 0.0 0.0
92 1 153.026489023 9.68961230444 0.0 0.0 0.0 0.0
93 1 160.796489023 10.5106123044 0.0 0.0 0.0 0.0
94 1 162.277489023 15.6987123044 0.0 0.0 0.0 0.0
95 1 4.25594902327 14.3658123044 0.0 0.0 0.0 0.0
96 1 10.3820890233 13.6202123044 0.0 0.0 0.0 0.0
97 1 16.4658890233 16.6557123044 0.0 0.0 0.0 0.0
98 1 21.4700890233 13.7536123044 0.0 0.0 0.0 0.0
99 1 27.0175890233 15.3204123044 0.0 0.0 0.0 0.0
100 1 31.8777890233 15.7673123044 0.0 0.0 0.0 0.0
101 1 37.0678890233 14.5382123044 0.0 0.0 0.0 0.0
102 1 42.6878890233 14.4688123044 0.0 0.0 0.0 0.0
103 1 47.5334890233 15.2156123044 0.0 0.0 0.0 0.0
104 1 52.5692890233 14.9522123044 0.0 0.0 0.0 0.0
105 1 57.8582890233 14.8690123044 0.0 0.0 0.0 0.0
106 1 63.1321890233 15.3322123044 0.0 0.0 0.0 0.0
107 1 68.2522890233 15.3959123044 0.0 0.0 0.0 0.0
108 1 73.5127890233 17.5346123044 0.0 0.0 0.0 0.0
109 1 78.0223890233 18.5278123044 0.0 0.0 0.0 0.0
110 1 83.0003890233 16.3231123044 0.0 0.0 0.0 0.0
111 1 88.6171890233 15.6396123044 0.0 0.0 0.0 0.0
112 1 94.2809890233 15.1007123044 0.0 0.0 0.0 0.0
113 1 99.4834890233 14.4898123044 0.0 0.0 0.0 0.0
114 1 104.693489023 17.2878123044 0.0 0.0 0.0 0.0
115 1 110.149489023 15.7883123044 0.0 0.0 0.0 0.0
116 1 115.079489023 15.0383123044 0.0 0.0 0.0 0.0
117 1 120.456489023 14.2927123044 0.0 0.0 0.0 0.0
118 1 124.769489023 14.7366123044 0.0 0.0 0.0 0.0
119 1 128.992489023 12.7566123044 0.0 0.0 0.0 0.0
120 1 135.973489023 13.6816123044 0.0 0.0 0.0 0.0
121 1 140.937489023 13.0176123044 0.0 0.0 0.0 0.0
122 1 147.436489023 16.9756123044 0.0 0.0 0.0 0.0
123 1 151.950489023 15.0174123044 0.0 0.0 0.0 0.0
124 1 157.079489023 14.3687123044 0.0 0.0 0.0 0.0
125 1 3.65722902327 19.7357123044 0.0 0.0 0.0 0.0
126 1 11.6066890233 18.7116123044 0.0 0.0 0.0 0.0
127 1 14.6431890233 19.0579123044 0.0 0.0 0.0 0.0
128 1 19.4493890233 19.0466123044 0.0 0.0 0.0 0.0
129 1 23.5898890233 20.7742123044 0.0 0.0 0.0 0.0
130 1 30.2996890233 23.1400123044 0.0 0.0 0.0 0.0
131 1 36.4984890233 19.0418123044 0.0 0.0 0.0 0.0
132 1 39.4701890233 18.5664123044 0.0 0.0 0.0 0.0
133 1 44.6833890233 19.5321123044 0.0 0.0 0.0 0.0
134 1 48.5066890233 18.0823123044 0.0 0.0 0.0 0.0
135 1 55.3836890233 19.2943123044 0.0 0.0 0.0 0.0
136 1 60.1209890233 19.4506123044 0.0 0.0 0.0 0.0
137 1 65.4046890233 19.8583123044 0.0 0.0 0.0 0.0
138 1 72.2604890233 20.3305123044 0.0 0.0 0.0 0.0
139 1 76.9879890233 21.3833123044 0.0 0.0 0.0 0.0
140 1 82.0038890233 21.5251123044 0.0 0.0 0.0 0.0
141 1 87.0215890233 19.8807123044 0.0 0.0 0.0 0.0
142 1 92.4130890233 19.2684123044 0.0 0.0 0.0 0.0
143 1 98.0283890233 19.1612123044 0.0 0.0 0.0 0.0
144 1 103.474489023 20.0408123044 0.0 0.0 0.0 0.0
145 1 108.517489023 20.5540123044 0.0 0.0 0.0 0.0
146 1 115.026489023 19.3382123044 0.0 0.0 0.0 0.0
147 1 118.055489023 18.9217123044 0.0 0.0 0.0 0.0
148 1 122.633489023 21.9978123044 0.0 0.0 0.0 0.0
149 1 129.430489023 17.9463123044 0.0 0.0 0.0 0.0
150 1 132.434489023 17.7163123044 0.0 0.0 0.0 0.0
151 1 137.769489023 17.8101123044 0.0 0.0 0.0 0.0
152 1 143.052489023 17.9908123044 0.0 0.0 0.0 0.0
153 1 150.648489023 20.5444123044 0.0 0.0 0.0 0.0
154 1 154.994489023 19.1503123044 0.0 0.0 0.0 0.0
155 1 160.074489023 21.0134123044 0.0 0.0 0.0 0.0
156 1 0.508249023266 23.7183123044 0.0 0.0 0.0 0.0
157 1 5.94811902327 23.2615123044 0.0 0.0 0.0 0.0
158 1 10.9422890233 23.6995123044 0.0 0.0 0.0 0.0
159 1 16.1623890233 23.9598123044 0.0 0.0 0.0 0.0
160 1 21.9914890233 23.2834123044 0.0 0.0 0.0 0.0
161 1 26.3558890233 21.8987123044 0.0 0.0 0.0 0.0
162 1 33.3960890233 26.3639123044 0.0 0.0 0.0 0.0
163 1 37.0820890233 24.7658123044 0.0 0.0 0.0 0.0
164 1 42.2211890233 23.4006123044 0.0 0.0 0.0 0.0
165 1 47.9232890233 23.8814123044 0.0 0.0 0.0 0.0
166 1 52.7946890233 23.5507123044 0.0 0.0 0.0 0.0
167 1 57.4805890233 24.1640123044 0.0 0.0 0.0 0.0
168 1 62.5499890233 23.9919123044 0.0 0.0 0.0 0.0
169 1 67.2112890233 22.2227123044 0.0 0.0 0.0 0.0
170 1 73.9519890233 28.1847123044 0.0 0.0 0.0 0.0
171 1 78.0128890233 24.2109123044 0.0 0.0 0.0 0.0
172 1 85.9669890233 24.8774123044 0.0 0.0 0.0 0.0
173 1 90.7320890233 23.7283123044 0.0 0.0 0.0 0.0
174 1 95.6432890233 23.2623123044 0.0 0.0 0.0 0.0
175 1 100.747489023 23.8670123044 0.0 0.0 0.0 0.0
176 1 105.284489023 24.8983123044 0.0 0.0 0.0 0.0
177 1 110.074489023 25.0396123044 0.0 0.0 0.0 0.0
178 1 115.915489023 24.7020123044 0.0 0.0 0.0 0.0
179 1 122.100489023 25.0227123044 0.0 0.0 0.0 0.0
180 1 126.572489023 24.5656123044 0.0 0.0 0.0 0.0
181 1 130.872489023 22.7850123044 0.0 0.0 0.0 0.0
182 1 136.026489023 22.0122123044 0.0 0.0 0.0 0.0
183 1 141.243489023 24.0446123044 0.0 0.0 0.0 0.0
184 1 147.259489023 24.4870123044 0.0 0.0 0.0 0.0
185 1 155.138489023 24.1598123044 0.0 0.0 0.0 0.0
186 1 158.000489023 23.2096123044 0.0 0.0 0.0 0.0
187 1 3.29156902327 27.6503123044 0.0 0.0 0.0 0.0
188 1 8.12071902327 29.5679123044 0.0 0.0 0.0 0.0
189 1 13.6896890233 28.4268123044 0.0 0.0 0.0 0.0
190 1 17.4704890233 26.7226123044 0.0 0.0 0.0 0.0
191 1 23.9919890233 29.7414123044 0.0 0.0 0.0 0.0
192 1 29.6868890233 29.0993123044 0.0 0.0 0.0 0.0
193 1 37.8235890233 30.1276123044 0.0 0.0 0.0 0.0
194 1 41.6575890233 27.8606123044 0.0 0.0 0.0 0.0
195 1 43.8840890233 25.8802123044 0.0 0.0 0.0 0.0
196 1 50.5026890233 28.4710123044 0.0 0.0 0.0 0.0
197 1 55.1093890233 28.6906123044 0.0 0.0 0.0 0.0
198 1 60.2197890233 28.6308123044 0.0 0.0 0.0 0.0
199 1 65.8160890233 27.6122123044 0.0 0.0 0.0 0.0
200 1 70.0126890233 25.5893123044 0.0 0.0 0.0 0.0
201 1 77.7241890233 29.6999123044 0.0 0.0 0.0 0.0
202 1 81.7585890233 27.2972123044 0.0 0.0 0.0 0.0
203 1 89.4124890233 28.8795123044 0.0 0.0 0.0 0.0
204 1 94.2524890233 28.0265123044 0.0 0.0 0.0 0.0
205 1 99.4114890233 30.0372123044 0.0 0.0 0.0 0.0
206 1 102.307489023 29.2634123044 0.0 0.0 0.0 0.0
207 1 108.412489023 29.6781123044 0.0 0.0 0.0 0.0
208 1 111.632489023 27.5936123044 0.0 0.0 0.0 0.0
209 1 118.007489023 26.9025123044 0.0 0.0 0.0 0.0
210 1 124.451489023 29.7505123044 0.0 0.0 0.0 0.0
211 1 129.455489023 28.3972123044 0.0 0.0 0.0 0.0
212 1 134.005489023 26.9073123044 0.0 0.0 0.0 0.0
213 1 139.239489023 26.2851123044 0.0 0.0 0.0 0.0
214 1 144.114489023 27.4863123044 0.0 0.0 0.0 0.0
215 1 148.231489023 29.5841123044 0.0 0.0 0.0 0.0
216 1 151.810489023 28.3993123044 0.0 0.0 0.0 0.0
217 1 159.968489023 28.1756123044 0.0 0.0 0.0 0.0
218 1 0.989389023266 31.8924123044 0.0 0.0 0.0 0.0
219 1 6.57073902327 32.1355123044 0.0 0.0 0.0 0.0
220 1 9.88038902327 35.5271123044 0.0 0.0 0.0 0.0
221 1 17.5694890233 32.5611123044 0.0 0.0 0.0 0.0
222 1 22.7582890233 32.4650123044 0.0 0.0 0.0 0.0
223 1 25.6966890233 33.0451123044 0.0 0.0 0.0 0.0
224 1 30.4060890233 34.1429123044 0.0 0.0 0.0 0.0
225 1 34.2117890233 32.9719123044 0.0 0.0 0.0 0.0
226 1 41.9053890233 33.5001123044 0.0 0.0 0.0 0.0
227 1 47.2706890233 32.5531123044 0.0 0.0 0.0 0.0
228 1 52.5643890233 33.5239123044 0.0 0.0 0.0 0.0
229 1 58.1111890233 33.2006123044 0.0 0.0 0.0 0.0
230 1 63.5635890233 32.0110123044 0.0 0.0 0.0 0.0
231 1 68.5283890233 31.4141123044 0.0 0.0 0.0 0.0
232 1 73.2286890233 31.1254123044 0.0 0.0 0.0 0.0
233 1 80.4794890233 33.0919123044 0.0 0.0 0.0 0.0
234 1 85.9751890233 32.8251123044 0.0 0.0 0.0 0.0
235 1 92.9347890233 33.0089123044 0.0 0.0 0.0 0.0
236 1 95.7855890233 33.8923123044 0.0 0.0 0.0 0.0
237 1 99.7524890233 35.6866123044 0.0 0.0 0.0 0.0
238 1 103.776489023 31.9095123044 0.0 0.0 0.0 0.0
239 1 113.355489023 32.7619123044 0.0 0.0 0.0 0.0
240 1 116.383489023 32.6048123044 0.0 0.0 0.0 0.0
241 1 121.217489023 33.8899123044 0.0 0.0 0.0 0.0
242 1 128.795489023 33.1513123044 0.0 0.0 0.0 0.0
243 1 131.703489023 32.3384123044 0.0 0.0 0.0 0.0
244 1 137.670489023 30.8929123044 0.0 0.0 0.0 0.0
245 1 140.621489023 31.3292123044 0.0 0.0 0.0 0.0
246 1 144.617489023 35.1461123044 0.0 0.0 0.0 0.0
247 1 152.790489023 35.6055123044 0.0 0.0 0.0 0.0
248 1 157.421489023 31.7984123044 0.0 0.0 0.0 0.0
249 1 2.57375902327 35.9824123044 0.0 0.0 0.0 0.0
250 1 7.26774902327 37.0216123044 0.0 0.0 0.0 0.0
251 1 11.4726890233 38.7767123044 0.0 0.0 0.0 0.0
252 1 16.7524890233 37.7016123044 0.0 0.0 0.0 0.0
253 1 21.8077890233 36.7820123044 0.0 0.0 0.0 0.0
254 1 27.2180890233 38.2441123044 0.0 0.0 0.0 0.0
255 1 33.0184890233 38.6738123044 0.0 0.0 0.0 0.0
256 1 39.6897890233 38.1815123044 0.0 0.0 0.0 0.0
257 1 45.1236890233 37.3334123044 0.0 0.0 0.0 0.0
258 1 50.2264890233 37.3660123044 0.0 0.0 0.0 0.0
259 1 54.1793890233 36.0894123044 0.0 0.0 0.0 0.0
260 1 61.7560890233 36.5608123044 0.0 0.0 0.0 0.0
261 1 65.7359890233 38.8513123044 0.0 0.0 0.0 0.0
262 1 70.9424890233 36.1797123044 0.0 0.0 0.0 0.0
263 1 76.4232890233 37.1971123044 0.0 0.0 0.0 0.0
264 1 84.0646890233 36.9910123044 0.0 0.0 0.0 0.0
265 1 86.9920890233 37.5592123044 0.0 0.0 0.0 0.0
266 1 91.4113890233 38.3771123044 0.0 0.0 0.0 0.0
267 1 96.4320890233 39.5905123044 0.0 0.0 0.0 0.0
268 1 102.312489023 37.2601123044 0.0 0.0 0.0 0.0
269 1 107.149489023 35.1305123044 0.0 0.0 0.0 0.0
270 1 113.666489023 38.1315123044 0.0 0.0 0.0 0.0
271 1 117.475489023 40.5889123044 0.0 0.0 0.0 0.0
272 1 124.781489023 38.5750123044 0.0 0.0 0.0 0.0
273 1 127.802489023 38.2367123044 0.0 0.0 0.0 0.0
274 1 135.188489023 36.9040123044 0.0 0.0 0.0 0.0
275 1 138.172489023 36.6467123044 0.0 0.0 0.0 0.0
276 1 143.000489023 37.6640123044 0.0 0.0 0.0 0.0
277 1 147.540489023 35.8519123044 0.0 0.0 0.0 0.0
278 1 157.499489023 35.9254123044 0.0 0.0 0.0 0.0
279 1 160.454489023 35.5840123044 0.0 0.0 0.0 0.0
280 1 161.635489023 40.7061123044 0.0 0.0 0.0 0.0
281 1 3.48120902327 41.0701123044 0.0 0.0 0.0 0.0
282 1 7.41337902327 44.4872123044 0.0 0.0 0.0 0.0
283 1 12.4868890233 41.5669123044 0.0 0.0 0.0 0.0
284 1 19.6878890233 41.7616123044 0.0 0.0 0.0 0.0
285 1 24.9696890233 41.6400123044 0.0 0.0 0.0 0.0
286 1 30.4017890233 42.2609123044 0.0 0.0 0.0 0.0
287 1 35.2700890233 40.6794123044 0.0 0.0 0.0 0.0
288 1 42.6841890233 41.9863123044 0.0 0.0 0.0 0.0
289 1 48.3751890233 41.8895123044 0.0 0.0 0.0 0.0
290 1 53.7578890233 41.7504123044 0.0 0.0 0.0 0.0
291 1 59.0458890233 41.2756123044 0.0 0.0 0.0 0.0
292 1 64.2492890233 41.5011123044 0.0 0.0 0.0 0.0
293 1 68.8613890233 41.1874123044 0.0 0.0 0.0 0.0
294 1 73.6192890233 40.8232123044 0.0 0.0 0.0 0.0
295 1 77.4737890233 40.0110123044 0.0 0.0 0.0 0.0
296 1 84.3295890233 42.4879123044 0.0 0.0 0.0 0.0
297 1 88.8007890233 42.9128123044 0.0 0.0 0.0 0.0
298 1 93.0876890233 45.6128123044 0.0 0.0 0.0 0.0
299 1 98.6458890233 43.3622123044 0.0 0.0 0.0 0.0
300 1 104.181489023 42.6967123044 0.0 0.0 0.0 0.0
301 1 109.752489023 42.4393123044 0.0 0.0 0.0 0.0
302 1 115.327489023 42.8005123044 0.0 0.0 0.0 0.0
303 1 120.243489023 44.3782123044 0.0 0.0 0.0 0.0
304 1 125.199489023 43.8713123044 0.0 0.0 0.0 0.0
305 1 131.930489023 42.2483123044 0.0 0.0 0.0 0.0
306 1 134.942489023 42.1286123044 0.0 0.0 0.0 0.0
307 1 139.819489023 41.9187123044 0.0 0.0 0.0 0.0
308 1 145.458489023 41.3545123044 0.0 0.0 0.0 0.0
309 1 153.903489023 41.4676123044 0.0 0.0 0.0 0.0
310 1 158.659489023 41.0924123044 0.0 0.0 0.0 0.0
311 1 0.727279023266 46.0719123044 0.0 0.0 0.0 0.0
312 1 5.92129902327 47.0893123044 0.0 0.0 0.0 0.0
313 1 11.0705890233 46.4522123044 0.0 0.0 0.0 0.0
314 1 16.3812890233 45.6334123044 0.0 0.0 0.0 0.0
315 1 20.6275890233 44.6017123044 0.0 0.0 0.0 0.0
316 1 27.3897890233 46.2147123044 0.0 0.0 0.0 0.0
317 1 34.1051890233 45.8583123044 0.0 0.0 0.0 0.0
318 1 40.0166890233 46.4444123044 0.0 0.0 0.0 0.0
319 1 45.4732890233 45.9451123044 0.0 0.0 0.0 0.0
320 1 50.9779890233 46.2913123044 0.0 0.0 0.0 0.0
321 1 58.0173890233 45.7189123044 0.0 0.0 0.0 0.0
322 1 61.0713890233 45.9324123044 0.0 0.0 0.0 0.0
323 1 67.8653890233 46.0188123044 0.0 0.0 0.0 0.0
324 1 70.8612890233 45.7338123044 0.0 0.0 0.0 0.0
325 1 76.2081890233 45.6581123044 0.0 0.0 0.0 0.0
326 1 81.5943890233 46.5797123044 0.0 0.0 0.0 0.0
327 1 85.2051890233 50.0417123044 0.0 0.0 0.0 0.0
328 1 92.0518890233 48.4447123044 0.0 0.0 0.0 0.0
329 1 97.5011890233 47.4071123044 0.0 0.0 0.0 0.0
330 1 102.108489023 49.4382123044 0.0 0.0 0.0 0.0
331 1 106.794489023 46.9932123044 0.0 0.0 0.0 0.0
332 1 111.617489023 46.8290123044 0.0 0.0 0.0 0.0
333 1 116.885489023 48.0248123044 0.0 0.0 0.0 0.0
334 1 122.725489023 48.8012123044 0.0 0.0 0.0 0.0
335 1 129.430489023 47.9608123044 0.0 0.0 0.0 0.0
336 1 132.422489023 47.5885123044 0.0 0.0 0.0 0.0
337 1 137.496489023 47.0083123044 0.0 0.0 0.0 0.0
338 1 143.974489023 45.4525123044 0.0 0.0 0.0 0.0
339 1 146.973489023 45.3860123044 0.0 0.0 0.0 0.0
340 1 152.129489023 45.5134123044 0.0 0.0 0.0 0.0
341 1 157.582489023 45.9233123044 0.0 0.0 0.0 0.0
342 1 160.104489023 50.3891123044 0.0 0.0 0.0 0.0
343 1 3.23384902327 51.0472123044 0.0 0.0 0.0 0.0
344 1 10.8117890233 50.3236123044 0.0 0.0 0.0 0.0
345 1 13.8030890233 50.2834123044 0.0 0.0 0.0 0.0
346 1 18.5355890233 50.0724123044 0.0 0.0 0.0 0.0
347 1 24.0126890233 50.0874123044 0.0 0.0 0.0 0.0
348 1 29.0259890233 48.7207123044 0.0 0.0 0.0 0.0
349 1 35.7934890233 48.3314123044 0.0 0.0 0.0 0.0
350 1 43.3316890233 50.4036123044 0.0 0.0 0.0 0.0
351 1 47.3541890233 52.5460123044 0.0 0.0 0.0 0.0
352 1 52.8108890233 51.0056123044 0.0 0.0 0.0 0.0
353 1 57.6012890233 51.1905123044 0.0 0.0 0.0 0.0
354 1 63.0349890233 51.1888123044 0.0 0.0 0.0 0.0
355 1 67.9099890233 51.0761123044 0.0 0.0 0.0 0.0
356 1 73.1016890233 50.0630123044 0.0 0.0 0.0 0.0
357 1 78.5984890233 50.3846123044 0.0 0.0 0.0 0.0
358 1 83.4668890233 52.4974123044 0.0 0.0 0.0 0.0
359 1 87.6636890233 51.7612123044 0.0 0.0 0.0 0.0
360 1 94.8965890233 51.9840123044 0.0 0.0 0.0 0.0
361 1 100.333489023 51.8445123044 0.0 0.0 0.0 0.0
362 1 104.575489023 52.5469123044 0.0 0.0 0.0 0.0
363 1 108.846489023 51.7809123044 0.0 0.0 0.0 0.0
364 1 114.028489023 51.6886123044 0.0 0.0 0.0 0.0
365 1 118.400489023 50.6132123044 0.0 0.0 0.0 0.0
366 1 125.141489023 53.2666123044 0.0 0.0 0.0 0.0
367 1 130.168489023 55.7460123044 0.0 0.0 0.0 0.0
368 1 134.993489023 52.1040123044 0.0 0.0 0.0 0.0
369 1 140.544489023 51.6532123044 0.0 0.0 0.0 0.0
370 1 145.325489023 50.4194123044 0.0 0.0 0.0 0.0
371 1 150.326489023 49.8231123044 0.0 0.0 0.0 0.0
372 1 154.760489023 52.1544123044 0.0 0.0 0.0 0.0
373 1 1.03310902327 54.9213123044 0.0 0.0 0.0 0.0
374 1 4.86567902327 53.6164123044 0.0 0.0 0.0 0.0
375 1 12.2421890233 55.3329123044 0.0 0.0 0.0 0.0
376 1 16.6985890233 57.4172123044 0.0 0.0 0.0 0.0
377 1 21.2445890233 54.2629123044 0.0 0.0 0.0 0.0
378 1 26.1103890233 52.2411123044 0.0 0.0 0.0 0.0
379 1 33.7834890233 55.1131123044 0.0 0.0 0.0 0.0
380 1 38.5382890233 52.2357123044 0.0 0.0 0.0 0.0
381 1 45.3045890233 54.7442123044 0.0 0.0 0.0 0.0
382 1 50.0231890233 55.6848123044 0.0 0.0 0.0 0.0
383 1 56.0428890233 57.8236123044 0.0 0.0 0.0 0.0
384 1 61.3508890233 55.4137123044 0.0 0.0 0.0 0.0
385 1 66.1260890233 55.9102123044 0.0 0.0 0.0 0.0
386 1 72.6071890233 54.4901123044 0.0 0.0 0.0 0.0
387 1 75.6453890233 54.4093123044 0.0 0.0 0.0 0.0
388 1 80.3218890233 57.6222123044 0.0 0.0 0.0 0.0
389 1 86.3012890233 57.2337123044 0.0 0.0 0.0 0.0
390 1 93.8548890233 56.2219123044 0.0 0.0 0.0 0.0
391 1 96.9081890233 56.0178123044 0.0 0.0 0.0 0.0
392 1 100.295489023 59.3785123044 0.0 0.0 0.0 0.0
393 1 106.810489023 57.2823123044 0.0 0.0 0.0 0.0
394 1 112.088489023 56.1521123044 0.0 0.0 0.0 0.0
395 1 117.415489023 55.9674123044 0.0 0.0 0.0 0.0
396 1 122.692489023 57.2456123044 0.0 0.0 0.0 0.0
397 1 128.174489023 58.0541123044 0.0 0.0 0.0 0.0
398 1 133.329489023 57.4071123044 0.0 0.0 0.0 0.0
399 1 139.325489023 55.7556123044 0.0 0.0 0.0 0.0
400 1 145.864489023 54.5349123044 0.0 0.0 0.0 0.0
401 1 148.901489023 54.6971123044 0.0 0.0 0.0 0.0
402 1 153.783489023 54.9867123044 0.0 0.0 0.0 0.0
403 1 158.395489023 57.6473123044 0.0 0.0 0.0 0.0
404 1 161.962489023 60.0427123044 0.0 0.0 0.0 0.0
405 1 4.47865902327 59.3165123044 0.0 0.0 0.0 0.0
406 1 9.91908902327 59.9194123044 0.0 0.0 0.0 0.0
407 1 15.6568890233 60.2321123044 0.0 0.0 0.0 0.0
408 1 21.4669890233 59.1474123044 0.0 0.0 0.0 0.0
409 1 26.6554890233 58.8696123044 0.0 0.0 0.0 0.0
410 1 32.4528890233 57.8185123044 0.0 0.0 0.0 0.0
411 1 37.2021890233 57.7884123044 0.0 0.0 0.0 0.0
412 1 42.0679890233 58.7119123044 0.0 0.0 0.0 0.0
413 1 47.4465890233 59.9145123044 0.0 0.0 0.0 0.0
414 1 51.9266890233 57.9757123044 0.0 0.0 0.0 0.0
415 1 58.7814890233 60.1763123044 0.0 0.0 0.0 0.0
416 1 63.6604890233 60.5527123044 0.0 0.0 0.0 0.0
417 1 68.3999890233 60.8207123044 0.0 0.0 0.0 0.0
418 1 73.2650890233 59.7227123044 0.0 0.0 0.0 0.0
419 1 78.6082890233 60.1229123044 0.0 0.0 0.0 0.0
420 1 82.9859890233 60.9979123044 0.0 0.0 0.0 0.0
421 1 88.2667890233 61.7042123044 0.0 0.0 0.0 0.0
422 1 94.4227890233 60.5416123044 0.0 0.0 0.0 0.0
423 1 98.8855890233 63.0747123044 0.0 0.0 0.0 0.0
424 1 102.861489023 60.9916123044 0.0 0.0 0.0 0.0
425 1 110.309489023 60.9095123044 0.0 0.0 0.0 0.0
426 1 115.320489023 60.3838123044 0.0 0.0 0.0 0.0
427 1 119.617489023 63.1470123044 0.0 0.0 0.0 0.0
428 1 125.151489023 61.8808123044 0.0 0.0 0.0 0.0
429 1 129.190489023 60.8853123044 0.0 0.0 0.0 0.0
430 1 135.713489023 59.1629123044 0.0 0.0 0.0 0.0
431 1 142.134489023 60.0476123044 0.0 0.0 0.0 0.0
432 1 146.486489023 59.9415123044 0.0 0.0 0.0 0.0
433 1 152.450489023 59.5882123044 0.0 0.0 0.0 0.0
434 1 159.025489023 60.5608123044 0.0 0.0 0.0 0.0
435 1 1.80072902327 64.3983123044 0.0 0.0 0.0 0.0
436 1 7.33975902327 63.8763123044 0.0 0.0 0.0 0.0
437 1 12.8474890233 63.9683123044 0.0 0.0 0.0 0.0
438 1 17.6372890233 62.5081123044 0.0 0.0 0.0 0.0
439 1 25.7332890233 61.7264123044 0.0 0.0 0.0 0.0
440 1 29.7453890233 64.5523123044 0.0 0.0 0.0 0.0
441 1 35.0901890233 62.6746123044 0.0 0.0 0.0 0.0
442 1 39.4771890233 65.5180123044 0.0 0.0 0.0 0.0
443 1 44.9451890233 63.5085123044 0.0 0.0 0.0 0.0
444 1 50.6159890233 63.6116123044 0.0 0.0 0.0 0.0
445 1 55.4632890233 63.7747123044 0.0 0.0 0.0 0.0
446 1 60.5662890233 64.9756123044 0.0 0.0 0.0 0.0
447 1 64.3714890233 63.5082123044 0.0 0.0 0.0 0.0
448 1 70.8515890233 64.8664123044 0.0 0.0 0.0 0.0
449 1 75.6054890233 64.3309123044 0.0 0.0 0.0 0.0
450 1 79.9218890233 65.4954123044 0.0 0.0 0.0 0.0
451 1 84.5912890233 65.5828123044 0.0 0.0 0.0 0.0
452 1 89.4522890233 64.4681123044 0.0 0.0 0.0 0.0
453 1 96.7281890233 65.1333123044 0.0 0.0 0.0 0.0
454 1 101.492489023 66.8019123044 0.0 0.0 0.0 0.0
455 1 109.099489023 65.1792123044 0.0 0.0 0.0 0.0
456 1 112.127489023 65.1267123044 0.0 0.0 0.0 0.0
457 1 117.511489023 65.2931123044 0.0 0.0 0.0 0.0
458 1 122.588489023 66.4632123044 0.0 0.0 0.0 0.0
459 1 128.638489023 66.3772123044 0.0 0.0 0.0 0.0
460 1 136.631489023 64.0208123044 0.0 0.0 0.0 0.0
461 1 139.601489023 64.5291123044 0.0 0.0 0.0 0.0
462 1 146.045489023 64.4710123044 0.0 0.0 0.0 0.0
463 1 148.158489023 62.3877123044 0.0 0.0 0.0 0.0
464 1 153.371489023 67.5898123044 0.0 0.0 0.0 0.0
465 1 158.644489023 65.6778123044 0.0 0.0 0.0 0.0
466 1 162.206489023 69.1542123044 0.0 0.0 0.0 0.0
467 1 4.94996902327 68.2702123044 0.0 0.0 0.0 0.0
468 1 10.4337890233 68.1429123044 0.0 0.0 0.0 0.0
469 1 16.1075890233 67.8338123044 0.0 0.0 0.0 0.0
470 1 24.0889890233 66.3855123044 0.0 0.0 0.0 0.0
471 1 27.1259890233 66.0962123044 0.0 0.0 0.0 0.0
472 1 32.1296890233 67.6014123044 0.0 0.0 0.0 0.0
473 1 37.9204890233 68.1701123044 0.0 0.0 0.0 0.0
474 1 44.9390890233 67.2215123044 0.0 0.0 0.0 0.0
475 1 47.9226890233 67.6727123044 0.0 0.0 0.0 0.0
476 1 54.5531890233 68.1039123044 0.0 0.0 0.0 0.0
477 1 57.5140890233 68.7817123044 0.0 0.0 0.0 0.0
478 1 62.8377890233 69.3281123044 0.0 0.0 0.0 0.0
479 1 68.0410890233 69.5121123044 0.0 0.0 0.0 0.0
480 1 73.0709890233 69.3629123044 0.0 0.0 0.0 0.0
481 1 76.9334890233 72.5099123044 0.0 0.0 0.0 0.0
482 1 81.9798890233 70.4025123044 0.0 0.0 0.0 0.0
483 1 87.2857890233 69.6260123044 0.0 0.0 0.0 0.0
484 1 92.7245890233 68.7120123044 0.0 0.0 0.0 0.0
485 1 97.8366890233 70.3663123044 0.0 0.0 0.0 0.0
486 1 102.579489023 69.6123123044 0.0 0.0 0.0 0.0
487 1 110.835489023 73.1290123044 0.0 0.0 0.0 0.0
488 1 115.466489023 69.4775123044 0.0 0.0 0.0 0.0
489 1 120.215489023 70.2371123044 0.0 0.0 0.0 0.0
490 1 123.801489023 69.2066123044 0.0 0.0 0.0 0.0
491 1 130.473489023 68.7811123044 0.0 0.0 0.0 0.0
492 1 137.604489023 69.0808123044 0.0 0.0 0.0 0.0
493 1 142.222489023 69.6535123044 0.0 0.0 0.0 0.0
494 1 147.007489023 72.4825123044 0.0 0.0 0.0 0.0
495 1 152.240489023 70.4396123044 0.0 0.0 0.0 0.0
496 1 157.167489023 70.5962123044 0.0 0.0 0.0 0.0
497 1 3.82312902327 73.0880123044 0.0 0.0 0.0 0.0
498 1 9.79678902327 72.8552123044 0.0 0.0 0.0 0.0
499 1 12.7167890233 72.0042123044 0.0 0.0 0.0 0.0
500 1 18.2318890233 71.9224123044 0.0 0.0 0.0 0.0
501 1 23.0540890233 71.3640123044 0.0 0.0 0.0 0.0
502 1 28.3340890233 71.1196123044 0.0 0.0 0.0 0.0
503 1 33.4389890233 70.3015123044 0.0 0.0 0.0 0.0
504 1 39.7869890233 72.7099123044 0.0 0.0 0.0 0.0
505 1 44.2994890233 72.5312123044 0.0 0.0 0.0 0.0
506 1 49.7507890233 73.0679123044 0.0 0.0 0.0 0.0
507 1 54.0809890233 73.2779123044 0.0 0.0 0.0 0.0
508 1 59.7833890233 73.5459123044 0.0 0.0 0.0 0.0
509 1 65.4737890233 74.0028123044 0.0 0.0 0.0 0.0
510 1 70.8574890233 74.1434123044 0.0 0.0 0.0 0.0
511 1 75.7723890233 75.2984123044 0.0 0.0 0.0 0.0
512 1 80.2563890233 75.5855123044 0.0 0.0 0.0 0.0
513 1 84.9935890233 74.3323123044 0.0 0.0 0.0 0.0
514 1 90.3234890233 73.2933123044 0.0 0.0 0.0 0.0
515 1 95.4086890233 73.7776123044 0.0 0.0 0.0 0.0
516 1 99.5164890233 72.8510123044 0.0 0.0 0.0 0.0
517 1 106.244489023 72.4970123044 0.0 0.0 0.0 0.0
518 1 115.102489023 74.0536123044 0.0 0.0 0.0 0.0
519 1 118.021489023 74.5963123044 0.0 0.0 0.0 0.0
520 1 122.649489023 74.9870123044 0.0 0.0 0.0 0.0
521 1 127.753489023 74.4784123044 0.0 0.0 0.0 0.0
522 1 130.600489023 71.8086123044 0.0 0.0 0.0 0.0
523 1 137.794489023 76.0476123044 0.0 0.0 0.0 0.0
524 1 145.833489023 75.2685123044 0.0 0.0 0.0 0.0
525 1 150.227489023 75.5813123044 0.0 0.0 0.0 0.0
526 1 154.951489023 75.2578123044 0.0 0.0 0.0 0.0
527 1 160.678489023 74.2548123044 0.0 0.0 0.0 0.0
528 1 0.844689023266 77.9202123044 0.0 0.0 0.0 0.0
529 1 7.19396902327 77.7038123044 0.0 0.0 0.0 0.0
530 1 11.5257890233 78.0036123044 0.0 0.0 0.0 0.0
531 1 16.1690890233 76.1332123044 0.0 0.0 0.0 0.0
532 1 21.2105890233 76.3924123044 0.0 0.0 0.0 0.0
533 1 27.1418890233 75.3492123044 0.0 0.0 0.0 0.0
534 1 30.1294890233 75.0254123044 0.0 0.0 0.0 0.0
535 1 37.7215890233 76.8925123044 0.0 0.0 0.0 0.0
536 1 41.7133890233 77.4701123044 0.0 0.0 0.0 0.0
537 1 46.6588890233 76.8541123044 0.0 0.0 0.0 0.0
538 1 50.2734890233 76.0534123044 0.0 0.0 0.0 0.0
539 1 56.8160890233 77.3056123044 0.0 0.0 0.0 0.0
540 1 60.7596890233 76.4297123044 0.0 0.0 0.0 0.0
541 1 67.6918890233 78.3961123044 0.0 0.0 0.0 0.0
542 1 72.6001890233 79.3531123044 0.0 0.0 0.0 0.0
543 1 78.1508890233 80.4366123044 0.0 0.0 0.0 0.0
544 1 83.8555890233 79.4969123044 0.0 0.0 0.0 0.0
545 1 88.8945890233 77.8364123044 0.0 0.0 0.0 0.0
546 1 93.7883890233 80.1748123044 0.0 0.0 0.0 0.0
547 1 99.1333890233 78.1466123044 0.0 0.0 0.0 0.0
548 1 104.549489023 78.0328123044 0.0 0.0 0.0 0.0
549 1 111.241489023 79.0577123044 0.0 0.0 0.0 0.0
550 1 114.181489023 79.6321123044 0.0 0.0 0.0 0.0
551 1 118.520489023 77.5771123044 0.0 0.0 0.0 0.0
552 1 125.888489023 79.1709123044 0.0 0.0 0.0 0.0
553 1 131.063489023 77.8589123044 0.0 0.0 0.0 0.0
554 1 136.090489023 78.4774123044 0.0 0.0 0.0 0.0
555 1 140.440489023 77.4137123044 0.0 0.0 0.0 0.0
556 1 146.798489023 80.3204123044 0.0 0.0 0.0 0.0
557 1 152.398489023 80.3443123044 0.0 0.0 0.0 0.0
558 1 157.703489023 78.6138123044 0.0 0.0 0.0 0.0
559 1 2.21563902327 80.6051123044 0.0 0.0 0.0 0.0
560 1 8.09994902327 84.7706123044 0.0 0.0 0.0 0.0
561 1 15.4083890233 81.3973123044 0.0 0.0 0.0 0.0
562 1 18.3448890233 80.8666123044 0.0 0.0 0.0 0.0
563 1 22.9429890233 81.5987123044 0.0 0.0 0.0 0.0
564 1 27.0980890233 81.0690123044 0.0 0.0 0.0 0.0
565 1 31.5027890233 80.1746123044 0.0 0.0 0.0 0.0
566 1 34.9819890233 78.0550123044 0.0 0.0 0.0 0.0
567 1 44.6896890233 81.6805123044 0.0 0.0 0.0 0.0
568 1 49.6271890233 83.8936123044 0.0 0.0 0.0 0.0
569 1 54.8130890233 81.9328123044 0.0 0.0 0.0 0.0
570 1 59.1067890233 84.5468123044 0.0 0.0 0.0 0.0
571 1 64.3630890233 82.3062123044 0.0 0.0 0.0 0.0
572 1 69.6235890233 83.5082123044 0.0 0.0 0.0 0.0
573 1 73.5538890233 82.2241123044 0.0 0.0 0.0 0.0
574 1 80.0963890233 82.7082123044 0.0 0.0 0.0 0.0
575 1 87.2799890233 82.8882123044 0.0 0.0 0.0 0.0
576 1 92.3286890233 82.7836123044 0.0 0.0 0.0 0.0
577 1 96.9422890233 82.9766123044 0.0 0.0 0.0 0.0
578 1 101.617489023 82.4578123044 0.0 0.0 0.0 0.0
579 1 106.282489023 83.4911123044 0.0 0.0 0.0 0.0
580 1 111.541489023 83.3969123044 0.0 0.0 0.0 0.0
581 1 117.395489023 83.2425123044 0.0 0.0 0.0 0.0
582 1 123.093489023 83.3220123044 0.0 0.0 0.0 0.0
583 1 128.486489023 82.8644123044 0.0 0.0 0.0 0.0
584 1 134.176489023 82.6961123044 0.0 0.0 0.0 0.0
585 1 139.134489023 82.8350123044 0.0 0.0 0.0 0.0
586 1 144.026489023 84.8056123044 0.0 0.0 0.0 0.0
587 1 148.986489023 85.2518123044 0.0 0.0 0.0 0.0
588 1 155.643489023 83.5371123044 0.0 0.0 0.0 0.0
589 1 160.773489023 82.4775123044 0.0 0.0 0.0 0.0
590 1 1.42624902327 86.4992123044 0.0 0.0 0.0 0.0
591 1 6.17410902327 87.0630123044 0.0 0.0 0.0 0.0
592 1 11.3012890233 87.5804123044 0.0 0.0 0.0 0.0
593 1 15.8502890233 86.4641123044 0.0 0.0 0.0 0.0
594 1 20.7635890233 86.0574123044 0.0 0.0 0.0 0.0
595 1 25.9003890233 86.4054123044 0.0 0.0 0.0 0.0
596 1 31.3226890233 85.0510123044 0.0 0.0 0.0 0.0
597 1 36.4595890233 85.7538123044 0.0 0.0 0.0 0.0
598 1 41.9314890233 84.6923123044 0.0 0.0 0.0 0.0